%VERSION  VERSION_STAMP = V0001.000  DATE = 03/03/25  11:45:22                  
%FLAG TITLE                                                                     
%FORMAT(20a4)                                                                   
default_name                                                                    
%FLAG POINTERS                                                                  
%FORMAT(10I8)                                                                   
   52879      30   38649   14271    1708    2543    3824    4973       0       0
  100917   12835   14271    2543    4973      70     127      69      48       0
       0       0       0       0       0       0       0       0      34       0
   12635
%FLAG ATOM_NAME                                                                 
%FORMAT(20a4)                                                                   
HO5'O5' C5' H5' H5''C4' H4' O4' C1' H1' N9  C8  H8  N7  C5  C6  O6  N1  H1  C2  
N2  H21 H22 N3  C4  C3' H3' C2' H2' O2' HO2'O3' P   OP1 OP2 O5' C5' H5' H5''C4' 
H4' O4' C1' H1' N9  C8  H8  N7  C5  C6  O6  N1  H1  C2  N2  H21 H22 N3  C4  C3' 
H3' C2' H2' O2' HO2'O3' P   OP1 OP2 O5' C5' H5' H5''C4' H4' O4' C1' H1' N9  C8  
H8  N7  C5  C6  N6  H61 H62 N1  C2  H2  N3  C4  C3' H3' C2' H2' O2' HO2'O3' P   
OP1 OP2 O5' C5' H5' H5''C4' H4' O4' C1' H1' N1  C6  H6  C5  H5  C4  O4  N3  H3  
C2  O2  C3' H3' C2' H2' O2' HO2'O3' P   OP1 OP2 O5' C5' H5' H5''C4' H4' O4' C1' 
H1' N1  C6  H6  C5  H5  C4  N4  H41 H42 N3  C2  O2  C3' H3' C2' H2' O2' HO2'O3' 
P   OP1 OP2 O5' C5' H5' H5''C4' H4' O4' C1' H1' N9  C8  H8  N7  C5  C6  N6  H61 
H62 N1  C2  H2  N3  C4  C3' H3' C2' H2' O2' HO2'O3' P   OP1 OP2 O5' C5' H5' H5''
C4' H4' O4' C1' H1' N1  C6  H6  C5  H5  C4  O4  N3  H3  C2  O2  C3' H3' C2' H2' 
O2' HO2'O3' P   OP1 OP2 O5' C5' H5' H5''C4' H4' O4' C1' H1' N9  C8  H8  N7  C5  
C6  N6  H61 H62 N1  C2  H2  N3  C4  C3' H3' C2' H2' O2' HO2'O3' P   OP1 OP2 O5' 
C5' H5' H5''C4' H4' O4' C1' H1' N1  C6  H6  C5  H5  C4  O4  N3  H3  C2  O2  C3' 
H3' C2' H2' O2' HO2'O3' P   OP1 OP2 O5' C5' H5' H5''C4' H4' O4' C1' H1' N9  C8  
H8  N7  C5  C6  N6  H61 H62 N1  C2  H2  N3  C4  C3' H3' C2' H2' O2' HO2'O3' P   
OP1 OP2 O5' C5' H5' H5''C4' H4' O4' C1' H1' N9  C8  H8  N7  C5  C6  N6  H61 H62 
N1  C2  H2  N3  C4  C3' H3' C2' H2' O2' HO2'O3' P   OP1 OP2 O5' C5' H5' H5''C4' 
H4' O4' C1' H1' N1  C6  H6  C5  H5  C4  O4  N3  H3  C2  O2  C3' H3' C2' H2' O2' 
HO2'O3' P   OP1 OP2 O5' C5' H5' H5''C4' H4' O4' C1' H1' N1  C6  H6  C5  H5  C4  
N4  H41 H42 N3  C2  O2  C3' H3' C2' H2' O2' HO2'O3' P   OP1 OP2 O5' C5' H5' H5''
C4' H4' O4' C1' H1' N9  C8  H8  N7  C5  C6  O6  N1  H1  C2  N2  H21 H22 N3  C4  
C3' H3' C2' H2' O2' HO2'O3' P   OP1 OP2 O5' C5' H5' H5''C4' H4' O4' C1' H1' N1  
C6  H6  C5  H5  C4  N4  H41 H42 N3  C2  O2  C3' H3' C2' H2' O2' HO2'O3' P   OP1 
OP2 O5' C5' H5' H5''C4' H4' O4' C1' H1' N9  C8  H8  N7  C5  C6  O6  N1  H1  C2  
N2  H21 H22 N3  C4  C3' H3' C2' H2' O2' HO2'O3' P   OP1 OP2 O5' C5' H5' H5''C4' 
H4' O4' C1' H1' N1  C6  H6  C5  H5  C4  O4  N3  H3  C2  O2  C3' H3' C2' H2' O2' 
HO2'O3' P   OP1 OP2 O5' C5' H5' H5''C4' H4' O4' C1' H1' N9  C8  H8  N7  C5  C6  
O6  N1  H1  C2  N2  H21 H22 N3  C4  C3' H3' C2' H2' O2' HO2'O3' P   OP1 OP2 O5' 
C5' H5' H5''C4' H4' O4' C1' H1' N9  C8  H8  N7  C5  C6  O6  N1  H1  C2  N2  H21 
H22 N3  C4  C3' H3' C2' H2' O2' HO2'O3' P   OP1 OP2 O5' C5' H5' H5''C4' H4' O4' 
C1' H1' N9  C8  H8  N7  C5  C6  N6  H61 H62 N1  C2  H2  N3  C4  C3' H3' C2' H2' 
O2' HO2'O3' P   OP1 OP2 O5' C5' H5' H5''C4' H4' O4' C1' H1' N1  C6  H6  C5  H5  
C4  O4  N3  H3  C2  O2  C3' H3' C2' H2' O2' HO2'O3' P   OP1 OP2 O5' C5' H5' H5''
C4' H4' O4' C1' H1' N9  C8  H8  N7  C5  C6  N6  H61 H62 N1  C2  H2  N3  C4  C3' 
H3' C2' H2' O2' HO2'O3' P   OP1 OP2 O5' C5' H5' H5''C4' H4' O4' C1' H1' N1  C6  
H6  C5  H5  C4  O4  N3  H3  C2  O2  C3' H3' C2' H2' O2' HO2'O3' P   OP1 OP2 O5' 
C5' H5' H5''C4' H4' O4' C1' H1' N9  C8  H8  N7  C5  C6  O6  N1  H1  C2  N2  H21 
H22 N3  C4  C3' H3' C2' H2' O2' HO2'O3' P   OP1 OP2 O5' C5' H5' H5''C4' H4' O4' 
C1' H1' N9  C8  H8  N7  C5  C6  O6  N1  H1  C2  N2  H21 H22 N3  C4  C3' H3' C2' 
H2' O2' HO2'O3' P   OP1 OP2 O5' C5' H5' H5''C4' H4' O4' C1' H1' N1  C6  H6  C5  
H5  C4  N4  H41 H42 N3  C2  O2  C3' H3' C2' H2' O2' HO2'O3' P   OP1 OP2 O5' C5' 
H5' H5''C4' H4' O4' C1' H1' N9  C8  H8  N7  C5  C6  N6  H61 H62 N1  C2  H2  N3  
C4  C3' H3' C2' H2' O2' HO2'O3' P   OP1 OP2 O5' C5' H5' H5''C4' H4' O4' C1' H1' 
N1  C6  H6  C5  H5  C4  N4  H41 H42 N3  C2  O2  C3' H3' C2' H2' O2' HO2'O3' P   
OP1 OP2 O5' C5' H5' H5''C4' H4' O4' C1' H1' N9  C8  H8  N7  C5  C6  O6  N1  H1  
C2  N2  H21 H22 N3  C4  C3' H3' C2' H2' O2' HO2'O3' P   OP1 OP2 O5' C5' H5' H5''
C4' H4' O4' C1' H1' N1  C6  H6  C5  H5  C4  N4  H41 H42 N3  C2  O2  C3' H3' C2' 
H2' O2' HO2'O3' P   OP1 OP2 O5' C5' H5' H5''C4' H4' O4' C1' H1' N9  C8  H8  N7  
C5  C6  N6  H61 H62 N1  C2  H2  N3  C4  C3' H3' C2' H2' O2' HO2'O3' P   OP1 OP2 
O5' C5' H5' H5''C4' H4' O4' C1' H1' N9  C8  H8  N7  C5  C6  N6  H61 H62 N1  C2  
H2  N3  C4  C3' H3' C2' H2' O2' HO2'O3' P   OP1 OP2 O5' C5' H5' H5''C4' H4' O4' 
C1' H1' N9  C8  H8  N7  C5  C6  O6  N1  H1  C2  N2  H21 H22 N3  C4  C3' H3' C2' 
H2' O2' HO2'O3' P   OP1 OP2 O5' C5' H5' H5''C4' H4' O4' C1' H1' N1  C6  H6  C5  
H5  C4  O4  N3  H3  C2  O2  C3' H3' C2' H2' O2' HO2'O3' P   OP1 OP2 O5' C5' H5' 
H5''C4' H4' O4' C1' H1' N1  C6  H6  C5  H5  C4  O4  N3  H3  C2  O2  C3' H3' C2' 
H2' O2' HO2'O3' P   OP1 OP2 O5' C5' H5' H5''C4' H4' O4' C1' H1' N1  C6  H6  C5  
H5  C4  O4  N3  H3  C2  O2  C3' H3' C2' H2' O2' HO2'O3' P   OP1 OP2 O5' C5' H5' 
H5''C4' H4' O4' C1' H1' N1  C6  H6  C5  H5  C4  N4  H41 H42 N3  C2  O2  C3' H3' 
C2' H2' O2' HO2'O3' P   OP1 OP2 O5' C5' H5' H5''C4' H4' O4' C1' H1' N1  C6  H6  
C5  H5  C4  O4  N3  H3  C2  O2  C3' H3' C2' H2' O2' HO2'O3' P   OP1 OP2 O5' C5' 
H5' H5''C4' H4' O4' C1' H1' N9  C8  H8  N7  C5  C6  N6  H61 H62 N1  C2  H2  N3  
C4  C3' H3' C2' H2' O2' HO2'O3' P   OP1 OP2 O5' C5' H5' H5''C4' H4' O4' C1' H1' 
N1  C6  H6  C5  H5  C4  N4  H41 H42 N3  C2  O2  C3' H3' C2' H2' O2' HO2'O3' P   
OP1 OP2 O5' C5' H5' H5''C4' H4' O4' C1' H1' N1  C6  H6  C5  H5  C4  N4  H41 H42 
N3  C2  O2  C3' H3' C2' H2' O2' HO2'O3' P   OP1 OP2 O5' C5' H5' H5''C4' H4' O4' 
C1' H1' N9  C8  H8  N7  C5  C6  O6  N1  H1  C2  N2  H21 H22 N3  C4  C3' H3' C2' 
H2' O2' HO2'O3' P   OP1 OP2 O5' C5' H5' H5''C4' H4' O4' C1' H1' N9  C8  H8  N7  
C5  C6  O6  N1  H1  C2  N2  H21 H22 N3  C4  C3' H3' C2' H2' O2' HO2'O3' P   OP1 
OP2 O5' C5' H5' H5''C4' H4' O4' C1' H1' N9  C8  H8  N7  C5  C6  O6  N1  H1  C2  
N2  H21 H22 N3  C4  C3' H3' C2' H2' O2' HO2'O3' P   OP1 OP2 O5' C5' H5' H5''C4' 
H4' O4' C1' H1' N1  C6  H6  C5  H5  C4  N4  H41 H42 N3  C2  O2  C3' H3' C2' H2' 
O2' HO2'O3' P   OP1 OP2 O5' C5' H5' H5''C4' H4' O4' C1' H1' N9  C8  H8  N7  C5  
C6  N6  H61 H62 N1  C2  H2  N3  C4  C3' H3' C2' H2' O2' HO2'O3' P   OP1 OP2 O5' 
C5' H5' H5''C4' H4' O4' C1' H1' N1  C6  H6  C5  H5  C4  N4  H41 H42 N3  C2  O2  
C3' H3' C2' H2' O2' HO2'O3' P   OP1 OP2 O5' C5' H5' H5''C4' H4' O4' C1' H1' N1  
C6  H6  C5  H5  C4  N4  H41 H42 N3  C2  O2  C3' H3' C2' H2' O2' HO2'O3' P   OP1 
OP2 O5' C5' H5' H5''C4' H4' O4' C1' H1' N9  C8  H8  N7  C5  C6  O6  N1  H1  C2  
N2  H21 H22 N3  C4  C3' H3' C2' H2' O2' HO2'O3' P   OP1 OP2 O5' C5' H5' H5''C4' 
H4' O4' C1' H1' N1  C6  H6  C5  H5  C4  O4  N3  H3  C2  O2  C3' H3' C2' H2' O2' 
HO2'O3' P   OP1 OP2 O5' C5' H5' H5''C4' H4' O4' C1' H1' N9  C8  H8  N7  C5  C6  
N6  H61 H62 N1  C2  H2  N3  C4  C3' H3' C2' H2' O2' HO2'O3' P   OP1 OP2 O5' C5' 
H5' H5''C4' H4' O4' C1' H1' N9  C8  H8  N7  C5  C6  N6  H61 H62 N1  C2  H2  N3  
C4  C3' H3' C2' H2' O2' HO2'O3' P   OP1 OP2 O5' C5' H5' H5''C4' H4' O4' C1' H1' 
N9  C8  H8  N7  C5  C6  N6  H61 H62 N1  C2  H2  N3  C4  C3' H3' C2' H2' O2' HO2'
O3' P   OP1 OP2 O5' C5' H5' H5''C4' H4' O4' C1' H1' N1  C6  H6  C5  H5  C4  O4  
N3  H3  C2  O2  C3' H3' C2' H2' O2' HO2'O3' P   OP1 OP2 O5' C5' H5' H5''C4' H4' 
O4' C1' H1' N9  C8  H8  N7  C5  C6  O6  N1  H1  C2  N2  H21 H22 N3  C4  C3' H3' 
C2' H2' O2' HO2'O3' P   OP1 OP2 O5' C5' H5' H5''C4' H4' O4' C1' H1' N1  C6  H6  
C5  H5  C4  O4  N3  H3  C2  O2  C3' H3' C2' H2' O2' HO2'O3' P   OP1 OP2 O5' C5' 
H5' H5''C4' H4' O4' C1' H1' N1  C6  H6  C5  H5  C4  N4  H41 H42 N3  C2  O2  C3' 
H3' C2' H2' O2' HO2'O3' P   OP1 OP2 O5' C5' H5' H5''C4' H4' O4' C1' H1' N1  C6  
H6  C5  H5  C4  N4  H41 H42 N3  C2  O2  C3' H3' C2' H2' O2' HO2'O3' P   OP1 OP2 
O5' C5' H5' H5''C4' H4' O4' C1' H1' N9  C8  H8  N7  C5  C6  O6  N1  H1  C2  N2  
H21 H22 N3  C4  C3' H3' C2' H2' O2' HO2'O3' P   OP1 OP2 O5' C5' H5' H5''C4' H4' 
O4' C1' H1' N9  C8  H8  N7  C5  C6  N6  H61 H62 N1  C2  H2  N3  C4  C3' H3' C2' 
H2' O2' HO2'O3' P   OP1 OP2 O5' C5' H5' H5''C4' H4' O4' C1' H1' N1  C6  H6  C5  
H5  C4  N4  H41 H42 N3  C2  O2  C3' H3' C2' H2' O2' HO2'O3' P   OP1 OP2 O5' C5' 
H5' H5''C4' H4' O4' C1' H1' N1  C6  H6  C5  H5  C4  O4  N3  H3  C2  O2  C3' H3' 
C2' H2' O2' HO2'O3' P   OP1 OP2 O5' C5' H5' H5''C4' H4' O4' C1' H1' N9  C8  H8  
N7  C5  C6  N6  H61 H62 N1  C2  H2  N3  C4  C3' H3' C2' H2' O2' HO2'O3' P   OP1 
OP2 O5' C5' H5' H5''C4' H4' O4' C1' H1' N1  C6  H6  C5  H5  C4  O4  N3  H3  C2  
O2  C3' H3' C2' H2' O2' HO2'O3' P   OP1 OP2 O5' C5' H5' H5''C4' H4' O4' C1' H1' 
N9  C8  H8  N7  C5  C6  O6  N1  H1  C2  N2  H21 H22 N3  C4  C3' H3' C2' H2' O2' 
HO2'O3' P   OP1 OP2 O5' C5' H5' H5''C4' H4' O4' C1' H1' N9  C8  H8  N7  C5  C6  
O6  N1  H1  C2  N2  H21 H22 N3  C4  C3' H3' C2' H2' O2' HO2'O3' P   OP1 OP2 O5' 
C5' H5' H5''C4' H4' O4' C1' H1' N1  C6  H6  C5  H5  C4  O4  N3  H3  C2  O2  C3' 
H3' C2' H2' O2' HO2'O3' P   OP1 OP2 O5' C5' H5' H5''C4' H4' O4' C1' H1' N1  C6  
H6  C5  H5  C4  N4  H41 H42 N3  C2  O2  C3' H3' C2' H2' O2' HO2'O3' HO3'Na+ Na+ 
Na+ Na+ Na+ Na+ Na+ Na+ Na+ Na+ Na+ Na+ Na+ Na+ Na+ Na+ Na+ Na+ Na+ Na+ Na+ Na+ 
Na+ Na+ Na+ Na+ Na+ Na+ Na+ Na+ Na+ Na+ Na+ Na+ Na+ Na+ Na+ Na+ Na+ Na+ Na+ Na+ 
Na+ Na+ Na+ Na+ Na+ Na+ Na+ Na+ Na+ Na+ Na+ Na+ Na+ Na+ Na+ Na+ Na+ Na+ Na+ Na+ 
Na+ Na+ Na+ Na+ Na+ Na+ Cl- Na+ Cl- Na+ Cl- Na+ Cl- Na+ Cl- Na+ Cl- Na+ Cl- Na+ 
Cl- Na+ Cl- Na+ Cl- Na+ Cl- Na+ Cl- Na+ Cl- Na+ Cl- Na+ Cl- Na+ Cl- Na+ Cl- Na+ 
Cl- Na+ Cl- Na+ Cl- Na+ Cl- Na+ Cl- Na+ Cl- Na+ Cl- Na+ Cl- Na+ Cl- Na+ Cl- Na+ 
Cl- Na+ Cl- Na+ Cl- Na+ Cl- Na+ Cl- O6  C6  N1  C2  N2  O2  C11 C9  C10 C3  C1  
C12 C7  N3  C4  C5  N7  C8  N9  H2  H4  H1  H7  H11 H10 H9  H3  H5  H8  H6  O   
H1  H2  EPW O   H1  H2  EPW O   H1  H2  EPW O   H1  H2  EPW O   H1  H2  EPW O   
H1  H2  EPW O   H1  H2  EPW O   H1  H2  EPW O   H1  H2  EPW O   H1  H2  EPW O   
H1  H2  EPW O   H1  H2  EPW O   H1  H2  EPW O   H1  H2  EPW O   H1  H2  EPW O   
H1  H2  EPW O   H1  H2  EPW O   H1  H2  EPW O   H1  H2  EPW O   H1  H2  EPW O   
H1  H2  EPW O   H1  H2  EPW O   H1  H2  EPW O   H1  H2  EPW O   H1  H2  EPW O   
H1  H2  EPW O   H1  H2  EPW O   H1  H2  EPW O   H1  H2  EPW O   H1  H2  EPW O   
H1  H2  EPW O   H1  H2  EPW O   H1  H2  EPW O   H1  H2  EPW O   H1  H2  EPW O   
H1  H2  EPW O   H1  H2  EPW O   H1  H2  EPW O   H1  H2  EPW O   H1  H2  EPW O   
H1  H2  EPW O   H1  H2  EPW O   H1  H2  EPW O   H1  H2  EPW O   H1  H2  EPW O   
H1  H2  EPW O   H1  H2  EPW O   H1  H2  EPW O   H1  H2  EPW O   H1  H2  EPW O   
H1  H2  EPW O   H1  H2  EPW O   H1  H2  EPW O   H1  H2  EPW O   H1  H2  EPW O   
H1  H2  EPW O   H1  H2  EPW O   H1  H2  EPW O   H1  H2  EPW O   H1  H2  EPW O   
H1  H2  EPW O   H1  H2  EPW O   H1  H2  EPW O   H1  H2  EPW O   H1  H2  EPW O   
H1  H2  EPW O   H1  H2  EPW O   H1  H2  EPW O   H1  H2  EPW O   H1  H2  EPW O   
H1  H2  EPW O   H1  H2  EPW O   H1  H2  EPW O   H1  H2  EPW O   H1  H2  EPW O   
H1  H2  EPW O   H1  H2  EPW O   H1  H2  EPW O   H1  H2  EPW O   H1  H2  EPW O   
H1  H2  EPW O   H1  H2  EPW O   H1  H2  EPW O   H1  H2  EPW O   H1  H2  EPW O   
H1  H2  EPW O   H1  H2  EPW O   H1  H2  EPW O   H1  H2  EPW O   H1  H2  EPW O   
H1  H2  EPW O   H1  H2  EPW O   H1  H2  EPW O   H1  H2  EPW O   H1  H2  EPW O   
H1  H2  EPW O   H1  H2  EPW O   H1  H2  EPW O   H1  H2  EPW O   H1  H2  EPW O   
H1  H2  EPW O   H1  H2  EPW O   H1  H2  EPW O   H1  H2  EPW O   H1  H2  EPW O   
H1  H2  EPW O   H1  H2  EPW O   H1  H2  EPW O   H1  H2  EPW O   H1  H2  EPW O   
H1  H2  EPW O   H1  H2  EPW O   H1  H2  EPW O   H1  H2  EPW O   H1  H2  EPW O   
H1  H2  EPW O   H1  H2  EPW O   H1  H2  EPW O   H1  H2  EPW O   H1  H2  EPW O   
H1  H2  EPW O   H1  H2  EPW O   H1  H2  EPW O   H1  H2  EPW O   H1  H2  EPW O   
H1  H2  EPW O   H1  H2  EPW O   H1  H2  EPW O   H1  H2  EPW O   H1  H2  EPW O   
H1  H2  EPW O   H1  H2  EPW O   H1  H2  EPW O   H1  H2  EPW O   H1  H2  EPW O   
H1  H2  EPW O   H1  H2  EPW O   H1  H2  EPW O   H1  H2  EPW O   H1  H2  EPW O   
H1  H2  EPW O   H1  H2  EPW O   H1  H2  EPW O   H1  H2  EPW O   H1  H2  EPW O   
H1  H2  EPW O   H1  H2  EPW O   H1  H2  EPW O   H1  H2  EPW O   H1  H2  EPW O   
H1  H2  EPW O   H1  H2  EPW O   H1  H2  EPW O   H1  H2  EPW O   H1  H2  EPW O   
H1  H2  EPW O   H1  H2  EPW O   H1  H2  EPW O   H1  H2  EPW O   H1  H2  EPW O   
H1  H2  EPW O   H1  H2  EPW O   H1  H2  EPW O   H1  H2  EPW O   H1  H2  EPW O   
H1  H2  EPW O   H1  H2  EPW O   H1  H2  EPW O   H1  H2  EPW O   H1  H2  EPW O   
H1  H2  EPW O   H1  H2  EPW O   H1  H2  EPW O   H1  H2  EPW O   H1  H2  EPW O   
H1  H2  EPW O   H1  H2  EPW O   H1  H2  EPW O   H1  H2  EPW O   H1  H2  EPW O   
H1  H2  EPW O   H1  H2  EPW O   H1  H2  EPW O   H1  H2  EPW O   H1  H2  EPW O   
H1  H2  EPW O   H1  H2  EPW O   H1  H2  EPW O   H1  H2  EPW O   H1  H2  EPW O   
H1  H2  EPW O   H1  H2  EPW O   H1  H2  EPW O   H1  H2  EPW O   H1  H2  EPW O   
H1  H2  EPW O   H1  H2  EPW O   H1  H2  EPW O   H1  H2  EPW O   H1  H2  EPW O   
H1  H2  EPW O   H1  H2  EPW O   H1  H2  EPW O   H1  H2  EPW O   H1  H2  EPW O   
H1  H2  EPW O   H1  H2  EPW O   H1  H2  EPW O   H1  H2  EPW O   H1  H2  EPW O   
H1  H2  EPW O   H1  H2  EPW O   H1  H2  EPW O   H1  H2  EPW O   H1  H2  EPW O   
H1  H2  EPW O   H1  H2  EPW O   H1  H2  EPW O   H1  H2  EPW O   H1  H2  EPW O   
H1  H2  EPW O   H1  H2  EPW O   H1  H2  EPW O   H1  H2  EPW O   H1  H2  EPW O   
H1  H2  EPW O   H1  H2  EPW O   H1  H2  EPW O   H1  H2  EPW O   H1  H2  EPW O   
H1  H2  EPW O   H1  H2  EPW O   H1  H2  EPW O   H1  H2  EPW O   H1  H2  EPW O   
H1  H2  EPW O   H1  H2  EPW O   H1  H2  EPW O   H1  H2  EPW O   H1  H2  EPW O   
H1  H2  EPW O   H1  H2  EPW O   H1  H2  EPW O   H1  H2  EPW O   H1  H2  EPW O   
H1  H2  EPW O   H1  H2  EPW O   H1  H2  EPW O   H1  H2  EPW O   H1  H2  EPW O   
H1  H2  EPW O   H1  H2  EPW O   H1  H2  EPW O   H1  H2  EPW O   H1  H2  EPW O   
H1  H2  EPW O   H1  H2  EPW O   H1  H2  EPW O   H1  H2  EPW O   H1  H2  EPW O   
H1  H2  EPW O   H1  H2  EPW O   H1  H2  EPW O   H1  H2  EPW O   H1  H2  EPW O   
H1  H2  EPW O   H1  H2  EPW O   H1  H2  EPW O   H1  H2  EPW O   H1  H2  EPW O   
H1  H2  EPW O   H1  H2  EPW O   H1  H2  EPW O   H1  H2  EPW O   H1  H2  EPW O   
H1  H2  EPW O   H1  H2  EPW O   H1  H2  EPW O   H1  H2  EPW O   H1  H2  EPW O   
H1  H2  EPW O   H1  H2  EPW O   H1  H2  EPW O   H1  H2  EPW O   H1  H2  EPW O   
H1  H2  EPW O   H1  H2  EPW O   H1  H2  EPW O   H1  H2  EPW O   H1  H2  EPW O   
H1  H2  EPW O   H1  H2  EPW O   H1  H2  EPW O   H1  H2  EPW O   H1  H2  EPW O   
H1  H2  EPW O   H1  H2  EPW O   H1  H2  EPW O   H1  H2  EPW O   H1  H2  EPW O   
H1  H2  EPW O   H1  H2  EPW O   H1  H2  EPW O   H1  H2  EPW O   H1  H2  EPW O   
H1  H2  EPW O   H1  H2  EPW O   H1  H2  EPW O   H1  H2  EPW O   H1  H2  EPW O   
H1  H2  EPW O   H1  H2  EPW O   H1  H2  EPW O   H1  H2  EPW O   H1  H2  EPW O   
H1  H2  EPW O   H1  H2  EPW O   H1  H2  EPW O   H1  H2  EPW O   H1  H2  EPW O   
H1  H2  EPW O   H1  H2  EPW O   H1  H2  EPW O   H1  H2  EPW O   H1  H2  EPW O   
H1  H2  EPW O   H1  H2  EPW O   H1  H2  EPW O   H1  H2  EPW O   H1  H2  EPW O   
H1  H2  EPW O   H1  H2  EPW O   H1  H2  EPW O   H1  H2  EPW O   H1  H2  EPW O   
H1  H2  EPW O   H1  H2  EPW O   H1  H2  EPW O   H1  H2  EPW O   H1  H2  EPW O   
H1  H2  EPW O   H1  H2  EPW O   H1  H2  EPW O   H1  H2  EPW O   H1  H2  EPW O   
H1  H2  EPW O   H1  H2  EPW O   H1  H2  EPW O   H1  H2  EPW O   H1  H2  EPW O   
H1  H2  EPW O   H1  H2  EPW O   H1  H2  EPW O   H1  H2  EPW O   H1  H2  EPW O   
H1  H2  EPW O   H1  H2  EPW O   H1  H2  EPW O   H1  H2  EPW O   H1  H2  EPW O   
H1  H2  EPW O   H1  H2  EPW O   H1  H2  EPW O   H1  H2  EPW O   H1  H2  EPW O   
H1  H2  EPW O   H1  H2  EPW O   H1  H2  EPW O   H1  H2  EPW O   H1  H2  EPW O   
H1  H2  EPW O   H1  H2  EPW O   H1  H2  EPW O   H1  H2  EPW O   H1  H2  EPW O   
H1  H2  EPW O   H1  H2  EPW O   H1  H2  EPW O   H1  H2  EPW O   H1  H2  EPW O   
H1  H2  EPW O   H1  H2  EPW O   H1  H2  EPW O   H1  H2  EPW O   H1  H2  EPW O   
H1  H2  EPW O   H1  H2  EPW O   H1  H2  EPW O   H1  H2  EPW O   H1  H2  EPW O   
H1  H2  EPW O   H1  H2  EPW O   H1  H2  EPW O   H1  H2  EPW O   H1  H2  EPW O   
H1  H2  EPW O   H1  H2  EPW O   H1  H2  EPW O   H1  H2  EPW O   H1  H2  EPW O   
H1  H2  EPW O   H1  H2  EPW O   H1  H2  EPW O   H1  H2  EPW O   H1  H2  EPW O   
H1  H2  EPW O   H1  H2  EPW O   H1  H2  EPW O   H1  H2  EPW O   H1  H2  EPW O   
H1  H2  EPW O   H1  H2  EPW O   H1  H2  EPW O   H1  H2  EPW O   H1  H2  EPW O   
H1  H2  EPW O   H1  H2  EPW O   H1  H2  EPW O   H1  H2  EPW O   H1  H2  EPW O   
H1  H2  EPW O   H1  H2  EPW O   H1  H2  EPW O   H1  H2  EPW O   H1  H2  EPW O   
H1  H2  EPW O   H1  H2  EPW O   H1  H2  EPW O   H1  H2  EPW O   H1  H2  EPW O   
H1  H2  EPW O   H1  H2  EPW O   H1  H2  EPW O   H1  H2  EPW O   H1  H2  EPW O   
H1  H2  EPW O   H1  H2  EPW O   H1  H2  EPW O   H1  H2  EPW O   H1  H2  EPW O   
H1  H2  EPW O   H1  H2  EPW O   H1  H2  EPW O   H1  H2  EPW O   H1  H2  EPW O   
H1  H2  EPW O   H1  H2  EPW O   H1  H2  EPW O   H1  H2  EPW O   H1  H2  EPW O   
H1  H2  EPW O   H1  H2  EPW O   H1  H2  EPW O   H1  H2  EPW O   H1  H2  EPW O   
H1  H2  EPW O   H1  H2  EPW O   H1  H2  EPW O   H1  H2  EPW O   H1  H2  EPW O   
H1  H2  EPW O   H1  H2  EPW O   H1  H2  EPW O   H1  H2  EPW O   H1  H2  EPW O   
H1  H2  EPW O   H1  H2  EPW O   H1  H2  EPW O   H1  H2  EPW O   H1  H2  EPW O   
H1  H2  EPW O   H1  H2  EPW O   H1  H2  EPW O   H1  H2  EPW O   H1  H2  EPW O   
H1  H2  EPW O   H1  H2  EPW O   H1  H2  EPW O   H1  H2  EPW O   H1  H2  EPW O   
H1  H2  EPW O   H1  H2  EPW O   H1  H2  EPW O   H1  H2  EPW O   H1  H2  EPW O   
H1  H2  EPW O   H1  H2  EPW O   H1  H2  EPW O   H1  H2  EPW O   H1  H2  EPW O   
H1  H2  EPW O   H1  H2  EPW O   H1  H2  EPW O   H1  H2  EPW O   H1  H2  EPW O   
H1  H2  EPW O   H1  H2  EPW O   H1  H2  EPW O   H1  H2  EPW O   H1  H2  EPW O   
H1  H2  EPW O   H1  H2  EPW O   H1  H2  EPW O   H1  H2  EPW O   H1  H2  EPW O   
H1  H2  EPW O   H1  H2  EPW O   H1  H2  EPW O   H1  H2  EPW O   H1  H2  EPW O   
H1  H2  EPW O   H1  H2  EPW O   H1  H2  EPW O   H1  H2  EPW O   H1  H2  EPW O   
H1  H2  EPW O   H1  H2  EPW O   H1  H2  EPW O   H1  H2  EPW O   H1  H2  EPW O   
H1  H2  EPW O   H1  H2  EPW O   H1  H2  EPW O   H1  H2  EPW O   H1  H2  EPW O   
H1  H2  EPW O   H1  H2  EPW O   H1  H2  EPW O   H1  H2  EPW O   H1  H2  EPW O   
H1  H2  EPW O   H1  H2  EPW O   H1  H2  EPW O   H1  H2  EPW O   H1  H2  EPW O   
H1  H2  EPW O   H1  H2  EPW O   H1  H2  EPW O   H1  H2  EPW O   H1  H2  EPW O   
H1  H2  EPW O   H1  H2  EPW O   H1  H2  EPW O   H1  H2  EPW O   H1  H2  EPW O   
H1  H2  EPW O   H1  H2  EPW O   H1  H2  EPW O   H1  H2  EPW O   H1  H2  EPW O   
H1  H2  EPW O   H1  H2  EPW O   H1  H2  EPW O   H1  H2  EPW O   H1  H2  EPW O   
H1  H2  EPW O   H1  H2  EPW O   H1  H2  EPW O   H1  H2  EPW O   H1  H2  EPW O   
H1  H2  EPW O   H1  H2  EPW O   H1  H2  EPW O   H1  H2  EPW O   H1  H2  EPW O   
H1  H2  EPW O   H1  H2  EPW O   H1  H2  EPW O   H1  H2  EPW O   H1  H2  EPW O   
H1  H2  EPW O   H1  H2  EPW O   H1  H2  EPW O   H1  H2  EPW O   H1  H2  EPW O   
H1  H2  EPW O   H1  H2  EPW O   H1  H2  EPW O   H1  H2  EPW O   H1  H2  EPW O   
H1  H2  EPW O   H1  H2  EPW O   H1  H2  EPW O   H1  H2  EPW O   H1  H2  EPW O   
H1  H2  EPW O   H1  H2  EPW O   H1  H2  EPW O   H1  H2  EPW O   H1  H2  EPW O   
H1  H2  EPW O   H1  H2  EPW O   H1  H2  EPW O   H1  H2  EPW O   H1  H2  EPW O   
H1  H2  EPW O   H1  H2  EPW O   H1  H2  EPW O   H1  H2  EPW O   H1  H2  EPW O   
H1  H2  EPW O   H1  H2  EPW O   H1  H2  EPW O   H1  H2  EPW O   H1  H2  EPW O   
H1  H2  EPW O   H1  H2  EPW O   H1  H2  EPW O   H1  H2  EPW O   H1  H2  EPW O   
H1  H2  EPW O   H1  H2  EPW O   H1  H2  EPW O   H1  H2  EPW O   H1  H2  EPW O   
H1  H2  EPW O   H1  H2  EPW O   H1  H2  EPW O   H1  H2  EPW O   H1  H2  EPW O   
H1  H2  EPW O   H1  H2  EPW O   H1  H2  EPW O   H1  H2  EPW O   H1  H2  EPW O   
H1  H2  EPW O   H1  H2  EPW O   H1  H2  EPW O   H1  H2  EPW O   H1  H2  EPW O   
H1  H2  EPW O   H1  H2  EPW O   H1  H2  EPW O   H1  H2  EPW O   H1  H2  EPW O   
H1  H2  EPW O   H1  H2  EPW O   H1  H2  EPW O   H1  H2  EPW O   H1  H2  EPW O   
H1  H2  EPW O   H1  H2  EPW O   H1  H2  EPW O   H1  H2  EPW O   H1  H2  EPW O   
H1  H2  EPW O   H1  H2  EPW O   H1  H2  EPW O   H1  H2  EPW O   H1  H2  EPW O   
H1  H2  EPW O   H1  H2  EPW O   H1  H2  EPW O   H1  H2  EPW O   H1  H2  EPW O   
H1  H2  EPW O   H1  H2  EPW O   H1  H2  EPW O   H1  H2  EPW O   H1  H2  EPW O   
H1  H2  EPW O   H1  H2  EPW O   H1  H2  EPW O   H1  H2  EPW O   H1  H2  EPW O   
H1  H2  EPW O   H1  H2  EPW O   H1  H2  EPW O   H1  H2  EPW O   H1  H2  EPW O   
H1  H2  EPW O   H1  H2  EPW O   H1  H2  EPW O   H1  H2  EPW O   H1  H2  EPW O   
H1  H2  EPW O   H1  H2  EPW O   H1  H2  EPW O   H1  H2  EPW O   H1  H2  EPW O   
H1  H2  EPW O   H1  H2  EPW O   H1  H2  EPW O   H1  H2  EPW O   H1  H2  EPW O   
H1  H2  EPW O   H1  H2  EPW O   H1  H2  EPW O   H1  H2  EPW O   H1  H2  EPW O   
H1  H2  EPW O   H1  H2  EPW O   H1  H2  EPW O   H1  H2  EPW O   H1  H2  EPW O   
H1  H2  EPW O   H1  H2  EPW O   H1  H2  EPW O   H1  H2  EPW O   H1  H2  EPW O   
H1  H2  EPW O   H1  H2  EPW O   H1  H2  EPW O   H1  H2  EPW O   H1  H2  EPW O   
H1  H2  EPW O   H1  H2  EPW O   H1  H2  EPW O   H1  H2  EPW O   H1  H2  EPW O   
H1  H2  EPW O   H1  H2  EPW O   H1  H2  EPW O   H1  H2  EPW O   H1  H2  EPW O   
H1  H2  EPW O   H1  H2  EPW O   H1  H2  EPW O   H1  H2  EPW O   H1  H2  EPW O   
H1  H2  EPW O   H1  H2  EPW O   H1  H2  EPW O   H1  H2  EPW O   H1  H2  EPW O   
H1  H2  EPW O   H1  H2  EPW O   H1  H2  EPW O   H1  H2  EPW O   H1  H2  EPW O   
H1  H2  EPW O   H1  H2  EPW O   H1  H2  EPW O   H1  H2  EPW O   H1  H2  EPW O   
H1  H2  EPW O   H1  H2  EPW O   H1  H2  EPW O   H1  H2  EPW O   H1  H2  EPW O   
H1  H2  EPW O   H1  H2  EPW O   H1  H2  EPW O   H1  H2  EPW O   H1  H2  EPW O   
H1  H2  EPW O   H1  H2  EPW O   H1  H2  EPW O   H1  H2  EPW O   H1  H2  EPW O   
H1  H2  EPW O   H1  H2  EPW O   H1  H2  EPW O   H1  H2  EPW O   H1  H2  EPW O   
H1  H2  EPW O   H1  H2  EPW O   H1  H2  EPW O   H1  H2  EPW O   H1  H2  EPW O   
H1  H2  EPW O   H1  H2  EPW O   H1  H2  EPW O   H1  H2  EPW O   H1  H2  EPW O   
H1  H2  EPW O   H1  H2  EPW O   H1  H2  EPW O   H1  H2  EPW O   H1  H2  EPW O   
H1  H2  EPW O   H1  H2  EPW O   H1  H2  EPW O   H1  H2  EPW O   H1  H2  EPW O   
H1  H2  EPW O   H1  H2  EPW O   H1  H2  EPW O   H1  H2  EPW O   H1  H2  EPW O   
H1  H2  EPW O   H1  H2  EPW O   H1  H2  EPW O   H1  H2  EPW O   H1  H2  EPW O   
H1  H2  EPW O   H1  H2  EPW O   H1  H2  EPW O   H1  H2  EPW O   H1  H2  EPW O   
H1  H2  EPW O   H1  H2  EPW O   H1  H2  EPW O   H1  H2  EPW O   H1  H2  EPW O   
H1  H2  EPW O   H1  H2  EPW O   H1  H2  EPW O   H1  H2  EPW O   H1  H2  EPW O   
H1  H2  EPW O   H1  H2  EPW O   H1  H2  EPW O   H1  H2  EPW O   H1  H2  EPW O   
H1  H2  EPW O   H1  H2  EPW O   H1  H2  EPW O   H1  H2  EPW O   H1  H2  EPW O   
H1  H2  EPW O   H1  H2  EPW O   H1  H2  EPW O   H1  H2  EPW O   H1  H2  EPW O   
H1  H2  EPW O   H1  H2  EPW O   H1  H2  EPW O   H1  H2  EPW O   H1  H2  EPW O   
H1  H2  EPW O   H1  H2  EPW O   H1  H2  EPW O   H1  H2  EPW O   H1  H2  EPW O   
H1  H2  EPW O   H1  H2  EPW O   H1  H2  EPW O   H1  H2  EPW O   H1  H2  EPW O   
H1  H2  EPW O   H1  H2  EPW O   H1  H2  EPW O   H1  H2  EPW O   H1  H2  EPW O   
H1  H2  EPW O   H1  H2  EPW O   H1  H2  EPW O   H1  H2  EPW O   H1  H2  EPW O   
H1  H2  EPW O   H1  H2  EPW O   H1  H2  EPW O   H1  H2  EPW O   H1  H2  EPW O   
H1  H2  EPW O   H1  H2  EPW O   H1  H2  EPW O   H1  H2  EPW O   H1  H2  EPW O   
H1  H2  EPW O   H1  H2  EPW O   H1  H2  EPW O   H1  H2  EPW O   H1  H2  EPW O   
H1  H2  EPW O   H1  H2  EPW O   H1  H2  EPW O   H1  H2  EPW O   H1  H2  EPW O   
H1  H2  EPW O   H1  H2  EPW O   H1  H2  EPW O   H1  H2  EPW O   H1  H2  EPW O   
H1  H2  EPW O   H1  H2  EPW O   H1  H2  EPW O   H1  H2  EPW O   H1  H2  EPW O   
H1  H2  EPW O   H1  H2  EPW O   H1  H2  EPW O   H1  H2  EPW O   H1  H2  EPW O   
H1  H2  EPW O   H1  H2  EPW O   H1  H2  EPW O   H1  H2  EPW O   H1  H2  EPW O   
H1  H2  EPW O   H1  H2  EPW O   H1  H2  EPW O   H1  H2  EPW O   H1  H2  EPW O   
H1  H2  EPW O   H1  H2  EPW O   H1  H2  EPW O   H1  H2  EPW O   H1  H2  EPW O   
H1  H2  EPW O   H1  H2  EPW O   H1  H2  EPW O   H1  H2  EPW O   H1  H2  EPW O   
H1  H2  EPW O   H1  H2  EPW O   H1  H2  EPW O   H1  H2  EPW O   H1  H2  EPW O   
H1  H2  EPW O   H1  H2  EPW O   H1  H2  EPW O   H1  H2  EPW O   H1  H2  EPW O   
H1  H2  EPW O   H1  H2  EPW O   H1  H2  EPW O   H1  H2  EPW O   H1  H2  EPW O   
H1  H2  EPW O   H1  H2  EPW O   H1  H2  EPW O   H1  H2  EPW O   H1  H2  EPW O   
H1  H2  EPW O   H1  H2  EPW O   H1  H2  EPW O   H1  H2  EPW O   H1  H2  EPW O   
H1  H2  EPW O   H1  H2  EPW O   H1  H2  EPW O   H1  H2  EPW O   H1  H2  EPW O   
H1  H2  EPW O   H1  H2  EPW O   H1  H2  EPW O   H1  H2  EPW O   H1  H2  EPW O   
H1  H2  EPW O   H1  H2  EPW O   H1  H2  EPW O   H1  H2  EPW O   H1  H2  EPW O   
H1  H2  EPW O   H1  H2  EPW O   H1  H2  EPW O   H1  H2  EPW O   H1  H2  EPW O   
H1  H2  EPW O   H1  H2  EPW O   H1  H2  EPW O   H1  H2  EPW O   H1  H2  EPW O   
H1  H2  EPW O   H1  H2  EPW O   H1  H2  EPW O   H1  H2  EPW O   H1  H2  EPW O   
H1  H2  EPW O   H1  H2  EPW O   H1  H2  EPW O   H1  H2  EPW O   H1  H2  EPW O   
H1  H2  EPW O   H1  H2  EPW O   H1  H2  EPW O   H1  H2  EPW O   H1  H2  EPW O   
H1  H2  EPW O   H1  H2  EPW O   H1  H2  EPW O   H1  H2  EPW O   H1  H2  EPW O   
H1  H2  EPW O   H1  H2  EPW O   H1  H2  EPW O   H1  H2  EPW O   H1  H2  EPW O   
H1  H2  EPW O   H1  H2  EPW O   H1  H2  EPW O   H1  H2  EPW O   H1  H2  EPW O   
H1  H2  EPW O   H1  H2  EPW O   H1  H2  EPW O   H1  H2  EPW O   H1  H2  EPW O   
H1  H2  EPW O   H1  H2  EPW O   H1  H2  EPW O   H1  H2  EPW O   H1  H2  EPW O   
H1  H2  EPW O   H1  H2  EPW O   H1  H2  EPW O   H1  H2  EPW O   H1  H2  EPW O   
H1  H2  EPW O   H1  H2  EPW O   H1  H2  EPW O   H1  H2  EPW O   H1  H2  EPW O   
H1  H2  EPW O   H1  H2  EPW O   H1  H2  EPW O   H1  H2  EPW O   H1  H2  EPW O   
H1  H2  EPW O   H1  H2  EPW O   H1  H2  EPW O   H1  H2  EPW O   H1  H2  EPW O   
H1  H2  EPW O   H1  H2  EPW O   H1  H2  EPW O   H1  H2  EPW O   H1  H2  EPW O   
H1  H2  EPW O   H1  H2  EPW O   H1  H2  EPW O   H1  H2  EPW O   H1  H2  EPW O   
H1  H2  EPW O   H1  H2  EPW O   H1  H2  EPW O   H1  H2  EPW O   H1  H2  EPW O   
H1  H2  EPW O   H1  H2  EPW O   H1  H2  EPW O   H1  H2  EPW O   H1  H2  EPW O   
H1  H2  EPW O   H1  H2  EPW O   H1  H2  EPW O   H1  H2  EPW O   H1  H2  EPW O   
H1  H2  EPW O   H1  H2  EPW O   H1  H2  EPW O   H1  H2  EPW O   H1  H2  EPW O   
H1  H2  EPW O   H1  H2  EPW O   H1  H2  EPW O   H1  H2  EPW O   H1  H2  EPW O   
H1  H2  EPW O   H1  H2  EPW O   H1  H2  EPW O   H1  H2  EPW O   H1  H2  EPW O   
H1  H2  EPW O   H1  H2  EPW O   H1  H2  EPW O   H1  H2  EPW O   H1  H2  EPW O   
H1  H2  EPW O   H1  H2  EPW O   H1  H2  EPW O   H1  H2  EPW O   H1  H2  EPW O   
H1  H2  EPW O   H1  H2  EPW O   H1  H2  EPW O   H1  H2  EPW O   H1  H2  EPW O   
H1  H2  EPW O   H1  H2  EPW O   H1  H2  EPW O   H1  H2  EPW O   H1  H2  EPW O   
H1  H2  EPW O   H1  H2  EPW O   H1  H2  EPW O   H1  H2  EPW O   H1  H2  EPW O   
H1  H2  EPW O   H1  H2  EPW O   H1  H2  EPW O   H1  H2  EPW O   H1  H2  EPW O   
H1  H2  EPW O   H1  H2  EPW O   H1  H2  EPW O   H1  H2  EPW O   H1  H2  EPW O   
H1  H2  EPW O   H1  H2  EPW O   H1  H2  EPW O   H1  H2  EPW O   H1  H2  EPW O   
H1  H2  EPW O   H1  H2  EPW O   H1  H2  EPW O   H1  H2  EPW O   H1  H2  EPW O   
H1  H2  EPW O   H1  H2  EPW O   H1  H2  EPW O   H1  H2  EPW O   H1  H2  EPW O   
H1  H2  EPW O   H1  H2  EPW O   H1  H2  EPW O   H1  H2  EPW O   H1  H2  EPW O   
H1  H2  EPW O   H1  H2  EPW O   H1  H2  EPW O   H1  H2  EPW O   H1  H2  EPW O   
H1  H2  EPW O   H1  H2  EPW O   H1  H2  EPW O   H1  H2  EPW O   H1  H2  EPW O   
H1  H2  EPW O   H1  H2  EPW O   H1  H2  EPW O   H1  H2  EPW O   H1  H2  EPW O   
H1  H2  EPW O   H1  H2  EPW O   H1  H2  EPW O   H1  H2  EPW O   H1  H2  EPW O   
H1  H2  EPW O   H1  H2  EPW O   H1  H2  EPW O   H1  H2  EPW O   H1  H2  EPW O   
H1  H2  EPW O   H1  H2  EPW O   H1  H2  EPW O   H1  H2  EPW O   H1  H2  EPW O   
H1  H2  EPW O   H1  H2  EPW O   H1  H2  EPW O   H1  H2  EPW O   H1  H2  EPW O   
H1  H2  EPW O   H1  H2  EPW O   H1  H2  EPW O   H1  H2  EPW O   H1  H2  EPW O   
H1  H2  EPW O   H1  H2  EPW O   H1  H2  EPW O   H1  H2  EPW O   H1  H2  EPW O   
H1  H2  EPW O   H1  H2  EPW O   H1  H2  EPW O   H1  H2  EPW O   H1  H2  EPW O   
H1  H2  EPW O   H1  H2  EPW O   H1  H2  EPW O   H1  H2  EPW O   H1  H2  EPW O   
H1  H2  EPW O   H1  H2  EPW O   H1  H2  EPW O   H1  H2  EPW O   H1  H2  EPW O   
H1  H2  EPW O   H1  H2  EPW O   H1  H2  EPW O   H1  H2  EPW O   H1  H2  EPW O   
H1  H2  EPW O   H1  H2  EPW O   H1  H2  EPW O   H1  H2  EPW O   H1  H2  EPW O   
H1  H2  EPW O   H1  H2  EPW O   H1  H2  EPW O   H1  H2  EPW O   H1  H2  EPW O   
H1  H2  EPW O   H1  H2  EPW O   H1  H2  EPW O   H1  H2  EPW O   H1  H2  EPW O   
H1  H2  EPW O   H1  H2  EPW O   H1  H2  EPW O   H1  H2  EPW O   H1  H2  EPW O   
H1  H2  EPW O   H1  H2  EPW O   H1  H2  EPW O   H1  H2  EPW O   H1  H2  EPW O   
H1  H2  EPW O   H1  H2  EPW O   H1  H2  EPW O   H1  H2  EPW O   H1  H2  EPW O   
H1  H2  EPW O   H1  H2  EPW O   H1  H2  EPW O   H1  H2  EPW O   H1  H2  EPW O   
H1  H2  EPW O   H1  H2  EPW O   H1  H2  EPW O   H1  H2  EPW O   H1  H2  EPW O   
H1  H2  EPW O   H1  H2  EPW O   H1  H2  EPW O   H1  H2  EPW O   H1  H2  EPW O   
H1  H2  EPW O   H1  H2  EPW O   H1  H2  EPW O   H1  H2  EPW O   H1  H2  EPW O   
H1  H2  EPW O   H1  H2  EPW O   H1  H2  EPW O   H1  H2  EPW O   H1  H2  EPW O   
H1  H2  EPW O   H1  H2  EPW O   H1  H2  EPW O   H1  H2  EPW O   H1  H2  EPW O   
H1  H2  EPW O   H1  H2  EPW O   H1  H2  EPW O   H1  H2  EPW O   H1  H2  EPW O   
H1  H2  EPW O   H1  H2  EPW O   H1  H2  EPW O   H1  H2  EPW O   H1  H2  EPW O   
H1  H2  EPW O   H1  H2  EPW O   H1  H2  EPW O   H1  H2  EPW O   H1  H2  EPW O   
H1  H2  EPW O   H1  H2  EPW O   H1  H2  EPW O   H1  H2  EPW O   H1  H2  EPW O   
H1  H2  EPW O   H1  H2  EPW O   H1  H2  EPW O   H1  H2  EPW O   H1  H2  EPW O   
H1  H2  EPW O   H1  H2  EPW O   H1  H2  EPW O   H1  H2  EPW O   H1  H2  EPW O   
H1  H2  EPW O   H1  H2  EPW O   H1  H2  EPW O   H1  H2  EPW O   H1  H2  EPW O   
H1  H2  EPW O   H1  H2  EPW O   H1  H2  EPW O   H1  H2  EPW O   H1  H2  EPW O   
H1  H2  EPW O   H1  H2  EPW O   H1  H2  EPW O   H1  H2  EPW O   H1  H2  EPW O   
H1  H2  EPW O   H1  H2  EPW O   H1  H2  EPW O   H1  H2  EPW O   H1  H2  EPW O   
H1  H2  EPW O   H1  H2  EPW O   H1  H2  EPW O   H1  H2  EPW O   H1  H2  EPW O   
H1  H2  EPW O   H1  H2  EPW O   H1  H2  EPW O   H1  H2  EPW O   H1  H2  EPW O   
H1  H2  EPW O   H1  H2  EPW O   H1  H2  EPW O   H1  H2  EPW O   H1  H2  EPW O   
H1  H2  EPW O   H1  H2  EPW O   H1  H2  EPW O   H1  H2  EPW O   H1  H2  EPW O   
H1  H2  EPW O   H1  H2  EPW O   H1  H2  EPW O   H1  H2  EPW O   H1  H2  EPW O   
H1  H2  EPW O   H1  H2  EPW O   H1  H2  EPW O   H1  H2  EPW O   H1  H2  EPW O   
H1  H2  EPW O   H1  H2  EPW O   H1  H2  EPW O   H1  H2  EPW O   H1  H2  EPW O   
H1  H2  EPW O   H1  H2  EPW O   H1  H2  EPW O   H1  H2  EPW O   H1  H2  EPW O   
H1  H2  EPW O   H1  H2  EPW O   H1  H2  EPW O   H1  H2  EPW O   H1  H2  EPW O   
H1  H2  EPW O   H1  H2  EPW O   H1  H2  EPW O   H1  H2  EPW O   H1  H2  EPW O   
H1  H2  EPW O   H1  H2  EPW O   H1  H2  EPW O   H1  H2  EPW O   H1  H2  EPW O   
H1  H2  EPW O   H1  H2  EPW O   H1  H2  EPW O   H1  H2  EPW O   H1  H2  EPW O   
H1  H2  EPW O   H1  H2  EPW O   H1  H2  EPW O   H1  H2  EPW O   H1  H2  EPW O   
H1  H2  EPW O   H1  H2  EPW O   H1  H2  EPW O   H1  H2  EPW O   H1  H2  EPW O   
H1  H2  EPW O   H1  H2  EPW O   H1  H2  EPW O   H1  H2  EPW O   H1  H2  EPW O   
H1  H2  EPW O   H1  H2  EPW O   H1  H2  EPW O   H1  H2  EPW O   H1  H2  EPW O   
H1  H2  EPW O   H1  H2  EPW O   H1  H2  EPW O   H1  H2  EPW O   H1  H2  EPW O   
H1  H2  EPW O   H1  H2  EPW O   H1  H2  EPW O   H1  H2  EPW O   H1  H2  EPW O   
H1  H2  EPW O   H1  H2  EPW O   H1  H2  EPW O   H1  H2  EPW O   H1  H2  EPW O   
H1  H2  EPW O   H1  H2  EPW O   H1  H2  EPW O   H1  H2  EPW O   H1  H2  EPW O   
H1  H2  EPW O   H1  H2  EPW O   H1  H2  EPW O   H1  H2  EPW O   H1  H2  EPW O   
H1  H2  EPW O   H1  H2  EPW O   H1  H2  EPW O   H1  H2  EPW O   H1  H2  EPW O   
H1  H2  EPW O   H1  H2  EPW O   H1  H2  EPW O   H1  H2  EPW O   H1  H2  EPW O   
H1  H2  EPW O   H1  H2  EPW O   H1  H2  EPW O   H1  H2  EPW O   H1  H2  EPW O   
H1  H2  EPW O   H1  H2  EPW O   H1  H2  EPW O   H1  H2  EPW O   H1  H2  EPW O   
H1  H2  EPW O   H1  H2  EPW O   H1  H2  EPW O   H1  H2  EPW O   H1  H2  EPW O   
H1  H2  EPW O   H1  H2  EPW O   H1  H2  EPW O   H1  H2  EPW O   H1  H2  EPW O   
H1  H2  EPW O   H1  H2  EPW O   H1  H2  EPW O   H1  H2  EPW O   H1  H2  EPW O   
H1  H2  EPW O   H1  H2  EPW O   H1  H2  EPW O   H1  H2  EPW O   H1  H2  EPW O   
H1  H2  EPW O   H1  H2  EPW O   H1  H2  EPW O   H1  H2  EPW O   H1  H2  EPW O   
H1  H2  EPW O   H1  H2  EPW O   H1  H2  EPW O   H1  H2  EPW O   H1  H2  EPW O   
H1  H2  EPW O   H1  H2  EPW O   H1  H2  EPW O   H1  H2  EPW O   H1  H2  EPW O   
H1  H2  EPW O   H1  H2  EPW O   H1  H2  EPW O   H1  H2  EPW O   H1  H2  EPW O   
H1  H2  EPW O   H1  H2  EPW O   H1  H2  EPW O   H1  H2  EPW O   H1  H2  EPW O   
H1  H2  EPW O   H1  H2  EPW O   H1  H2  EPW O   H1  H2  EPW O   H1  H2  EPW O   
H1  H2  EPW O   H1  H2  EPW O   H1  H2  EPW O   H1  H2  EPW O   H1  H2  EPW O   
H1  H2  EPW O   H1  H2  EPW O   H1  H2  EPW O   H1  H2  EPW O   H1  H2  EPW O   
H1  H2  EPW O   H1  H2  EPW O   H1  H2  EPW O   H1  H2  EPW O   H1  H2  EPW O   
H1  H2  EPW O   H1  H2  EPW O   H1  H2  EPW O   H1  H2  EPW O   H1  H2  EPW O   
H1  H2  EPW O   H1  H2  EPW O   H1  H2  EPW O   H1  H2  EPW O   H1  H2  EPW O   
H1  H2  EPW O   H1  H2  EPW O   H1  H2  EPW O   H1  H2  EPW O   H1  H2  EPW O   
H1  H2  EPW O   H1  H2  EPW O   H1  H2  EPW O   H1  H2  EPW O   H1  H2  EPW O   
H1  H2  EPW O   H1  H2  EPW O   H1  H2  EPW O   H1  H2  EPW O   H1  H2  EPW O   
H1  H2  EPW O   H1  H2  EPW O   H1  H2  EPW O   H1  H2  EPW O   H1  H2  EPW O   
H1  H2  EPW O   H1  H2  EPW O   H1  H2  EPW O   H1  H2  EPW O   H1  H2  EPW O   
H1  H2  EPW O   H1  H2  EPW O   H1  H2  EPW O   H1  H2  EPW O   H1  H2  EPW O   
H1  H2  EPW O   H1  H2  EPW O   H1  H2  EPW O   H1  H2  EPW O   H1  H2  EPW O   
H1  H2  EPW O   H1  H2  EPW O   H1  H2  EPW O   H1  H2  EPW O   H1  H2  EPW O   
H1  H2  EPW O   H1  H2  EPW O   H1  H2  EPW O   H1  H2  EPW O   H1  H2  EPW O   
H1  H2  EPW O   H1  H2  EPW O   H1  H2  EPW O   H1  H2  EPW O   H1  H2  EPW O   
H1  H2  EPW O   H1  H2  EPW O   H1  H2  EPW O   H1  H2  EPW O   H1  H2  EPW O   
H1  H2  EPW O   H1  H2  EPW O   H1  H2  EPW O   H1  H2  EPW O   H1  H2  EPW O   
H1  H2  EPW O   H1  H2  EPW O   H1  H2  EPW O   H1  H2  EPW O   H1  H2  EPW O   
H1  H2  EPW O   H1  H2  EPW O   H1  H2  EPW O   H1  H2  EPW O   H1  H2  EPW O   
H1  H2  EPW O   H1  H2  EPW O   H1  H2  EPW O   H1  H2  EPW O   H1  H2  EPW O   
H1  H2  EPW O   H1  H2  EPW O   H1  H2  EPW O   H1  H2  EPW O   H1  H2  EPW O   
H1  H2  EPW O   H1  H2  EPW O   H1  H2  EPW O   H1  H2  EPW O   H1  H2  EPW O   
H1  H2  EPW O   H1  H2  EPW O   H1  H2  EPW O   H1  H2  EPW O   H1  H2  EPW O   
H1  H2  EPW O   H1  H2  EPW O   H1  H2  EPW O   H1  H2  EPW O   H1  H2  EPW O   
H1  H2  EPW O   H1  H2  EPW O   H1  H2  EPW O   H1  H2  EPW O   H1  H2  EPW O   
H1  H2  EPW O   H1  H2  EPW O   H1  H2  EPW O   H1  H2  EPW O   H1  H2  EPW O   
H1  H2  EPW O   H1  H2  EPW O   H1  H2  EPW O   H1  H2  EPW O   H1  H2  EPW O   
H1  H2  EPW O   H1  H2  EPW O   H1  H2  EPW O   H1  H2  EPW O   H1  H2  EPW O   
H1  H2  EPW O   H1  H2  EPW O   H1  H2  EPW O   H1  H2  EPW O   H1  H2  EPW O   
H1  H2  EPW O   H1  H2  EPW O   H1  H2  EPW O   H1  H2  EPW O   H1  H2  EPW O   
H1  H2  EPW O   H1  H2  EPW O   H1  H2  EPW O   H1  H2  EPW O   H1  H2  EPW O   
H1  H2  EPW O   H1  H2  EPW O   H1  H2  EPW O   H1  H2  EPW O   H1  H2  EPW O   
H1  H2  EPW O   H1  H2  EPW O   H1  H2  EPW O   H1  H2  EPW O   H1  H2  EPW O   
H1  H2  EPW O   H1  H2  EPW O   H1  H2  EPW O   H1  H2  EPW O   H1  H2  EPW O   
H1  H2  EPW O   H1  H2  EPW O   H1  H2  EPW O   H1  H2  EPW O   H1  H2  EPW O   
H1  H2  EPW O   H1  H2  EPW O   H1  H2  EPW O   H1  H2  EPW O   H1  H2  EPW O   
H1  H2  EPW O   H1  H2  EPW O   H1  H2  EPW O   H1  H2  EPW O   H1  H2  EPW O   
H1  H2  EPW O   H1  H2  EPW O   H1  H2  EPW O   H1  H2  EPW O   H1  H2  EPW O   
H1  H2  EPW O   H1  H2  EPW O   H1  H2  EPW O   H1  H2  EPW O   H1  H2  EPW O   
H1  H2  EPW O   H1  H2  EPW O   H1  H2  EPW O   H1  H2  EPW O   H1  H2  EPW O   
H1  H2  EPW O   H1  H2  EPW O   H1  H2  EPW O   H1  H2  EPW O   H1  H2  EPW O   
H1  H2  EPW O   H1  H2  EPW O   H1  H2  EPW O   H1  H2  EPW O   H1  H2  EPW O   
H1  H2  EPW O   H1  H2  EPW O   H1  H2  EPW O   H1  H2  EPW O   H1  H2  EPW O   
H1  H2  EPW O   H1  H2  EPW O   H1  H2  EPW O   H1  H2  EPW O   H1  H2  EPW O   
H1  H2  EPW O   H1  H2  EPW O   H1  H2  EPW O   H1  H2  EPW O   H1  H2  EPW O   
H1  H2  EPW O   H1  H2  EPW O   H1  H2  EPW O   H1  H2  EPW O   H1  H2  EPW O   
H1  H2  EPW O   H1  H2  EPW O   H1  H2  EPW O   H1  H2  EPW O   H1  H2  EPW O   
H1  H2  EPW O   H1  H2  EPW O   H1  H2  EPW O   H1  H2  EPW O   H1  H2  EPW O   
H1  H2  EPW O   H1  H2  EPW O   H1  H2  EPW O   H1  H2  EPW O   H1  H2  EPW O   
H1  H2  EPW O   H1  H2  EPW O   H1  H2  EPW O   H1  H2  EPW O   H1  H2  EPW O   
H1  H2  EPW O   H1  H2  EPW O   H1  H2  EPW O   H1  H2  EPW O   H1  H2  EPW O   
H1  H2  EPW O   H1  H2  EPW O   H1  H2  EPW O   H1  H2  EPW O   H1  H2  EPW O   
H1  H2  EPW O   H1  H2  EPW O   H1  H2  EPW O   H1  H2  EPW O   H1  H2  EPW O   
H1  H2  EPW O   H1  H2  EPW O   H1  H2  EPW O   H1  H2  EPW O   H1  H2  EPW O   
H1  H2  EPW O   H1  H2  EPW O   H1  H2  EPW O   H1  H2  EPW O   H1  H2  EPW O   
H1  H2  EPW O   H1  H2  EPW O   H1  H2  EPW O   H1  H2  EPW O   H1  H2  EPW O   
H1  H2  EPW O   H1  H2  EPW O   H1  H2  EPW O   H1  H2  EPW O   H1  H2  EPW O   
H1  H2  EPW O   H1  H2  EPW O   H1  H2  EPW O   H1  H2  EPW O   H1  H2  EPW O   
H1  H2  EPW O   H1  H2  EPW O   H1  H2  EPW O   H1  H2  EPW O   H1  H2  EPW O   
H1  H2  EPW O   H1  H2  EPW O   H1  H2  EPW O   H1  H2  EPW O   H1  H2  EPW O   
H1  H2  EPW O   H1  H2  EPW O   H1  H2  EPW O   H1  H2  EPW O   H1  H2  EPW O   
H1  H2  EPW O   H1  H2  EPW O   H1  H2  EPW O   H1  H2  EPW O   H1  H2  EPW O   
H1  H2  EPW O   H1  H2  EPW O   H1  H2  EPW O   H1  H2  EPW O   H1  H2  EPW O   
H1  H2  EPW O   H1  H2  EPW O   H1  H2  EPW O   H1  H2  EPW O   H1  H2  EPW O   
H1  H2  EPW O   H1  H2  EPW O   H1  H2  EPW O   H1  H2  EPW O   H1  H2  EPW O   
H1  H2  EPW O   H1  H2  EPW O   H1  H2  EPW O   H1  H2  EPW O   H1  H2  EPW O   
H1  H2  EPW O   H1  H2  EPW O   H1  H2  EPW O   H1  H2  EPW O   H1  H2  EPW O   
H1  H2  EPW O   H1  H2  EPW O   H1  H2  EPW O   H1  H2  EPW O   H1  H2  EPW O   
H1  H2  EPW O   H1  H2  EPW O   H1  H2  EPW O   H1  H2  EPW O   H1  H2  EPW O   
H1  H2  EPW O   H1  H2  EPW O   H1  H2  EPW O   H1  H2  EPW O   H1  H2  EPW O   
H1  H2  EPW O   H1  H2  EPW O   H1  H2  EPW O   H1  H2  EPW O   H1  H2  EPW O   
H1  H2  EPW O   H1  H2  EPW O   H1  H2  EPW O   H1  H2  EPW O   H1  H2  EPW O   
H1  H2  EPW O   H1  H2  EPW O   H1  H2  EPW O   H1  H2  EPW O   H1  H2  EPW O   
H1  H2  EPW O   H1  H2  EPW O   H1  H2  EPW O   H1  H2  EPW O   H1  H2  EPW O   
H1  H2  EPW O   H1  H2  EPW O   H1  H2  EPW O   H1  H2  EPW O   H1  H2  EPW O   
H1  H2  EPW O   H1  H2  EPW O   H1  H2  EPW O   H1  H2  EPW O   H1  H2  EPW O   
H1  H2  EPW O   H1  H2  EPW O   H1  H2  EPW O   H1  H2  EPW O   H1  H2  EPW O   
H1  H2  EPW O   H1  H2  EPW O   H1  H2  EPW O   H1  H2  EPW O   H1  H2  EPW O   
H1  H2  EPW O   H1  H2  EPW O   H1  H2  EPW O   H1  H2  EPW O   H1  H2  EPW O   
H1  H2  EPW O   H1  H2  EPW O   H1  H2  EPW O   H1  H2  EPW O   H1  H2  EPW O   
H1  H2  EPW O   H1  H2  EPW O   H1  H2  EPW O   H1  H2  EPW O   H1  H2  EPW O   
H1  H2  EPW O   H1  H2  EPW O   H1  H2  EPW O   H1  H2  EPW O   H1  H2  EPW O   
H1  H2  EPW O   H1  H2  EPW O   H1  H2  EPW O   H1  H2  EPW O   H1  H2  EPW O   
H1  H2  EPW O   H1  H2  EPW O   H1  H2  EPW O   H1  H2  EPW O   H1  H2  EPW O   
H1  H2  EPW O   H1  H2  EPW O   H1  H2  EPW O   H1  H2  EPW O   H1  H2  EPW O   
H1  H2  EPW O   H1  H2  EPW O   H1  H2  EPW O   H1  H2  EPW O   H1  H2  EPW O   
H1  H2  EPW O   H1  H2  EPW O   H1  H2  EPW O   H1  H2  EPW O   H1  H2  EPW O   
H1  H2  EPW O   H1  H2  EPW O   H1  H2  EPW O   H1  H2  EPW O   H1  H2  EPW O   
H1  H2  EPW O   H1  H2  EPW O   H1  H2  EPW O   H1  H2  EPW O   H1  H2  EPW O   
H1  H2  EPW O   H1  H2  EPW O   H1  H2  EPW O   H1  H2  EPW O   H1  H2  EPW O   
H1  H2  EPW O   H1  H2  EPW O   H1  H2  EPW O   H1  H2  EPW O   H1  H2  EPW O   
H1  H2  EPW O   H1  H2  EPW O   H1  H2  EPW O   H1  H2  EPW O   H1  H2  EPW O   
H1  H2  EPW O   H1  H2  EPW O   H1  H2  EPW O   H1  H2  EPW O   H1  H2  EPW O   
H1  H2  EPW O   H1  H2  EPW O   H1  H2  EPW O   H1  H2  EPW O   H1  H2  EPW O   
H1  H2  EPW O   H1  H2  EPW O   H1  H2  EPW O   H1  H2  EPW O   H1  H2  EPW O   
H1  H2  EPW O   H1  H2  EPW O   H1  H2  EPW O   H1  H2  EPW O   H1  H2  EPW O   
H1  H2  EPW O   H1  H2  EPW O   H1  H2  EPW O   H1  H2  EPW O   H1  H2  EPW O   
H1  H2  EPW O   H1  H2  EPW O   H1  H2  EPW O   H1  H2  EPW O   H1  H2  EPW O   
H1  H2  EPW O   H1  H2  EPW O   H1  H2  EPW O   H1  H2  EPW O   H1  H2  EPW O   
H1  H2  EPW O   H1  H2  EPW O   H1  H2  EPW O   H1  H2  EPW O   H1  H2  EPW O   
H1  H2  EPW O   H1  H2  EPW O   H1  H2  EPW O   H1  H2  EPW O   H1  H2  EPW O   
H1  H2  EPW O   H1  H2  EPW O   H1  H2  EPW O   H1  H2  EPW O   H1  H2  EPW O   
H1  H2  EPW O   H1  H2  EPW O   H1  H2  EPW O   H1  H2  EPW O   H1  H2  EPW O   
H1  H2  EPW O   H1  H2  EPW O   H1  H2  EPW O   H1  H2  EPW O   H1  H2  EPW O   
H1  H2  EPW O   H1  H2  EPW O   H1  H2  EPW O   H1  H2  EPW O   H1  H2  EPW O   
H1  H2  EPW O   H1  H2  EPW O   H1  H2  EPW O   H1  H2  EPW O   H1  H2  EPW O   
H1  H2  EPW O   H1  H2  EPW O   H1  H2  EPW O   H1  H2  EPW O   H1  H2  EPW O   
H1  H2  EPW O   H1  H2  EPW O   H1  H2  EPW O   H1  H2  EPW O   H1  H2  EPW O   
H1  H2  EPW O   H1  H2  EPW O   H1  H2  EPW O   H1  H2  EPW O   H1  H2  EPW O   
H1  H2  EPW O   H1  H2  EPW O   H1  H2  EPW O   H1  H2  EPW O   H1  H2  EPW O   
H1  H2  EPW O   H1  H2  EPW O   H1  H2  EPW O   H1  H2  EPW O   H1  H2  EPW O   
H1  H2  EPW O   H1  H2  EPW O   H1  H2  EPW O   H1  H2  EPW O   H1  H2  EPW O   
H1  H2  EPW O   H1  H2  EPW O   H1  H2  EPW O   H1  H2  EPW O   H1  H2  EPW O   
H1  H2  EPW O   H1  H2  EPW O   H1  H2  EPW O   H1  H2  EPW O   H1  H2  EPW O   
H1  H2  EPW O   H1  H2  EPW O   H1  H2  EPW O   H1  H2  EPW O   H1  H2  EPW O   
H1  H2  EPW O   H1  H2  EPW O   H1  H2  EPW O   H1  H2  EPW O   H1  H2  EPW O   
H1  H2  EPW O   H1  H2  EPW O   H1  H2  EPW O   H1  H2  EPW O   H1  H2  EPW O   
H1  H2  EPW O   H1  H2  EPW O   H1  H2  EPW O   H1  H2  EPW O   H1  H2  EPW O   
H1  H2  EPW O   H1  H2  EPW O   H1  H2  EPW O   H1  H2  EPW O   H1  H2  EPW O   
H1  H2  EPW O   H1  H2  EPW O   H1  H2  EPW O   H1  H2  EPW O   H1  H2  EPW O   
H1  H2  EPW O   H1  H2  EPW O   H1  H2  EPW O   H1  H2  EPW O   H1  H2  EPW O   
H1  H2  EPW O   H1  H2  EPW O   H1  H2  EPW O   H1  H2  EPW O   H1  H2  EPW O   
H1  H2  EPW O   H1  H2  EPW O   H1  H2  EPW O   H1  H2  EPW O   H1  H2  EPW O   
H1  H2  EPW O   H1  H2  EPW O   H1  H2  EPW O   H1  H2  EPW O   H1  H2  EPW O   
H1  H2  EPW O   H1  H2  EPW O   H1  H2  EPW O   H1  H2  EPW O   H1  H2  EPW O   
H1  H2  EPW O   H1  H2  EPW O   H1  H2  EPW O   H1  H2  EPW O   H1  H2  EPW O   
H1  H2  EPW O   H1  H2  EPW O   H1  H2  EPW O   H1  H2  EPW O   H1  H2  EPW O   
H1  H2  EPW O   H1  H2  EPW O   H1  H2  EPW O   H1  H2  EPW O   H1  H2  EPW O   
H1  H2  EPW O   H1  H2  EPW O   H1  H2  EPW O   H1  H2  EPW O   H1  H2  EPW O   
H1  H2  EPW O   H1  H2  EPW O   H1  H2  EPW O   H1  H2  EPW O   H1  H2  EPW O   
H1  H2  EPW O   H1  H2  EPW O   H1  H2  EPW O   H1  H2  EPW O   H1  H2  EPW O   
H1  H2  EPW O   H1  H2  EPW O   H1  H2  EPW O   H1  H2  EPW O   H1  H2  EPW O   
H1  H2  EPW O   H1  H2  EPW O   H1  H2  EPW O   H1  H2  EPW O   H1  H2  EPW O   
H1  H2  EPW O   H1  H2  EPW O   H1  H2  EPW O   H1  H2  EPW O   H1  H2  EPW O   
H1  H2  EPW O   H1  H2  EPW O   H1  H2  EPW O   H1  H2  EPW O   H1  H2  EPW O   
H1  H2  EPW O   H1  H2  EPW O   H1  H2  EPW O   H1  H2  EPW O   H1  H2  EPW O   
H1  H2  EPW O   H1  H2  EPW O   H1  H2  EPW O   H1  H2  EPW O   H1  H2  EPW O   
H1  H2  EPW O   H1  H2  EPW O   H1  H2  EPW O   H1  H2  EPW O   H1  H2  EPW O   
H1  H2  EPW O   H1  H2  EPW O   H1  H2  EPW O   H1  H2  EPW O   H1  H2  EPW O   
H1  H2  EPW O   H1  H2  EPW O   H1  H2  EPW O   H1  H2  EPW O   H1  H2  EPW O   
H1  H2  EPW O   H1  H2  EPW O   H1  H2  EPW O   H1  H2  EPW O   H1  H2  EPW O   
H1  H2  EPW O   H1  H2  EPW O   H1  H2  EPW O   H1  H2  EPW O   H1  H2  EPW O   
H1  H2  EPW O   H1  H2  EPW O   H1  H2  EPW O   H1  H2  EPW O   H1  H2  EPW O   
H1  H2  EPW O   H1  H2  EPW O   H1  H2  EPW O   H1  H2  EPW O   H1  H2  EPW O   
H1  H2  EPW O   H1  H2  EPW O   H1  H2  EPW O   H1  H2  EPW O   H1  H2  EPW O   
H1  H2  EPW O   H1  H2  EPW O   H1  H2  EPW O   H1  H2  EPW O   H1  H2  EPW O   
H1  H2  EPW O   H1  H2  EPW O   H1  H2  EPW O   H1  H2  EPW O   H1  H2  EPW O   
H1  H2  EPW O   H1  H2  EPW O   H1  H2  EPW O   H1  H2  EPW O   H1  H2  EPW O   
H1  H2  EPW O   H1  H2  EPW O   H1  H2  EPW O   H1  H2  EPW O   H1  H2  EPW O   
H1  H2  EPW O   H1  H2  EPW O   H1  H2  EPW O   H1  H2  EPW O   H1  H2  EPW O   
H1  H2  EPW O   H1  H2  EPW O   H1  H2  EPW O   H1  H2  EPW O   H1  H2  EPW O   
H1  H2  EPW O   H1  H2  EPW O   H1  H2  EPW O   H1  H2  EPW O   H1  H2  EPW O   
H1  H2  EPW O   H1  H2  EPW O   H1  H2  EPW O   H1  H2  EPW O   H1  H2  EPW O   
H1  H2  EPW O   H1  H2  EPW O   H1  H2  EPW O   H1  H2  EPW O   H1  H2  EPW O   
H1  H2  EPW O   H1  H2  EPW O   H1  H2  EPW O   H1  H2  EPW O   H1  H2  EPW O   
H1  H2  EPW O   H1  H2  EPW O   H1  H2  EPW O   H1  H2  EPW O   H1  H2  EPW O   
H1  H2  EPW O   H1  H2  EPW O   H1  H2  EPW O   H1  H2  EPW O   H1  H2  EPW O   
H1  H2  EPW O   H1  H2  EPW O   H1  H2  EPW O   H1  H2  EPW O   H1  H2  EPW O   
H1  H2  EPW O   H1  H2  EPW O   H1  H2  EPW O   H1  H2  EPW O   H1  H2  EPW O   
H1  H2  EPW O   H1  H2  EPW O   H1  H2  EPW O   H1  H2  EPW O   H1  H2  EPW O   
H1  H2  EPW O   H1  H2  EPW O   H1  H2  EPW O   H1  H2  EPW O   H1  H2  EPW O   
H1  H2  EPW O   H1  H2  EPW O   H1  H2  EPW O   H1  H2  EPW O   H1  H2  EPW O   
H1  H2  EPW O   H1  H2  EPW O   H1  H2  EPW O   H1  H2  EPW O   H1  H2  EPW O   
H1  H2  EPW O   H1  H2  EPW O   H1  H2  EPW O   H1  H2  EPW O   H1  H2  EPW O   
H1  H2  EPW O   H1  H2  EPW O   H1  H2  EPW O   H1  H2  EPW O   H1  H2  EPW O   
H1  H2  EPW O   H1  H2  EPW O   H1  H2  EPW O   H1  H2  EPW O   H1  H2  EPW O   
H1  H2  EPW O   H1  H2  EPW O   H1  H2  EPW O   H1  H2  EPW O   H1  H2  EPW O   
H1  H2  EPW O   H1  H2  EPW O   H1  H2  EPW O   H1  H2  EPW O   H1  H2  EPW O   
H1  H2  EPW O   H1  H2  EPW O   H1  H2  EPW O   H1  H2  EPW O   H1  H2  EPW O   
H1  H2  EPW O   H1  H2  EPW O   H1  H2  EPW O   H1  H2  EPW O   H1  H2  EPW O   
H1  H2  EPW O   H1  H2  EPW O   H1  H2  EPW O   H1  H2  EPW O   H1  H2  EPW O   
H1  H2  EPW O   H1  H2  EPW O   H1  H2  EPW O   H1  H2  EPW O   H1  H2  EPW O   
H1  H2  EPW O   H1  H2  EPW O   H1  H2  EPW O   H1  H2  EPW O   H1  H2  EPW O   
H1  H2  EPW O   H1  H2  EPW O   H1  H2  EPW O   H1  H2  EPW O   H1  H2  EPW O   
H1  H2  EPW O   H1  H2  EPW O   H1  H2  EPW O   H1  H2  EPW O   H1  H2  EPW O   
H1  H2  EPW O   H1  H2  EPW O   H1  H2  EPW O   H1  H2  EPW O   H1  H2  EPW O   
H1  H2  EPW O   H1  H2  EPW O   H1  H2  EPW O   H1  H2  EPW O   H1  H2  EPW O   
H1  H2  EPW O   H1  H2  EPW O   H1  H2  EPW O   H1  H2  EPW O   H1  H2  EPW O   
H1  H2  EPW O   H1  H2  EPW O   H1  H2  EPW O   H1  H2  EPW O   H1  H2  EPW O   
H1  H2  EPW O   H1  H2  EPW O   H1  H2  EPW O   H1  H2  EPW O   H1  H2  EPW O   
H1  H2  EPW O   H1  H2  EPW O   H1  H2  EPW O   H1  H2  EPW O   H1  H2  EPW O   
H1  H2  EPW O   H1  H2  EPW O   H1  H2  EPW O   H1  H2  EPW O   H1  H2  EPW O   
H1  H2  EPW O   H1  H2  EPW O   H1  H2  EPW O   H1  H2  EPW O   H1  H2  EPW O   
H1  H2  EPW O   H1  H2  EPW O   H1  H2  EPW O   H1  H2  EPW O   H1  H2  EPW O   
H1  H2  EPW O   H1  H2  EPW O   H1  H2  EPW O   H1  H2  EPW O   H1  H2  EPW O   
H1  H2  EPW O   H1  H2  EPW O   H1  H2  EPW O   H1  H2  EPW O   H1  H2  EPW O   
H1  H2  EPW O   H1  H2  EPW O   H1  H2  EPW O   H1  H2  EPW O   H1  H2  EPW O   
H1  H2  EPW O   H1  H2  EPW O   H1  H2  EPW O   H1  H2  EPW O   H1  H2  EPW O   
H1  H2  EPW O   H1  H2  EPW O   H1  H2  EPW O   H1  H2  EPW O   H1  H2  EPW O   
H1  H2  EPW O   H1  H2  EPW O   H1  H2  EPW O   H1  H2  EPW O   H1  H2  EPW O   
H1  H2  EPW O   H1  H2  EPW O   H1  H2  EPW O   H1  H2  EPW O   H1  H2  EPW O   
H1  H2  EPW O   H1  H2  EPW O   H1  H2  EPW O   H1  H2  EPW O   H1  H2  EPW O   
H1  H2  EPW O   H1  H2  EPW O   H1  H2  EPW O   H1  H2  EPW O   H1  H2  EPW O   
H1  H2  EPW O   H1  H2  EPW O   H1  H2  EPW O   H1  H2  EPW O   H1  H2  EPW O   
H1  H2  EPW O   H1  H2  EPW O   H1  H2  EPW O   H1  H2  EPW O   H1  H2  EPW O   
H1  H2  EPW O   H1  H2  EPW O   H1  H2  EPW O   H1  H2  EPW O   H1  H2  EPW O   
H1  H2  EPW O   H1  H2  EPW O   H1  H2  EPW O   H1  H2  EPW O   H1  H2  EPW O   
H1  H2  EPW O   H1  H2  EPW O   H1  H2  EPW O   H1  H2  EPW O   H1  H2  EPW O   
H1  H2  EPW O   H1  H2  EPW O   H1  H2  EPW O   H1  H2  EPW O   H1  H2  EPW O   
H1  H2  EPW O   H1  H2  EPW O   H1  H2  EPW O   H1  H2  EPW O   H1  H2  EPW O   
H1  H2  EPW O   H1  H2  EPW O   H1  H2  EPW O   H1  H2  EPW O   H1  H2  EPW O   
H1  H2  EPW O   H1  H2  EPW O   H1  H2  EPW O   H1  H2  EPW O   H1  H2  EPW O   
H1  H2  EPW O   H1  H2  EPW O   H1  H2  EPW O   H1  H2  EPW O   H1  H2  EPW O   
H1  H2  EPW O   H1  H2  EPW O   H1  H2  EPW O   H1  H2  EPW O   H1  H2  EPW O   
H1  H2  EPW O   H1  H2  EPW O   H1  H2  EPW O   H1  H2  EPW O   H1  H2  EPW O   
H1  H2  EPW O   H1  H2  EPW O   H1  H2  EPW O   H1  H2  EPW O   H1  H2  EPW O   
H1  H2  EPW O   H1  H2  EPW O   H1  H2  EPW O   H1  H2  EPW O   H1  H2  EPW O   
H1  H2  EPW O   H1  H2  EPW O   H1  H2  EPW O   H1  H2  EPW O   H1  H2  EPW O   
H1  H2  EPW O   H1  H2  EPW O   H1  H2  EPW O   H1  H2  EPW O   H1  H2  EPW O   
H1  H2  EPW O   H1  H2  EPW O   H1  H2  EPW O   H1  H2  EPW O   H1  H2  EPW O   
H1  H2  EPW O   H1  H2  EPW O   H1  H2  EPW O   H1  H2  EPW O   H1  H2  EPW O   
H1  H2  EPW O   H1  H2  EPW O   H1  H2  EPW O   H1  H2  EPW O   H1  H2  EPW O   
H1  H2  EPW O   H1  H2  EPW O   H1  H2  EPW O   H1  H2  EPW O   H1  H2  EPW O   
H1  H2  EPW O   H1  H2  EPW O   H1  H2  EPW O   H1  H2  EPW O   H1  H2  EPW O   
H1  H2  EPW O   H1  H2  EPW O   H1  H2  EPW O   H1  H2  EPW O   H1  H2  EPW O   
H1  H2  EPW O   H1  H2  EPW O   H1  H2  EPW O   H1  H2  EPW O   H1  H2  EPW O   
H1  H2  EPW O   H1  H2  EPW O   H1  H2  EPW O   H1  H2  EPW O   H1  H2  EPW O   
H1  H2  EPW O   H1  H2  EPW O   H1  H2  EPW O   H1  H2  EPW O   H1  H2  EPW O   
H1  H2  EPW O   H1  H2  EPW O   H1  H2  EPW O   H1  H2  EPW O   H1  H2  EPW O   
H1  H2  EPW O   H1  H2  EPW O   H1  H2  EPW O   H1  H2  EPW O   H1  H2  EPW O   
H1  H2  EPW O   H1  H2  EPW O   H1  H2  EPW O   H1  H2  EPW O   H1  H2  EPW O   
H1  H2  EPW O   H1  H2  EPW O   H1  H2  EPW O   H1  H2  EPW O   H1  H2  EPW O   
H1  H2  EPW O   H1  H2  EPW O   H1  H2  EPW O   H1  H2  EPW O   H1  H2  EPW O   
H1  H2  EPW O   H1  H2  EPW O   H1  H2  EPW O   H1  H2  EPW O   H1  H2  EPW O   
H1  H2  EPW O   H1  H2  EPW O   H1  H2  EPW O   H1  H2  EPW O   H1  H2  EPW O   
H1  H2  EPW O   H1  H2  EPW O   H1  H2  EPW O   H1  H2  EPW O   H1  H2  EPW O   
H1  H2  EPW O   H1  H2  EPW O   H1  H2  EPW O   H1  H2  EPW O   H1  H2  EPW O   
H1  H2  EPW O   H1  H2  EPW O   H1  H2  EPW O   H1  H2  EPW O   H1  H2  EPW O   
H1  H2  EPW O   H1  H2  EPW O   H1  H2  EPW O   H1  H2  EPW O   H1  H2  EPW O   
H1  H2  EPW O   H1  H2  EPW O   H1  H2  EPW O   H1  H2  EPW O   H1  H2  EPW O   
H1  H2  EPW O   H1  H2  EPW O   H1  H2  EPW O   H1  H2  EPW O   H1  H2  EPW O   
H1  H2  EPW O   H1  H2  EPW O   H1  H2  EPW O   H1  H2  EPW O   H1  H2  EPW O   
H1  H2  EPW O   H1  H2  EPW O   H1  H2  EPW O   H1  H2  EPW O   H1  H2  EPW O   
H1  H2  EPW O   H1  H2  EPW O   H1  H2  EPW O   H1  H2  EPW O   H1  H2  EPW O   
H1  H2  EPW O   H1  H2  EPW O   H1  H2  EPW O   H1  H2  EPW O   H1  H2  EPW O   
H1  H2  EPW O   H1  H2  EPW O   H1  H2  EPW O   H1  H2  EPW O   H1  H2  EPW O   
H1  H2  EPW O   H1  H2  EPW O   H1  H2  EPW O   H1  H2  EPW O   H1  H2  EPW O   
H1  H2  EPW O   H1  H2  EPW O   H1  H2  EPW O   H1  H2  EPW O   H1  H2  EPW O   
H1  H2  EPW O   H1  H2  EPW O   H1  H2  EPW O   H1  H2  EPW O   H1  H2  EPW O   
H1  H2  EPW O   H1  H2  EPW O   H1  H2  EPW O   H1  H2  EPW O   H1  H2  EPW O   
H1  H2  EPW O   H1  H2  EPW O   H1  H2  EPW O   H1  H2  EPW O   H1  H2  EPW O   
H1  H2  EPW O   H1  H2  EPW O   H1  H2  EPW O   H1  H2  EPW O   H1  H2  EPW O   
H1  H2  EPW O   H1  H2  EPW O   H1  H2  EPW O   H1  H2  EPW O   H1  H2  EPW O   
H1  H2  EPW O   H1  H2  EPW O   H1  H2  EPW O   H1  H2  EPW O   H1  H2  EPW O   
H1  H2  EPW O   H1  H2  EPW O   H1  H2  EPW O   H1  H2  EPW O   H1  H2  EPW O   
H1  H2  EPW O   H1  H2  EPW O   H1  H2  EPW O   H1  H2  EPW O   H1  H2  EPW O   
H1  H2  EPW O   H1  H2  EPW O   H1  H2  EPW O   H1  H2  EPW O   H1  H2  EPW O   
H1  H2  EPW O   H1  H2  EPW O   H1  H2  EPW O   H1  H2  EPW O   H1  H2  EPW O   
H1  H2  EPW O   H1  H2  EPW O   H1  H2  EPW O   H1  H2  EPW O   H1  H2  EPW O   
H1  H2  EPW O   H1  H2  EPW O   H1  H2  EPW O   H1  H2  EPW O   H1  H2  EPW O   
H1  H2  EPW O   H1  H2  EPW O   H1  H2  EPW O   H1  H2  EPW O   H1  H2  EPW O   
H1  H2  EPW O   H1  H2  EPW O   H1  H2  EPW O   H1  H2  EPW O   H1  H2  EPW O   
H1  H2  EPW O   H1  H2  EPW O   H1  H2  EPW O   H1  H2  EPW O   H1  H2  EPW O   
H1  H2  EPW O   H1  H2  EPW O   H1  H2  EPW O   H1  H2  EPW O   H1  H2  EPW O   
H1  H2  EPW O   H1  H2  EPW O   H1  H2  EPW O   H1  H2  EPW O   H1  H2  EPW O   
H1  H2  EPW O   H1  H2  EPW O   H1  H2  EPW O   H1  H2  EPW O   H1  H2  EPW O   
H1  H2  EPW O   H1  H2  EPW O   H1  H2  EPW O   H1  H2  EPW O   H1  H2  EPW O   
H1  H2  EPW O   H1  H2  EPW O   H1  H2  EPW O   H1  H2  EPW O   H1  H2  EPW O   
H1  H2  EPW O   H1  H2  EPW O   H1  H2  EPW O   H1  H2  EPW O   H1  H2  EPW O   
H1  H2  EPW O   H1  H2  EPW O   H1  H2  EPW O   H1  H2  EPW O   H1  H2  EPW O   
H1  H2  EPW O   H1  H2  EPW O   H1  H2  EPW O   H1  H2  EPW O   H1  H2  EPW O   
H1  H2  EPW O   H1  H2  EPW O   H1  H2  EPW O   H1  H2  EPW O   H1  H2  EPW O   
H1  H2  EPW O   H1  H2  EPW O   H1  H2  EPW O   H1  H2  EPW O   H1  H2  EPW O   
H1  H2  EPW O   H1  H2  EPW O   H1  H2  EPW O   H1  H2  EPW O   H1  H2  EPW O   
H1  H2  EPW O   H1  H2  EPW O   H1  H2  EPW O   H1  H2  EPW O   H1  H2  EPW O   
H1  H2  EPW O   H1  H2  EPW O   H1  H2  EPW O   H1  H2  EPW O   H1  H2  EPW O   
H1  H2  EPW O   H1  H2  EPW O   H1  H2  EPW O   H1  H2  EPW O   H1  H2  EPW O   
H1  H2  EPW O   H1  H2  EPW O   H1  H2  EPW O   H1  H2  EPW O   H1  H2  EPW O   
H1  H2  EPW O   H1  H2  EPW O   H1  H2  EPW O   H1  H2  EPW O   H1  H2  EPW O   
H1  H2  EPW O   H1  H2  EPW O   H1  H2  EPW O   H1  H2  EPW O   H1  H2  EPW O   
H1  H2  EPW O   H1  H2  EPW O   H1  H2  EPW O   H1  H2  EPW O   H1  H2  EPW O   
H1  H2  EPW O   H1  H2  EPW O   H1  H2  EPW O   H1  H2  EPW O   H1  H2  EPW O   
H1  H2  EPW O   H1  H2  EPW O   H1  H2  EPW O   H1  H2  EPW O   H1  H2  EPW O   
H1  H2  EPW O   H1  H2  EPW O   H1  H2  EPW O   H1  H2  EPW O   H1  H2  EPW O   
H1  H2  EPW O   H1  H2  EPW O   H1  H2  EPW O   H1  H2  EPW O   H1  H2  EPW O   
H1  H2  EPW O   H1  H2  EPW O   H1  H2  EPW O   H1  H2  EPW O   H1  H2  EPW O   
H1  H2  EPW O   H1  H2  EPW O   H1  H2  EPW O   H1  H2  EPW O   H1  H2  EPW O   
H1  H2  EPW O   H1  H2  EPW O   H1  H2  EPW O   H1  H2  EPW O   H1  H2  EPW O   
H1  H2  EPW O   H1  H2  EPW O   H1  H2  EPW O   H1  H2  EPW O   H1  H2  EPW O   
H1  H2  EPW O   H1  H2  EPW O   H1  H2  EPW O   H1  H2  EPW O   H1  H2  EPW O   
H1  H2  EPW O   H1  H2  EPW O   H1  H2  EPW O   H1  H2  EPW O   H1  H2  EPW O   
H1  H2  EPW O   H1  H2  EPW O   H1  H2  EPW O   H1  H2  EPW O   H1  H2  EPW O   
H1  H2  EPW O   H1  H2  EPW O   H1  H2  EPW O   H1  H2  EPW O   H1  H2  EPW O   
H1  H2  EPW O   H1  H2  EPW O   H1  H2  EPW O   H1  H2  EPW O   H1  H2  EPW O   
H1  H2  EPW O   H1  H2  EPW O   H1  H2  EPW O   H1  H2  EPW O   H1  H2  EPW O   
H1  H2  EPW O   H1  H2  EPW O   H1  H2  EPW O   H1  H2  EPW O   H1  H2  EPW O   
H1  H2  EPW O   H1  H2  EPW O   H1  H2  EPW O   H1  H2  EPW O   H1  H2  EPW O   
H1  H2  EPW O   H1  H2  EPW O   H1  H2  EPW O   H1  H2  EPW O   H1  H2  EPW O   
H1  H2  EPW O   H1  H2  EPW O   H1  H2  EPW O   H1  H2  EPW O   H1  H2  EPW O   
H1  H2  EPW O   H1  H2  EPW O   H1  H2  EPW O   H1  H2  EPW O   H1  H2  EPW O   
H1  H2  EPW O   H1  H2  EPW O   H1  H2  EPW O   H1  H2  EPW O   H1  H2  EPW O   
H1  H2  EPW O   H1  H2  EPW O   H1  H2  EPW O   H1  H2  EPW O   H1  H2  EPW O   
H1  H2  EPW O   H1  H2  EPW O   H1  H2  EPW O   H1  H2  EPW O   H1  H2  EPW O   
H1  H2  EPW O   H1  H2  EPW O   H1  H2  EPW O   H1  H2  EPW O   H1  H2  EPW O   
H1  H2  EPW O   H1  H2  EPW O   H1  H2  EPW O   H1  H2  EPW O   H1  H2  EPW O   
H1  H2  EPW O   H1  H2  EPW O   H1  H2  EPW O   H1  H2  EPW O   H1  H2  EPW O   
H1  H2  EPW O   H1  H2  EPW O   H1  H2  EPW O   H1  H2  EPW O   H1  H2  EPW O   
H1  H2  EPW O   H1  H2  EPW O   H1  H2  EPW O   H1  H2  EPW O   H1  H2  EPW O   
H1  H2  EPW O   H1  H2  EPW O   H1  H2  EPW O   H1  H2  EPW O   H1  H2  EPW O   
H1  H2  EPW O   H1  H2  EPW O   H1  H2  EPW O   H1  H2  EPW O   H1  H2  EPW O   
H1  H2  EPW O   H1  H2  EPW O   H1  H2  EPW O   H1  H2  EPW O   H1  H2  EPW O   
H1  H2  EPW O   H1  H2  EPW O   H1  H2  EPW O   H1  H2  EPW O   H1  H2  EPW O   
H1  H2  EPW O   H1  H2  EPW O   H1  H2  EPW O   H1  H2  EPW O   H1  H2  EPW O   
H1  H2  EPW O   H1  H2  EPW O   H1  H2  EPW O   H1  H2  EPW O   H1  H2  EPW O   
H1  H2  EPW O   H1  H2  EPW O   H1  H2  EPW O   H1  H2  EPW O   H1  H2  EPW O   
H1  H2  EPW O   H1  H2  EPW O   H1  H2  EPW O   H1  H2  EPW O   H1  H2  EPW O   
H1  H2  EPW O   H1  H2  EPW O   H1  H2  EPW O   H1  H2  EPW O   H1  H2  EPW O   
H1  H2  EPW O   H1  H2  EPW O   H1  H2  EPW O   H1  H2  EPW O   H1  H2  EPW O   
H1  H2  EPW O   H1  H2  EPW O   H1  H2  EPW O   H1  H2  EPW O   H1  H2  EPW O   
H1  H2  EPW O   H1  H2  EPW O   H1  H2  EPW O   H1  H2  EPW O   H1  H2  EPW O   
H1  H2  EPW O   H1  H2  EPW O   H1  H2  EPW O   H1  H2  EPW O   H1  H2  EPW O   
H1  H2  EPW O   H1  H2  EPW O   H1  H2  EPW O   H1  H2  EPW O   H1  H2  EPW O   
H1  H2  EPW O   H1  H2  EPW O   H1  H2  EPW O   H1  H2  EPW O   H1  H2  EPW O   
H1  H2  EPW O   H1  H2  EPW O   H1  H2  EPW O   H1  H2  EPW O   H1  H2  EPW O   
H1  H2  EPW O   H1  H2  EPW O   H1  H2  EPW O   H1  H2  EPW O   H1  H2  EPW O   
H1  H2  EPW O   H1  H2  EPW O   H1  H2  EPW O   H1  H2  EPW O   H1  H2  EPW O   
H1  H2  EPW O   H1  H2  EPW O   H1  H2  EPW O   H1  H2  EPW O   H1  H2  EPW O   
H1  H2  EPW O   H1  H2  EPW O   H1  H2  EPW O   H1  H2  EPW O   H1  H2  EPW O   
H1  H2  EPW O   H1  H2  EPW O   H1  H2  EPW O   H1  H2  EPW O   H1  H2  EPW O   
H1  H2  EPW O   H1  H2  EPW O   H1  H2  EPW O   H1  H2  EPW O   H1  H2  EPW O   
H1  H2  EPW O   H1  H2  EPW O   H1  H2  EPW O   H1  H2  EPW O   H1  H2  EPW O   
H1  H2  EPW O   H1  H2  EPW O   H1  H2  EPW O   H1  H2  EPW O   H1  H2  EPW O   
H1  H2  EPW O   H1  H2  EPW O   H1  H2  EPW O   H1  H2  EPW O   H1  H2  EPW O   
H1  H2  EPW O   H1  H2  EPW O   H1  H2  EPW O   H1  H2  EPW O   H1  H2  EPW O   
H1  H2  EPW O   H1  H2  EPW O   H1  H2  EPW O   H1  H2  EPW O   H1  H2  EPW O   
H1  H2  EPW O   H1  H2  EPW O   H1  H2  EPW O   H1  H2  EPW O   H1  H2  EPW O   
H1  H2  EPW O   H1  H2  EPW O   H1  H2  EPW O   H1  H2  EPW O   H1  H2  EPW O   
H1  H2  EPW O   H1  H2  EPW O   H1  H2  EPW O   H1  H2  EPW O   H1  H2  EPW O   
H1  H2  EPW O   H1  H2  EPW O   H1  H2  EPW O   H1  H2  EPW O   H1  H2  EPW O   
H1  H2  EPW O   H1  H2  EPW O   H1  H2  EPW O   H1  H2  EPW O   H1  H2  EPW O   
H1  H2  EPW O   H1  H2  EPW O   H1  H2  EPW O   H1  H2  EPW O   H1  H2  EPW O   
H1  H2  EPW O   H1  H2  EPW O   H1  H2  EPW O   H1  H2  EPW O   H1  H2  EPW O   
H1  H2  EPW O   H1  H2  EPW O   H1  H2  EPW O   H1  H2  EPW O   H1  H2  EPW O   
H1  H2  EPW O   H1  H2  EPW O   H1  H2  EPW O   H1  H2  EPW O   H1  H2  EPW O   
H1  H2  EPW O   H1  H2  EPW O   H1  H2  EPW O   H1  H2  EPW O   H1  H2  EPW O   
H1  H2  EPW O   H1  H2  EPW O   H1  H2  EPW O   H1  H2  EPW O   H1  H2  EPW O   
H1  H2  EPW O   H1  H2  EPW O   H1  H2  EPW O   H1  H2  EPW O   H1  H2  EPW O   
H1  H2  EPW O   H1  H2  EPW O   H1  H2  EPW O   H1  H2  EPW O   H1  H2  EPW O   
H1  H2  EPW O   H1  H2  EPW O   H1  H2  EPW O   H1  H2  EPW O   H1  H2  EPW O   
H1  H2  EPW O   H1  H2  EPW O   H1  H2  EPW O   H1  H2  EPW O   H1  H2  EPW O   
H1  H2  EPW O   H1  H2  EPW O   H1  H2  EPW O   H1  H2  EPW O   H1  H2  EPW O   
H1  H2  EPW O   H1  H2  EPW O   H1  H2  EPW O   H1  H2  EPW O   H1  H2  EPW O   
H1  H2  EPW O   H1  H2  EPW O   H1  H2  EPW O   H1  H2  EPW O   H1  H2  EPW O   
H1  H2  EPW O   H1  H2  EPW O   H1  H2  EPW O   H1  H2  EPW O   H1  H2  EPW O   
H1  H2  EPW O   H1  H2  EPW O   H1  H2  EPW O   H1  H2  EPW O   H1  H2  EPW O   
H1  H2  EPW O   H1  H2  EPW O   H1  H2  EPW O   H1  H2  EPW O   H1  H2  EPW O   
H1  H2  EPW O   H1  H2  EPW O   H1  H2  EPW O   H1  H2  EPW O   H1  H2  EPW O   
H1  H2  EPW O   H1  H2  EPW O   H1  H2  EPW O   H1  H2  EPW O   H1  H2  EPW O   
H1  H2  EPW O   H1  H2  EPW O   H1  H2  EPW O   H1  H2  EPW O   H1  H2  EPW O   
H1  H2  EPW O   H1  H2  EPW O   H1  H2  EPW O   H1  H2  EPW O   H1  H2  EPW O   
H1  H2  EPW O   H1  H2  EPW O   H1  H2  EPW O   H1  H2  EPW O   H1  H2  EPW O   
H1  H2  EPW O   H1  H2  EPW O   H1  H2  EPW O   H1  H2  EPW O   H1  H2  EPW O   
H1  H2  EPW O   H1  H2  EPW O   H1  H2  EPW O   H1  H2  EPW O   H1  H2  EPW O   
H1  H2  EPW O   H1  H2  EPW O   H1  H2  EPW O   H1  H2  EPW O   H1  H2  EPW O   
H1  H2  EPW O   H1  H2  EPW O   H1  H2  EPW O   H1  H2  EPW O   H1  H2  EPW O   
H1  H2  EPW O   H1  H2  EPW O   H1  H2  EPW O   H1  H2  EPW O   H1  H2  EPW O   
H1  H2  EPW O   H1  H2  EPW O   H1  H2  EPW O   H1  H2  EPW O   H1  H2  EPW O   
H1  H2  EPW O   H1  H2  EPW O   H1  H2  EPW O   H1  H2  EPW O   H1  H2  EPW O   
H1  H2  EPW O   H1  H2  EPW O   H1  H2  EPW O   H1  H2  EPW O   H1  H2  EPW O   
H1  H2  EPW O   H1  H2  EPW O   H1  H2  EPW O   H1  H2  EPW O   H1  H2  EPW O   
H1  H2  EPW O   H1  H2  EPW O   H1  H2  EPW O   H1  H2  EPW O   H1  H2  EPW O   
H1  H2  EPW O   H1  H2  EPW O   H1  H2  EPW O   H1  H2  EPW O   H1  H2  EPW O   
H1  H2  EPW O   H1  H2  EPW O   H1  H2  EPW O   H1  H2  EPW O   H1  H2  EPW O   
H1  H2  EPW O   H1  H2  EPW O   H1  H2  EPW O   H1  H2  EPW O   H1  H2  EPW O   
H1  H2  EPW O   H1  H2  EPW O   H1  H2  EPW O   H1  H2  EPW O   H1  H2  EPW O   
H1  H2  EPW O   H1  H2  EPW O   H1  H2  EPW O   H1  H2  EPW O   H1  H2  EPW O   
H1  H2  EPW O   H1  H2  EPW O   H1  H2  EPW O   H1  H2  EPW O   H1  H2  EPW O   
H1  H2  EPW O   H1  H2  EPW O   H1  H2  EPW O   H1  H2  EPW O   H1  H2  EPW O   
H1  H2  EPW O   H1  H2  EPW O   H1  H2  EPW O   H1  H2  EPW O   H1  H2  EPW O   
H1  H2  EPW O   H1  H2  EPW O   H1  H2  EPW O   H1  H2  EPW O   H1  H2  EPW O   
H1  H2  EPW O   H1  H2  EPW O   H1  H2  EPW O   H1  H2  EPW O   H1  H2  EPW O   
H1  H2  EPW O   H1  H2  EPW O   H1  H2  EPW O   H1  H2  EPW O   H1  H2  EPW O   
H1  H2  EPW O   H1  H2  EPW O   H1  H2  EPW O   H1  H2  EPW O   H1  H2  EPW O   
H1  H2  EPW O   H1  H2  EPW O   H1  H2  EPW O   H1  H2  EPW O   H1  H2  EPW O   
H1  H2  EPW O   H1  H2  EPW O   H1  H2  EPW O   H1  H2  EPW O   H1  H2  EPW O   
H1  H2  EPW O   H1  H2  EPW O   H1  H2  EPW O   H1  H2  EPW O   H1  H2  EPW O   
H1  H2  EPW O   H1  H2  EPW O   H1  H2  EPW O   H1  H2  EPW O   H1  H2  EPW O   
H1  H2  EPW O   H1  H2  EPW O   H1  H2  EPW O   H1  H2  EPW O   H1  H2  EPW O   
H1  H2  EPW O   H1  H2  EPW O   H1  H2  EPW O   H1  H2  EPW O   H1  H2  EPW O   
H1  H2  EPW O   H1  H2  EPW O   H1  H2  EPW O   H1  H2  EPW O   H1  H2  EPW O   
H1  H2  EPW O   H1  H2  EPW O   H1  H2  EPW O   H1  H2  EPW O   H1  H2  EPW O   
H1  H2  EPW O   H1  H2  EPW O   H1  H2  EPW O   H1  H2  EPW O   H1  H2  EPW O   
H1  H2  EPW O   H1  H2  EPW O   H1  H2  EPW O   H1  H2  EPW O   H1  H2  EPW O   
H1  H2  EPW O   H1  H2  EPW O   H1  H2  EPW O   H1  H2  EPW O   H1  H2  EPW O   
H1  H2  EPW O   H1  H2  EPW O   H1  H2  EPW O   H1  H2  EPW O   H1  H2  EPW O   
H1  H2  EPW O   H1  H2  EPW O   H1  H2  EPW O   H1  H2  EPW O   H1  H2  EPW O   
H1  H2  EPW O   H1  H2  EPW O   H1  H2  EPW O   H1  H2  EPW O   H1  H2  EPW O   
H1  H2  EPW O   H1  H2  EPW O   H1  H2  EPW O   H1  H2  EPW O   H1  H2  EPW O   
H1  H2  EPW O   H1  H2  EPW O   H1  H2  EPW O   H1  H2  EPW O   H1  H2  EPW O   
H1  H2  EPW O   H1  H2  EPW O   H1  H2  EPW O   H1  H2  EPW O   H1  H2  EPW O   
H1  H2  EPW O   H1  H2  EPW O   H1  H2  EPW O   H1  H2  EPW O   H1  H2  EPW O   
H1  H2  EPW O   H1  H2  EPW O   H1  H2  EPW O   H1  H2  EPW O   H1  H2  EPW O   
H1  H2  EPW O   H1  H2  EPW O   H1  H2  EPW O   H1  H2  EPW O   H1  H2  EPW O   
H1  H2  EPW O   H1  H2  EPW O   H1  H2  EPW O   H1  H2  EPW O   H1  H2  EPW O   
H1  H2  EPW O   H1  H2  EPW O   H1  H2  EPW O   H1  H2  EPW O   H1  H2  EPW O   
H1  H2  EPW O   H1  H2  EPW O   H1  H2  EPW O   H1  H2  EPW O   H1  H2  EPW O   
H1  H2  EPW O   H1  H2  EPW O   H1  H2  EPW O   H1  H2  EPW O   H1  H2  EPW O   
H1  H2  EPW O   H1  H2  EPW O   H1  H2  EPW O   H1  H2  EPW O   H1  H2  EPW O   
H1  H2  EPW O   H1  H2  EPW O   H1  H2  EPW O   H1  H2  EPW O   H1  H2  EPW O   
H1  H2  EPW O   H1  H2  EPW O   H1  H2  EPW O   H1  H2  EPW O   H1  H2  EPW O   
H1  H2  EPW O   H1  H2  EPW O   H1  H2  EPW O   H1  H2  EPW O   H1  H2  EPW O   
H1  H2  EPW O   H1  H2  EPW O   H1  H2  EPW O   H1  H2  EPW O   H1  H2  EPW O   
H1  H2  EPW O   H1  H2  EPW O   H1  H2  EPW O   H1  H2  EPW O   H1  H2  EPW O   
H1  H2  EPW O   H1  H2  EPW O   H1  H2  EPW O   H1  H2  EPW O   H1  H2  EPW O   
H1  H2  EPW O   H1  H2  EPW O   H1  H2  EPW O   H1  H2  EPW O   H1  H2  EPW O   
H1  H2  EPW O   H1  H2  EPW O   H1  H2  EPW O   H1  H2  EPW O   H1  H2  EPW O   
H1  H2  EPW O   H1  H2  EPW O   H1  H2  EPW O   H1  H2  EPW O   H1  H2  EPW O   
H1  H2  EPW O   H1  H2  EPW O   H1  H2  EPW O   H1  H2  EPW O   H1  H2  EPW O   
H1  H2  EPW O   H1  H2  EPW O   H1  H2  EPW O   H1  H2  EPW O   H1  H2  EPW O   
H1  H2  EPW O   H1  H2  EPW O   H1  H2  EPW O   H1  H2  EPW O   H1  H2  EPW O   
H1  H2  EPW O   H1  H2  EPW O   H1  H2  EPW O   H1  H2  EPW O   H1  H2  EPW O   
H1  H2  EPW O   H1  H2  EPW O   H1  H2  EPW O   H1  H2  EPW O   H1  H2  EPW O   
H1  H2  EPW O   H1  H2  EPW O   H1  H2  EPW O   H1  H2  EPW O   H1  H2  EPW O   
H1  H2  EPW O   H1  H2  EPW O   H1  H2  EPW O   H1  H2  EPW O   H1  H2  EPW O   
H1  H2  EPW O   H1  H2  EPW O   H1  H2  EPW O   H1  H2  EPW O   H1  H2  EPW O   
H1  H2  EPW O   H1  H2  EPW O   H1  H2  EPW O   H1  H2  EPW O   H1  H2  EPW O   
H1  H2  EPW O   H1  H2  EPW O   H1  H2  EPW O   H1  H2  EPW O   H1  H2  EPW O   
H1  H2  EPW O   H1  H2  EPW O   H1  H2  EPW O   H1  H2  EPW O   H1  H2  EPW O   
H1  H2  EPW O   H1  H2  EPW O   H1  H2  EPW O   H1  H2  EPW O   H1  H2  EPW O   
H1  H2  EPW O   H1  H2  EPW O   H1  H2  EPW O   H1  H2  EPW O   H1  H2  EPW O   
H1  H2  EPW O   H1  H2  EPW O   H1  H2  EPW O   H1  H2  EPW O   H1  H2  EPW O   
H1  H2  EPW O   H1  H2  EPW O   H1  H2  EPW O   H1  H2  EPW O   H1  H2  EPW O   
H1  H2  EPW O   H1  H2  EPW O   H1  H2  EPW O   H1  H2  EPW O   H1  H2  EPW O   
H1  H2  EPW O   H1  H2  EPW O   H1  H2  EPW O   H1  H2  EPW O   H1  H2  EPW O   
H1  H2  EPW O   H1  H2  EPW O   H1  H2  EPW O   H1  H2  EPW O   H1  H2  EPW O   
H1  H2  EPW O   H1  H2  EPW O   H1  H2  EPW O   H1  H2  EPW O   H1  H2  EPW O   
H1  H2  EPW O   H1  H2  EPW O   H1  H2  EPW O   H1  H2  EPW O   H1  H2  EPW O   
H1  H2  EPW O   H1  H2  EPW O   H1  H2  EPW O   H1  H2  EPW O   H1  H2  EPW O   
H1  H2  EPW O   H1  H2  EPW O   H1  H2  EPW O   H1  H2  EPW O   H1  H2  EPW O   
H1  H2  EPW O   H1  H2  EPW O   H1  H2  EPW O   H1  H2  EPW O   H1  H2  EPW O   
H1  H2  EPW O   H1  H2  EPW O   H1  H2  EPW O   H1  H2  EPW O   H1  H2  EPW O   
H1  H2  EPW O   H1  H2  EPW O   H1  H2  EPW O   H1  H2  EPW O   H1  H2  EPW O   
H1  H2  EPW O   H1  H2  EPW O   H1  H2  EPW O   H1  H2  EPW O   H1  H2  EPW O   
H1  H2  EPW O   H1  H2  EPW O   H1  H2  EPW O   H1  H2  EPW O   H1  H2  EPW O   
H1  H2  EPW O   H1  H2  EPW O   H1  H2  EPW O   H1  H2  EPW O   H1  H2  EPW O   
H1  H2  EPW O   H1  H2  EPW O   H1  H2  EPW O   H1  H2  EPW O   H1  H2  EPW O   
H1  H2  EPW O   H1  H2  EPW O   H1  H2  EPW O   H1  H2  EPW O   H1  H2  EPW O   
H1  H2  EPW O   H1  H2  EPW O   H1  H2  EPW O   H1  H2  EPW O   H1  H2  EPW O   
H1  H2  EPW O   H1  H2  EPW O   H1  H2  EPW O   H1  H2  EPW O   H1  H2  EPW O   
H1  H2  EPW O   H1  H2  EPW O   H1  H2  EPW O   H1  H2  EPW O   H1  H2  EPW O   
H1  H2  EPW O   H1  H2  EPW O   H1  H2  EPW O   H1  H2  EPW O   H1  H2  EPW O   
H1  H2  EPW O   H1  H2  EPW O   H1  H2  EPW O   H1  H2  EPW O   H1  H2  EPW O   
H1  H2  EPW O   H1  H2  EPW O   H1  H2  EPW O   H1  H2  EPW O   H1  H2  EPW O   
H1  H2  EPW O   H1  H2  EPW O   H1  H2  EPW O   H1  H2  EPW O   H1  H2  EPW O   
H1  H2  EPW O   H1  H2  EPW O   H1  H2  EPW O   H1  H2  EPW O   H1  H2  EPW O   
H1  H2  EPW O   H1  H2  EPW O   H1  H2  EPW O   H1  H2  EPW O   H1  H2  EPW O   
H1  H2  EPW O   H1  H2  EPW O   H1  H2  EPW O   H1  H2  EPW O   H1  H2  EPW O   
H1  H2  EPW O   H1  H2  EPW O   H1  H2  EPW O   H1  H2  EPW O   H1  H2  EPW O   
H1  H2  EPW O   H1  H2  EPW O   H1  H2  EPW O   H1  H2  EPW O   H1  H2  EPW O   
H1  H2  EPW O   H1  H2  EPW O   H1  H2  EPW O   H1  H2  EPW O   H1  H2  EPW O   
H1  H2  EPW O   H1  H2  EPW O   H1  H2  EPW O   H1  H2  EPW O   H1  H2  EPW O   
H1  H2  EPW O   H1  H2  EPW O   H1  H2  EPW O   H1  H2  EPW O   H1  H2  EPW O   
H1  H2  EPW O   H1  H2  EPW O   H1  H2  EPW O   H1  H2  EPW O   H1  H2  EPW O   
H1  H2  EPW O   H1  H2  EPW O   H1  H2  EPW O   H1  H2  EPW O   H1  H2  EPW O   
H1  H2  EPW O   H1  H2  EPW O   H1  H2  EPW O   H1  H2  EPW O   H1  H2  EPW O   
H1  H2  EPW O   H1  H2  EPW O   H1  H2  EPW O   H1  H2  EPW O   H1  H2  EPW O   
H1  H2  EPW O   H1  H2  EPW O   H1  H2  EPW O   H1  H2  EPW O   H1  H2  EPW O   
H1  H2  EPW O   H1  H2  EPW O   H1  H2  EPW O   H1  H2  EPW O   H1  H2  EPW O   
H1  H2  EPW O   H1  H2  EPW O   H1  H2  EPW O   H1  H2  EPW O   H1  H2  EPW O   
H1  H2  EPW O   H1  H2  EPW O   H1  H2  EPW O   H1  H2  EPW O   H1  H2  EPW O   
H1  H2  EPW O   H1  H2  EPW O   H1  H2  EPW O   H1  H2  EPW O   H1  H2  EPW O   
H1  H2  EPW O   H1  H2  EPW O   H1  H2  EPW O   H1  H2  EPW O   H1  H2  EPW O   
H1  H2  EPW O   H1  H2  EPW O   H1  H2  EPW O   H1  H2  EPW O   H1  H2  EPW O   
H1  H2  EPW O   H1  H2  EPW O   H1  H2  EPW O   H1  H2  EPW O   H1  H2  EPW O   
H1  H2  EPW O   H1  H2  EPW O   H1  H2  EPW O   H1  H2  EPW O   H1  H2  EPW O   
H1  H2  EPW O   H1  H2  EPW O   H1  H2  EPW O   H1  H2  EPW O   H1  H2  EPW O   
H1  H2  EPW O   H1  H2  EPW O   H1  H2  EPW O   H1  H2  EPW O   H1  H2  EPW O   
H1  H2  EPW O   H1  H2  EPW O   H1  H2  EPW O   H1  H2  EPW O   H1  H2  EPW O   
H1  H2  EPW O   H1  H2  EPW O   H1  H2  EPW O   H1  H2  EPW O   H1  H2  EPW O   
H1  H2  EPW O   H1  H2  EPW O   H1  H2  EPW O   H1  H2  EPW O   H1  H2  EPW O   
H1  H2  EPW O   H1  H2  EPW O   H1  H2  EPW O   H1  H2  EPW O   H1  H2  EPW O   
H1  H2  EPW O   H1  H2  EPW O   H1  H2  EPW O   H1  H2  EPW O   H1  H2  EPW O   
H1  H2  EPW O   H1  H2  EPW O   H1  H2  EPW O   H1  H2  EPW O   H1  H2  EPW O   
H1  H2  EPW O   H1  H2  EPW O   H1  H2  EPW O   H1  H2  EPW O   H1  H2  EPW O   
H1  H2  EPW O   H1  H2  EPW O   H1  H2  EPW O   H1  H2  EPW O   H1  H2  EPW O   
H1  H2  EPW O   H1  H2  EPW O   H1  H2  EPW O   H1  H2  EPW O   H1  H2  EPW O   
H1  H2  EPW O   H1  H2  EPW O   H1  H2  EPW O   H1  H2  EPW O   H1  H2  EPW O   
H1  H2  EPW O   H1  H2  EPW O   H1  H2  EPW O   H1  H2  EPW O   H1  H2  EPW O   
H1  H2  EPW O   H1  H2  EPW O   H1  H2  EPW O   H1  H2  EPW O   H1  H2  EPW O   
H1  H2  EPW O   H1  H2  EPW O   H1  H2  EPW O   H1  H2  EPW O   H1  H2  EPW O   
H1  H2  EPW O   H1  H2  EPW O   H1  H2  EPW O   H1  H2  EPW O   H1  H2  EPW O   
H1  H2  EPW O   H1  H2  EPW O   H1  H2  EPW O   H1  H2  EPW O   H1  H2  EPW O   
H1  H2  EPW O   H1  H2  EPW O   H1  H2  EPW O   H1  H2  EPW O   H1  H2  EPW O   
H1  H2  EPW O   H1  H2  EPW O   H1  H2  EPW O   H1  H2  EPW O   H1  H2  EPW O   
H1  H2  EPW O   H1  H2  EPW O   H1  H2  EPW O   H1  H2  EPW O   H1  H2  EPW O   
H1  H2  EPW O   H1  H2  EPW O   H1  H2  EPW O   H1  H2  EPW O   H1  H2  EPW O   
H1  H2  EPW O   H1  H2  EPW O   H1  H2  EPW O   H1  H2  EPW O   H1  H2  EPW O   
H1  H2  EPW O   H1  H2  EPW O   H1  H2  EPW O   H1  H2  EPW O   H1  H2  EPW O   
H1  H2  EPW O   H1  H2  EPW O   H1  H2  EPW O   H1  H2  EPW O   H1  H2  EPW O   
H1  H2  EPW O   H1  H2  EPW O   H1  H2  EPW O   H1  H2  EPW O   H1  H2  EPW O   
H1  H2  EPW O   H1  H2  EPW O   H1  H2  EPW O   H1  H2  EPW O   H1  H2  EPW O   
H1  H2  EPW O   H1  H2  EPW O   H1  H2  EPW O   H1  H2  EPW O   H1  H2  EPW O   
H1  H2  EPW O   H1  H2  EPW O   H1  H2  EPW O   H1  H2  EPW O   H1  H2  EPW O   
H1  H2  EPW O   H1  H2  EPW O   H1  H2  EPW O   H1  H2  EPW O   H1  H2  EPW O   
H1  H2  EPW O   H1  H2  EPW O   H1  H2  EPW O   H1  H2  EPW O   H1  H2  EPW O   
H1  H2  EPW O   H1  H2  EPW O   H1  H2  EPW O   H1  H2  EPW O   H1  H2  EPW O   
H1  H2  EPW O   H1  H2  EPW O   H1  H2  EPW O   H1  H2  EPW O   H1  H2  EPW O   
H1  H2  EPW O   H1  H2  EPW O   H1  H2  EPW O   H1  H2  EPW O   H1  H2  EPW O   
H1  H2  EPW O   H1  H2  EPW O   H1  H2  EPW O   H1  H2  EPW O   H1  H2  EPW O   
H1  H2  EPW O   H1  H2  EPW O   H1  H2  EPW O   H1  H2  EPW O   H1  H2  EPW O   
H1  H2  EPW O   H1  H2  EPW O   H1  H2  EPW O   H1  H2  EPW O   H1  H2  EPW O   
H1  H2  EPW O   H1  H2  EPW O   H1  H2  EPW O   H1  H2  EPW O   H1  H2  EPW O   
H1  H2  EPW O   H1  H2  EPW O   H1  H2  EPW O   H1  H2  EPW O   H1  H2  EPW O   
H1  H2  EPW O   H1  H2  EPW O   H1  H2  EPW O   H1  H2  EPW O   H1  H2  EPW O   
H1  H2  EPW O   H1  H2  EPW O   H1  H2  EPW O   H1  H2  EPW O   H1  H2  EPW O   
H1  H2  EPW O   H1  H2  EPW O   H1  H2  EPW O   H1  H2  EPW O   H1  H2  EPW O   
H1  H2  EPW O   H1  H2  EPW O   H1  H2  EPW O   H1  H2  EPW O   H1  H2  EPW O   
H1  H2  EPW O   H1  H2  EPW O   H1  H2  EPW O   H1  H2  EPW O   H1  H2  EPW O   
H1  H2  EPW O   H1  H2  EPW O   H1  H2  EPW O   H1  H2  EPW O   H1  H2  EPW O   
H1  H2  EPW O   H1  H2  EPW O   H1  H2  EPW O   H1  H2  EPW O   H1  H2  EPW O   
H1  H2  EPW O   H1  H2  EPW O   H1  H2  EPW O   H1  H2  EPW O   H1  H2  EPW O   
H1  H2  EPW O   H1  H2  EPW O   H1  H2  EPW O   H1  H2  EPW O   H1  H2  EPW O   
H1  H2  EPW O   H1  H2  EPW O   H1  H2  EPW O   H1  H2  EPW O   H1  H2  EPW O   
H1  H2  EPW O   H1  H2  EPW O   H1  H2  EPW O   H1  H2  EPW O   H1  H2  EPW O   
H1  H2  EPW O   H1  H2  EPW O   H1  H2  EPW O   H1  H2  EPW O   H1  H2  EPW O   
H1  H2  EPW O   H1  H2  EPW O   H1  H2  EPW O   H1  H2  EPW O   H1  H2  EPW O   
H1  H2  EPW O   H1  H2  EPW O   H1  H2  EPW O   H1  H2  EPW O   H1  H2  EPW O   
H1  H2  EPW O   H1  H2  EPW O   H1  H2  EPW O   H1  H2  EPW O   H1  H2  EPW O   
H1  H2  EPW O   H1  H2  EPW O   H1  H2  EPW O   H1  H2  EPW O   H1  H2  EPW O   
H1  H2  EPW O   H1  H2  EPW O   H1  H2  EPW O   H1  H2  EPW O   H1  H2  EPW O   
H1  H2  EPW O   H1  H2  EPW O   H1  H2  EPW O   H1  H2  EPW O   H1  H2  EPW O   
H1  H2  EPW O   H1  H2  EPW O   H1  H2  EPW O   H1  H2  EPW O   H1  H2  EPW O   
H1  H2  EPW O   H1  H2  EPW O   H1  H2  EPW O   H1  H2  EPW O   H1  H2  EPW O   
H1  H2  EPW O   H1  H2  EPW O   H1  H2  EPW O   H1  H2  EPW O   H1  H2  EPW O   
H1  H2  EPW O   H1  H2  EPW O   H1  H2  EPW O   H1  H2  EPW O   H1  H2  EPW O   
H1  H2  EPW O   H1  H2  EPW O   H1  H2  EPW O   H1  H2  EPW O   H1  H2  EPW O   
H1  H2  EPW O   H1  H2  EPW O   H1  H2  EPW O   H1  H2  EPW O   H1  H2  EPW O   
H1  H2  EPW O   H1  H2  EPW O   H1  H2  EPW O   H1  H2  EPW O   H1  H2  EPW O   
H1  H2  EPW O   H1  H2  EPW O   H1  H2  EPW O   H1  H2  EPW O   H1  H2  EPW O   
H1  H2  EPW O   H1  H2  EPW O   H1  H2  EPW O   H1  H2  EPW O   H1  H2  EPW O   
H1  H2  EPW O   H1  H2  EPW O   H1  H2  EPW O   H1  H2  EPW O   H1  H2  EPW O   
H1  H2  EPW O   H1  H2  EPW O   H1  H2  EPW O   H1  H2  EPW O   H1  H2  EPW O   
H1  H2  EPW O   H1  H2  EPW O   H1  H2  EPW O   H1  H2  EPW O   H1  H2  EPW O   
H1  H2  EPW O   H1  H2  EPW O   H1  H2  EPW O   H1  H2  EPW O   H1  H2  EPW O   
H1  H2  EPW O   H1  H2  EPW O   H1  H2  EPW O   H1  H2  EPW O   H1  H2  EPW O   
H1  H2  EPW O   H1  H2  EPW O   H1  H2  EPW O   H1  H2  EPW O   H1  H2  EPW O   
H1  H2  EPW O   H1  H2  EPW O   H1  H2  EPW O   H1  H2  EPW O   H1  H2  EPW O   
H1  H2  EPW O   H1  H2  EPW O   H1  H2  EPW O   H1  H2  EPW O   H1  H2  EPW O   
H1  H2  EPW O   H1  H2  EPW O   H1  H2  EPW O   H1  H2  EPW O   H1  H2  EPW O   
H1  H2  EPW O   H1  H2  EPW O   H1  H2  EPW O   H1  H2  EPW O   H1  H2  EPW O   
H1  H2  EPW O   H1  H2  EPW O   H1  H2  EPW O   H1  H2  EPW O   H1  H2  EPW O   
H1  H2  EPW O   H1  H2  EPW O   H1  H2  EPW O   H1  H2  EPW O   H1  H2  EPW O   
H1  H2  EPW O   H1  H2  EPW O   H1  H2  EPW O   H1  H2  EPW O   H1  H2  EPW O   
H1  H2  EPW O   H1  H2  EPW O   H1  H2  EPW O   H1  H2  EPW O   H1  H2  EPW O   
H1  H2  EPW O   H1  H2  EPW O   H1  H2  EPW O   H1  H2  EPW O   H1  H2  EPW O   
H1  H2  EPW O   H1  H2  EPW O   H1  H2  EPW O   H1  H2  EPW O   H1  H2  EPW O   
H1  H2  EPW O   H1  H2  EPW O   H1  H2  EPW O   H1  H2  EPW O   H1  H2  EPW O   
H1  H2  EPW O   H1  H2  EPW O   H1  H2  EPW O   H1  H2  EPW O   H1  H2  EPW O   
H1  H2  EPW O   H1  H2  EPW O   H1  H2  EPW O   H1  H2  EPW O   H1  H2  EPW O   
H1  H2  EPW O   H1  H2  EPW O   H1  H2  EPW O   H1  H2  EPW O   H1  H2  EPW O   
H1  H2  EPW O   H1  H2  EPW O   H1  H2  EPW O   H1  H2  EPW O   H1  H2  EPW O   
H1  H2  EPW O   H1  H2  EPW O   H1  H2  EPW O   H1  H2  EPW O   H1  H2  EPW O   
H1  H2  EPW O   H1  H2  EPW O   H1  H2  EPW O   H1  H2  EPW O   H1  H2  EPW O   
H1  H2  EPW O   H1  H2  EPW O   H1  H2  EPW O   H1  H2  EPW O   H1  H2  EPW O   
H1  H2  EPW O   H1  H2  EPW O   H1  H2  EPW O   H1  H2  EPW O   H1  H2  EPW O   
H1  H2  EPW O   H1  H2  EPW O   H1  H2  EPW O   H1  H2  EPW O   H1  H2  EPW O   
H1  H2  EPW O   H1  H2  EPW O   H1  H2  EPW O   H1  H2  EPW O   H1  H2  EPW O   
H1  H2  EPW O   H1  H2  EPW O   H1  H2  EPW O   H1  H2  EPW O   H1  H2  EPW O   
H1  H2  EPW O   H1  H2  EPW O   H1  H2  EPW O   H1  H2  EPW O   H1  H2  EPW O   
H1  H2  EPW O   H1  H2  EPW O   H1  H2  EPW O   H1  H2  EPW O   H1  H2  EPW O   
H1  H2  EPW O   H1  H2  EPW O   H1  H2  EPW O   H1  H2  EPW O   H1  H2  EPW O   
H1  H2  EPW O   H1  H2  EPW O   H1  H2  EPW O   H1  H2  EPW O   H1  H2  EPW O   
H1  H2  EPW O   H1  H2  EPW O   H1  H2  EPW O   H1  H2  EPW O   H1  H2  EPW O   
H1  H2  EPW O   H1  H2  EPW O   H1  H2  EPW O   H1  H2  EPW O   H1  H2  EPW O   
H1  H2  EPW O   H1  H2  EPW O   H1  H2  EPW O   H1  H2  EPW O   H1  H2  EPW O   
H1  H2  EPW O   H1  H2  EPW O   H1  H2  EPW O   H1  H2  EPW O   H1  H2  EPW O   
H1  H2  EPW O   H1  H2  EPW O   H1  H2  EPW O   H1  H2  EPW O   H1  H2  EPW O   
H1  H2  EPW O   H1  H2  EPW O   H1  H2  EPW O   H1  H2  EPW O   H1  H2  EPW O   
H1  H2  EPW O   H1  H2  EPW O   H1  H2  EPW O   H1  H2  EPW O   H1  H2  EPW O   
H1  H2  EPW O   H1  H2  EPW O   H1  H2  EPW O   H1  H2  EPW O   H1  H2  EPW O   
H1  H2  EPW O   H1  H2  EPW O   H1  H2  EPW O   H1  H2  EPW O   H1  H2  EPW O   
H1  H2  EPW O   H1  H2  EPW O   H1  H2  EPW O   H1  H2  EPW O   H1  H2  EPW O   
H1  H2  EPW O   H1  H2  EPW O   H1  H2  EPW O   H1  H2  EPW O   H1  H2  EPW O   
H1  H2  EPW O   H1  H2  EPW O   H1  H2  EPW O   H1  H2  EPW O   H1  H2  EPW O   
H1  H2  EPW O   H1  H2  EPW O   H1  H2  EPW O   H1  H2  EPW O   H1  H2  EPW O   
H1  H2  EPW O   H1  H2  EPW O   H1  H2  EPW O   H1  H2  EPW O   H1  H2  EPW O   
H1  H2  EPW O   H1  H2  EPW O   H1  H2  EPW O   H1  H2  EPW O   H1  H2  EPW O   
H1  H2  EPW O   H1  H2  EPW O   H1  H2  EPW O   H1  H2  EPW O   H1  H2  EPW O   
H1  H2  EPW O   H1  H2  EPW O   H1  H2  EPW O   H1  H2  EPW O   H1  H2  EPW O   
H1  H2  EPW O   H1  H2  EPW O   H1  H2  EPW O   H1  H2  EPW O   H1  H2  EPW O   
H1  H2  EPW O   H1  H2  EPW O   H1  H2  EPW O   H1  H2  EPW O   H1  H2  EPW O   
H1  H2  EPW O   H1  H2  EPW O   H1  H2  EPW O   H1  H2  EPW O   H1  H2  EPW O   
H1  H2  EPW O   H1  H2  EPW O   H1  H2  EPW O   H1  H2  EPW O   H1  H2  EPW O   
H1  H2  EPW O   H1  H2  EPW O   H1  H2  EPW O   H1  H2  EPW O   H1  H2  EPW O   
H1  H2  EPW O   H1  H2  EPW O   H1  H2  EPW O   H1  H2  EPW O   H1  H2  EPW O   
H1  H2  EPW O   H1  H2  EPW O   H1  H2  EPW O   H1  H2  EPW O   H1  H2  EPW O   
H1  H2  EPW O   H1  H2  EPW O   H1  H2  EPW O   H1  H2  EPW O   H1  H2  EPW O   
H1  H2  EPW O   H1  H2  EPW O   H1  H2  EPW O   H1  H2  EPW O   H1  H2  EPW O   
H1  H2  EPW O   H1  H2  EPW O   H1  H2  EPW O   H1  H2  EPW O   H1  H2  EPW O   
H1  H2  EPW O   H1  H2  EPW O   H1  H2  EPW O   H1  H2  EPW O   H1  H2  EPW O   
H1  H2  EPW O   H1  H2  EPW O   H1  H2  EPW O   H1  H2  EPW O   H1  H2  EPW O   
H1  H2  EPW O   H1  H2  EPW O   H1  H2  EPW O   H1  H2  EPW O   H1  H2  EPW O   
H1  H2  EPW O   H1  H2  EPW O   H1  H2  EPW O   H1  H2  EPW O   H1  H2  EPW O   
H1  H2  EPW O   H1  H2  EPW O   H1  H2  EPW O   H1  H2  EPW O   H1  H2  EPW O   
H1  H2  EPW O   H1  H2  EPW O   H1  H2  EPW O   H1  H2  EPW O   H1  H2  EPW O   
H1  H2  EPW O   H1  H2  EPW O   H1  H2  EPW O   H1  H2  EPW O   H1  H2  EPW O   
H1  H2  EPW O   H1  H2  EPW O   H1  H2  EPW O   H1  H2  EPW O   H1  H2  EPW O   
H1  H2  EPW O   H1  H2  EPW O   H1  H2  EPW O   H1  H2  EPW O   H1  H2  EPW O   
H1  H2  EPW O   H1  H2  EPW O   H1  H2  EPW O   H1  H2  EPW O   H1  H2  EPW O   
H1  H2  EPW O   H1  H2  EPW O   H1  H2  EPW O   H1  H2  EPW O   H1  H2  EPW O   
H1  H2  EPW O   H1  H2  EPW O   H1  H2  EPW O   H1  H2  EPW O   H1  H2  EPW O   
H1  H2  EPW O   H1  H2  EPW O   H1  H2  EPW O   H1  H2  EPW O   H1  H2  EPW O   
H1  H2  EPW O   H1  H2  EPW O   H1  H2  EPW O   H1  H2  EPW O   H1  H2  EPW O   
H1  H2  EPW O   H1  H2  EPW O   H1  H2  EPW O   H1  H2  EPW O   H1  H2  EPW O   
H1  H2  EPW O   H1  H2  EPW O   H1  H2  EPW O   H1  H2  EPW O   H1  H2  EPW O   
H1  H2  EPW O   H1  H2  EPW O   H1  H2  EPW O   H1  H2  EPW O   H1  H2  EPW O   
H1  H2  EPW O   H1  H2  EPW O   H1  H2  EPW O   H1  H2  EPW O   H1  H2  EPW O   
H1  H2  EPW O   H1  H2  EPW O   H1  H2  EPW O   H1  H2  EPW O   H1  H2  EPW O   
H1  H2  EPW O   H1  H2  EPW O   H1  H2  EPW O   H1  H2  EPW O   H1  H2  EPW O   
H1  H2  EPW O   H1  H2  EPW O   H1  H2  EPW O   H1  H2  EPW O   H1  H2  EPW O   
H1  H2  EPW O   H1  H2  EPW O   H1  H2  EPW O   H1  H2  EPW O   H1  H2  EPW O   
H1  H2  EPW O   H1  H2  EPW O   H1  H2  EPW O   H1  H2  EPW O   H1  H2  EPW O   
H1  H2  EPW O   H1  H2  EPW O   H1  H2  EPW O   H1  H2  EPW O   H1  H2  EPW O   
H1  H2  EPW O   H1  H2  EPW O   H1  H2  EPW O   H1  H2  EPW O   H1  H2  EPW O   
H1  H2  EPW O   H1  H2  EPW O   H1  H2  EPW O   H1  H2  EPW O   H1  H2  EPW O   
H1  H2  EPW O   H1  H2  EPW O   H1  H2  EPW O   H1  H2  EPW O   H1  H2  EPW O   
H1  H2  EPW O   H1  H2  EPW O   H1  H2  EPW O   H1  H2  EPW O   H1  H2  EPW O   
H1  H2  EPW O   H1  H2  EPW O   H1  H2  EPW O   H1  H2  EPW O   H1  H2  EPW O   
H1  H2  EPW O   H1  H2  EPW O   H1  H2  EPW O   H1  H2  EPW O   H1  H2  EPW O   
H1  H2  EPW O   H1  H2  EPW O   H1  H2  EPW O   H1  H2  EPW O   H1  H2  EPW O   
H1  H2  EPW O   H1  H2  EPW O   H1  H2  EPW O   H1  H2  EPW O   H1  H2  EPW O   
H1  H2  EPW O   H1  H2  EPW O   H1  H2  EPW O   H1  H2  EPW O   H1  H2  EPW O   
H1  H2  EPW O   H1  H2  EPW O   H1  H2  EPW O   H1  H2  EPW O   H1  H2  EPW O   
H1  H2  EPW O   H1  H2  EPW O   H1  H2  EPW O   H1  H2  EPW O   H1  H2  EPW O   
H1  H2  EPW O   H1  H2  EPW O   H1  H2  EPW O   H1  H2  EPW O   H1  H2  EPW O   
H1  H2  EPW O   H1  H2  EPW O   H1  H2  EPW O   H1  H2  EPW O   H1  H2  EPW O   
H1  H2  EPW O   H1  H2  EPW O   H1  H2  EPW O   H1  H2  EPW O   H1  H2  EPW O   
H1  H2  EPW O   H1  H2  EPW O   H1  H2  EPW O   H1  H2  EPW O   H1  H2  EPW O   
H1  H2  EPW O   H1  H2  EPW O   H1  H2  EPW O   H1  H2  EPW O   H1  H2  EPW O   
H1  H2  EPW O   H1  H2  EPW O   H1  H2  EPW O   H1  H2  EPW O   H1  H2  EPW O   
H1  H2  EPW O   H1  H2  EPW O   H1  H2  EPW O   H1  H2  EPW O   H1  H2  EPW O   
H1  H2  EPW O   H1  H2  EPW O   H1  H2  EPW O   H1  H2  EPW O   H1  H2  EPW O   
H1  H2  EPW O   H1  H2  EPW O   H1  H2  EPW O   H1  H2  EPW O   H1  H2  EPW O   
H1  H2  EPW O   H1  H2  EPW O   H1  H2  EPW O   H1  H2  EPW O   H1  H2  EPW O   
H1  H2  EPW O   H1  H2  EPW O   H1  H2  EPW O   H1  H2  EPW O   H1  H2  EPW O   
H1  H2  EPW O   H1  H2  EPW O   H1  H2  EPW O   H1  H2  EPW O   H1  H2  EPW O   
H1  H2  EPW O   H1  H2  EPW O   H1  H2  EPW O   H1  H2  EPW O   H1  H2  EPW O   
H1  H2  EPW O   H1  H2  EPW O   H1  H2  EPW O   H1  H2  EPW O   H1  H2  EPW O   
H1  H2  EPW O   H1  H2  EPW O   H1  H2  EPW O   H1  H2  EPW O   H1  H2  EPW O   
H1  H2  EPW O   H1  H2  EPW O   H1  H2  EPW O   H1  H2  EPW O   H1  H2  EPW O   
H1  H2  EPW O   H1  H2  EPW O   H1  H2  EPW O   H1  H2  EPW O   H1  H2  EPW O   
H1  H2  EPW O   H1  H2  EPW O   H1  H2  EPW O   H1  H2  EPW O   H1  H2  EPW O   
H1  H2  EPW O   H1  H2  EPW O   H1  H2  EPW O   H1  H2  EPW O   H1  H2  EPW O   
H1  H2  EPW O   H1  H2  EPW O   H1  H2  EPW O   H1  H2  EPW O   H1  H2  EPW O   
H1  H2  EPW O   H1  H2  EPW O   H1  H2  EPW O   H1  H2  EPW O   H1  H2  EPW O   
H1  H2  EPW O   H1  H2  EPW O   H1  H2  EPW O   H1  H2  EPW O   H1  H2  EPW O   
H1  H2  EPW O   H1  H2  EPW O   H1  H2  EPW O   H1  H2  EPW O   H1  H2  EPW O   
H1  H2  EPW O   H1  H2  EPW O   H1  H2  EPW O   H1  H2  EPW O   H1  H2  EPW O   
H1  H2  EPW O   H1  H2  EPW O   H1  H2  EPW O   H1  H2  EPW O   H1  H2  EPW O   
H1  H2  EPW O   H1  H2  EPW O   H1  H2  EPW O   H1  H2  EPW O   H1  H2  EPW O   
H1  H2  EPW O   H1  H2  EPW O   H1  H2  EPW O   H1  H2  EPW O   H1  H2  EPW O   
H1  H2  EPW O   H1  H2  EPW O   H1  H2  EPW O   H1  H2  EPW O   H1  H2  EPW O   
H1  H2  EPW O   H1  H2  EPW O   H1  H2  EPW O   H1  H2  EPW O   H1  H2  EPW O   
H1  H2  EPW O   H1  H2  EPW O   H1  H2  EPW O   H1  H2  EPW O   H1  H2  EPW O   
H1  H2  EPW O   H1  H2  EPW O   H1  H2  EPW O   H1  H2  EPW O   H1  H2  EPW O   
H1  H2  EPW O   H1  H2  EPW O   H1  H2  EPW O   H1  H2  EPW O   H1  H2  EPW O   
H1  H2  EPW O   H1  H2  EPW O   H1  H2  EPW O   H1  H2  EPW O   H1  H2  EPW O   
H1  H2  EPW O   H1  H2  EPW O   H1  H2  EPW O   H1  H2  EPW O   H1  H2  EPW O   
H1  H2  EPW O   H1  H2  EPW O   H1  H2  EPW O   H1  H2  EPW O   H1  H2  EPW O   
H1  H2  EPW O   H1  H2  EPW O   H1  H2  EPW O   H1  H2  EPW O   H1  H2  EPW O   
H1  H2  EPW O   H1  H2  EPW O   H1  H2  EPW O   H1  H2  EPW O   H1  H2  EPW O   
H1  H2  EPW O   H1  H2  EPW O   H1  H2  EPW O   H1  H2  EPW O   H1  H2  EPW O   
H1  H2  EPW O   H1  H2  EPW O   H1  H2  EPW O   H1  H2  EPW O   H1  H2  EPW O   
H1  H2  EPW O   H1  H2  EPW O   H1  H2  EPW O   H1  H2  EPW O   H1  H2  EPW O   
H1  H2  EPW O   H1  H2  EPW O   H1  H2  EPW O   H1  H2  EPW O   H1  H2  EPW O   
H1  H2  EPW O   H1  H2  EPW O   H1  H2  EPW O   H1  H2  EPW O   H1  H2  EPW O   
H1  H2  EPW O   H1  H2  EPW O   H1  H2  EPW O   H1  H2  EPW O   H1  H2  EPW O   
H1  H2  EPW O   H1  H2  EPW O   H1  H2  EPW O   H1  H2  EPW O   H1  H2  EPW O   
H1  H2  EPW O   H1  H2  EPW O   H1  H2  EPW O   H1  H2  EPW O   H1  H2  EPW O   
H1  H2  EPW O   H1  H2  EPW O   H1  H2  EPW O   H1  H2  EPW O   H1  H2  EPW O   
H1  H2  EPW O   H1  H2  EPW O   H1  H2  EPW O   H1  H2  EPW O   H1  H2  EPW O   
H1  H2  EPW O   H1  H2  EPW O   H1  H2  EPW O   H1  H2  EPW O   H1  H2  EPW O   
H1  H2  EPW O   H1  H2  EPW O   H1  H2  EPW O   H1  H2  EPW O   H1  H2  EPW O   
H1  H2  EPW O   H1  H2  EPW O   H1  H2  EPW O   H1  H2  EPW O   H1  H2  EPW O   
H1  H2  EPW O   H1  H2  EPW O   H1  H2  EPW O   H1  H2  EPW O   H1  H2  EPW O   
H1  H2  EPW O   H1  H2  EPW O   H1  H2  EPW O   H1  H2  EPW O   H1  H2  EPW O   
H1  H2  EPW O   H1  H2  EPW O   H1  H2  EPW O   H1  H2  EPW O   H1  H2  EPW O   
H1  H2  EPW O   H1  H2  EPW O   H1  H2  EPW O   H1  H2  EPW O   H1  H2  EPW O   
H1  H2  EPW O   H1  H2  EPW O   H1  H2  EPW O   H1  H2  EPW O   H1  H2  EPW O   
H1  H2  EPW O   H1  H2  EPW O   H1  H2  EPW O   H1  H2  EPW O   H1  H2  EPW O   
H1  H2  EPW O   H1  H2  EPW O   H1  H2  EPW O   H1  H2  EPW O   H1  H2  EPW O   
H1  H2  EPW O   H1  H2  EPW O   H1  H2  EPW O   H1  H2  EPW O   H1  H2  EPW O   
H1  H2  EPW O   H1  H2  EPW O   H1  H2  EPW O   H1  H2  EPW O   H1  H2  EPW O   
H1  H2  EPW O   H1  H2  EPW O   H1  H2  EPW O   H1  H2  EPW O   H1  H2  EPW O   
H1  H2  EPW O   H1  H2  EPW O   H1  H2  EPW O   H1  H2  EPW O   H1  H2  EPW O   
H1  H2  EPW O   H1  H2  EPW O   H1  H2  EPW O   H1  H2  EPW O   H1  H2  EPW O   
H1  H2  EPW O   H1  H2  EPW O   H1  H2  EPW O   H1  H2  EPW O   H1  H2  EPW O   
H1  H2  EPW O   H1  H2  EPW O   H1  H2  EPW O   H1  H2  EPW O   H1  H2  EPW O   
H1  H2  EPW O   H1  H2  EPW O   H1  H2  EPW O   H1  H2  EPW O   H1  H2  EPW O   
H1  H2  EPW O   H1  H2  EPW O   H1  H2  EPW O   H1  H2  EPW O   H1  H2  EPW O   
H1  H2  EPW O   H1  H2  EPW O   H1  H2  EPW O   H1  H2  EPW O   H1  H2  EPW O   
H1  H2  EPW O   H1  H2  EPW O   H1  H2  EPW O   H1  H2  EPW O   H1  H2  EPW O   
H1  H2  EPW O   H1  H2  EPW O   H1  H2  EPW O   H1  H2  EPW O   H1  H2  EPW O   
H1  H2  EPW O   H1  H2  EPW O   H1  H2  EPW O   H1  H2  EPW O   H1  H2  EPW O   
H1  H2  EPW O   H1  H2  EPW O   H1  H2  EPW O   H1  H2  EPW O   H1  H2  EPW O   
H1  H2  EPW O   H1  H2  EPW O   H1  H2  EPW O   H1  H2  EPW O   H1  H2  EPW O   
H1  H2  EPW O   H1  H2  EPW O   H1  H2  EPW O   H1  H2  EPW O   H1  H2  EPW O   
H1  H2  EPW O   H1  H2  EPW O   H1  H2  EPW O   H1  H2  EPW O   H1  H2  EPW O   
H1  H2  EPW O   H1  H2  EPW O   H1  H2  EPW O   H1  H2  EPW O   H1  H2  EPW O   
H1  H2  EPW O   H1  H2  EPW O   H1  H2  EPW O   H1  H2  EPW O   H1  H2  EPW O   
H1  H2  EPW O   H1  H2  EPW O   H1  H2  EPW O   H1  H2  EPW O   H1  H2  EPW O   
H1  H2  EPW O   H1  H2  EPW O   H1  H2  EPW O   H1  H2  EPW O   H1  H2  EPW O   
H1  H2  EPW O   H1  H2  EPW O   H1  H2  EPW O   H1  H2  EPW O   H1  H2  EPW O   
H1  H2  EPW O   H1  H2  EPW O   H1  H2  EPW O   H1  H2  EPW O   H1  H2  EPW O   
H1  H2  EPW O   H1  H2  EPW O   H1  H2  EPW O   H1  H2  EPW O   H1  H2  EPW O   
H1  H2  EPW O   H1  H2  EPW O   H1  H2  EPW O   H1  H2  EPW O   H1  H2  EPW O   
H1  H2  EPW O   H1  H2  EPW O   H1  H2  EPW O   H1  H2  EPW O   H1  H2  EPW O   
H1  H2  EPW O   H1  H2  EPW O   H1  H2  EPW O   H1  H2  EPW O   H1  H2  EPW O   
H1  H2  EPW O   H1  H2  EPW O   H1  H2  EPW O   H1  H2  EPW O   H1  H2  EPW O   
H1  H2  EPW O   H1  H2  EPW O   H1  H2  EPW O   H1  H2  EPW O   H1  H2  EPW O   
H1  H2  EPW O   H1  H2  EPW O   H1  H2  EPW O   H1  H2  EPW O   H1  H2  EPW O   
H1  H2  EPW O   H1  H2  EPW O   H1  H2  EPW O   H1  H2  EPW O   H1  H2  EPW O   
H1  H2  EPW O   H1  H2  EPW O   H1  H2  EPW O   H1  H2  EPW O   H1  H2  EPW O   
H1  H2  EPW O   H1  H2  EPW O   H1  H2  EPW O   H1  H2  EPW O   H1  H2  EPW O   
H1  H2  EPW O   H1  H2  EPW O   H1  H2  EPW O   H1  H2  EPW O   H1  H2  EPW O   
H1  H2  EPW O   H1  H2  EPW O   H1  H2  EPW O   H1  H2  EPW O   H1  H2  EPW O   
H1  H2  EPW O   H1  H2  EPW O   H1  H2  EPW O   H1  H2  EPW O   H1  H2  EPW O   
H1  H2  EPW O   H1  H2  EPW O   H1  H2  EPW O   H1  H2  EPW O   H1  H2  EPW O   
H1  H2  EPW O   H1  H2  EPW O   H1  H2  EPW O   H1  H2  EPW O   H1  H2  EPW O   
H1  H2  EPW O   H1  H2  EPW O   H1  H2  EPW O   H1  H2  EPW O   H1  H2  EPW O   
H1  H2  EPW O   H1  H2  EPW O   H1  H2  EPW O   H1  H2  EPW O   H1  H2  EPW O   
H1  H2  EPW O   H1  H2  EPW O   H1  H2  EPW O   H1  H2  EPW O   H1  H2  EPW O   
H1  H2  EPW O   H1  H2  EPW O   H1  H2  EPW O   H1  H2  EPW O   H1  H2  EPW O   
H1  H2  EPW O   H1  H2  EPW O   H1  H2  EPW O   H1  H2  EPW O   H1  H2  EPW O   
H1  H2  EPW O   H1  H2  EPW O   H1  H2  EPW O   H1  H2  EPW O   H1  H2  EPW O   
H1  H2  EPW O   H1  H2  EPW O   H1  H2  EPW O   H1  H2  EPW O   H1  H2  EPW O   
H1  H2  EPW O   H1  H2  EPW O   H1  H2  EPW O   H1  H2  EPW O   H1  H2  EPW O   
H1  H2  EPW O   H1  H2  EPW O   H1  H2  EPW O   H1  H2  EPW O   H1  H2  EPW O   
H1  H2  EPW O   H1  H2  EPW O   H1  H2  EPW O   H1  H2  EPW O   H1  H2  EPW O   
H1  H2  EPW O   H1  H2  EPW O   H1  H2  EPW O   H1  H2  EPW O   H1  H2  EPW O   
H1  H2  EPW O   H1  H2  EPW O   H1  H2  EPW O   H1  H2  EPW O   H1  H2  EPW O   
H1  H2  EPW O   H1  H2  EPW O   H1  H2  EPW O   H1  H2  EPW O   H1  H2  EPW O   
H1  H2  EPW O   H1  H2  EPW O   H1  H2  EPW O   H1  H2  EPW O   H1  H2  EPW O   
H1  H2  EPW O   H1  H2  EPW O   H1  H2  EPW O   H1  H2  EPW O   H1  H2  EPW O   
H1  H2  EPW O   H1  H2  EPW O   H1  H2  EPW O   H1  H2  EPW O   H1  H2  EPW O   
H1  H2  EPW O   H1  H2  EPW O   H1  H2  EPW O   H1  H2  EPW O   H1  H2  EPW O   
H1  H2  EPW O   H1  H2  EPW O   H1  H2  EPW O   H1  H2  EPW O   H1  H2  EPW O   
H1  H2  EPW O   H1  H2  EPW O   H1  H2  EPW O   H1  H2  EPW O   H1  H2  EPW O   
H1  H2  EPW O   H1  H2  EPW O   H1  H2  EPW O   H1  H2  EPW O   H1  H2  EPW O   
H1  H2  EPW O   H1  H2  EPW O   H1  H2  EPW O   H1  H2  EPW O   H1  H2  EPW O   
H1  H2  EPW O   H1  H2  EPW O   H1  H2  EPW O   H1  H2  EPW O   H1  H2  EPW O   
H1  H2  EPW O   H1  H2  EPW O   H1  H2  EPW O   H1  H2  EPW O   H1  H2  EPW O   
H1  H2  EPW O   H1  H2  EPW O   H1  H2  EPW O   H1  H2  EPW O   H1  H2  EPW O   
H1  H2  EPW O   H1  H2  EPW O   H1  H2  EPW O   H1  H2  EPW O   H1  H2  EPW O   
H1  H2  EPW O   H1  H2  EPW O   H1  H2  EPW O   H1  H2  EPW O   H1  H2  EPW O   
H1  H2  EPW O   H1  H2  EPW O   H1  H2  EPW O   H1  H2  EPW O   H1  H2  EPW O   
H1  H2  EPW O   H1  H2  EPW O   H1  H2  EPW O   H1  H2  EPW O   H1  H2  EPW O   
H1  H2  EPW O   H1  H2  EPW O   H1  H2  EPW O   H1  H2  EPW O   H1  H2  EPW O   
H1  H2  EPW O   H1  H2  EPW O   H1  H2  EPW O   H1  H2  EPW O   H1  H2  EPW O   
H1  H2  EPW O   H1  H2  EPW O   H1  H2  EPW O   H1  H2  EPW O   H1  H2  EPW O   
H1  H2  EPW O   H1  H2  EPW O   H1  H2  EPW O   H1  H2  EPW O   H1  H2  EPW O   
H1  H2  EPW O   H1  H2  EPW O   H1  H2  EPW O   H1  H2  EPW O   H1  H2  EPW O   
H1  H2  EPW O   H1  H2  EPW O   H1  H2  EPW O   H1  H2  EPW O   H1  H2  EPW O   
H1  H2  EPW O   H1  H2  EPW O   H1  H2  EPW O   H1  H2  EPW O   H1  H2  EPW O   
H1  H2  EPW O   H1  H2  EPW O   H1  H2  EPW O   H1  H2  EPW O   H1  H2  EPW O   
H1  H2  EPW O   H1  H2  EPW O   H1  H2  EPW O   H1  H2  EPW O   H1  H2  EPW O   
H1  H2  EPW O   H1  H2  EPW O   H1  H2  EPW O   H1  H2  EPW O   H1  H2  EPW O   
H1  H2  EPW O   H1  H2  EPW O   H1  H2  EPW O   H1  H2  EPW O   H1  H2  EPW O   
H1  H2  EPW O   H1  H2  EPW O   H1  H2  EPW O   H1  H2  EPW O   H1  H2  EPW O   
H1  H2  EPW O   H1  H2  EPW O   H1  H2  EPW O   H1  H2  EPW O   H1  H2  EPW O   
H1  H2  EPW O   H1  H2  EPW O   H1  H2  EPW O   H1  H2  EPW O   H1  H2  EPW O   
H1  H2  EPW O   H1  H2  EPW O   H1  H2  EPW O   H1  H2  EPW O   H1  H2  EPW O   
H1  H2  EPW O   H1  H2  EPW O   H1  H2  EPW O   H1  H2  EPW O   H1  H2  EPW O   
H1  H2  EPW O   H1  H2  EPW O   H1  H2  EPW O   H1  H2  EPW O   H1  H2  EPW O   
H1  H2  EPW O   H1  H2  EPW O   H1  H2  EPW O   H1  H2  EPW O   H1  H2  EPW O   
H1  H2  EPW O   H1  H2  EPW O   H1  H2  EPW O   H1  H2  EPW O   H1  H2  EPW O   
H1  H2  EPW O   H1  H2  EPW O   H1  H2  EPW O   H1  H2  EPW O   H1  H2  EPW O   
H1  H2  EPW O   H1  H2  EPW O   H1  H2  EPW O   H1  H2  EPW O   H1  H2  EPW O   
H1  H2  EPW O   H1  H2  EPW O   H1  H2  EPW O   H1  H2  EPW O   H1  H2  EPW O   
H1  H2  EPW O   H1  H2  EPW O   H1  H2  EPW O   H1  H2  EPW O   H1  H2  EPW O   
H1  H2  EPW O   H1  H2  EPW O   H1  H2  EPW O   H1  H2  EPW O   H1  H2  EPW O   
H1  H2  EPW O   H1  H2  EPW O   H1  H2  EPW O   H1  H2  EPW O   H1  H2  EPW O   
H1  H2  EPW O   H1  H2  EPW O   H1  H2  EPW O   H1  H2  EPW O   H1  H2  EPW O   
H1  H2  EPW O   H1  H2  EPW O   H1  H2  EPW O   H1  H2  EPW O   H1  H2  EPW O   
H1  H2  EPW O   H1  H2  EPW O   H1  H2  EPW O   H1  H2  EPW O   H1  H2  EPW O   
H1  H2  EPW O   H1  H2  EPW O   H1  H2  EPW O   H1  H2  EPW O   H1  H2  EPW O   
H1  H2  EPW O   H1  H2  EPW O   H1  H2  EPW O   H1  H2  EPW O   H1  H2  EPW O   
H1  H2  EPW O   H1  H2  EPW O   H1  H2  EPW O   H1  H2  EPW O   H1  H2  EPW O   
H1  H2  EPW O   H1  H2  EPW O   H1  H2  EPW O   H1  H2  EPW O   H1  H2  EPW O   
H1  H2  EPW O   H1  H2  EPW O   H1  H2  EPW O   H1  H2  EPW O   H1  H2  EPW O   
H1  H2  EPW O   H1  H2  EPW O   H1  H2  EPW O   H1  H2  EPW O   H1  H2  EPW O   
H1  H2  EPW O   H1  H2  EPW O   H1  H2  EPW O   H1  H2  EPW O   H1  H2  EPW O   
H1  H2  EPW O   H1  H2  EPW O   H1  H2  EPW O   H1  H2  EPW O   H1  H2  EPW O   
H1  H2  EPW O   H1  H2  EPW O   H1  H2  EPW O   H1  H2  EPW O   H1  H2  EPW O   
H1  H2  EPW O   H1  H2  EPW O   H1  H2  EPW O   H1  H2  EPW O   H1  H2  EPW O   
H1  H2  EPW O   H1  H2  EPW O   H1  H2  EPW O   H1  H2  EPW O   H1  H2  EPW O   
H1  H2  EPW O   H1  H2  EPW O   H1  H2  EPW O   H1  H2  EPW O   H1  H2  EPW O   
H1  H2  EPW O   H1  H2  EPW O   H1  H2  EPW O   H1  H2  EPW O   H1  H2  EPW O   
H1  H2  EPW O   H1  H2  EPW O   H1  H2  EPW O   H1  H2  EPW O   H1  H2  EPW O   
H1  H2  EPW O   H1  H2  EPW O   H1  H2  EPW O   H1  H2  EPW O   H1  H2  EPW O   
H1  H2  EPW O   H1  H2  EPW O   H1  H2  EPW O   H1  H2  EPW O   H1  H2  EPW O   
H1  H2  EPW O   H1  H2  EPW O   H1  H2  EPW O   H1  H2  EPW O   H1  H2  EPW O   
H1  H2  EPW O   H1  H2  EPW O   H1  H2  EPW O   H1  H2  EPW O   H1  H2  EPW O   
H1  H2  EPW O   H1  H2  EPW O   H1  H2  EPW O   H1  H2  EPW O   H1  H2  EPW O   
H1  H2  EPW O   H1  H2  EPW O   H1  H2  EPW O   H1  H2  EPW O   H1  H2  EPW O   
H1  H2  EPW O   H1  H2  EPW O   H1  H2  EPW O   H1  H2  EPW O   H1  H2  EPW O   
H1  H2  EPW O   H1  H2  EPW O   H1  H2  EPW O   H1  H2  EPW O   H1  H2  EPW O   
H1  H2  EPW O   H1  H2  EPW O   H1  H2  EPW O   H1  H2  EPW O   H1  H2  EPW O   
H1  H2  EPW O   H1  H2  EPW O   H1  H2  EPW O   H1  H2  EPW O   H1  H2  EPW O   
H1  H2  EPW O   H1  H2  EPW O   H1  H2  EPW O   H1  H2  EPW O   H1  H2  EPW O   
H1  H2  EPW O   H1  H2  EPW O   H1  H2  EPW O   H1  H2  EPW O   H1  H2  EPW O   
H1  H2  EPW O   H1  H2  EPW O   H1  H2  EPW O   H1  H2  EPW O   H1  H2  EPW O   
H1  H2  EPW O   H1  H2  EPW O   H1  H2  EPW O   H1  H2  EPW O   H1  H2  EPW O   
H1  H2  EPW O   H1  H2  EPW O   H1  H2  EPW O   H1  H2  EPW O   H1  H2  EPW O   
H1  H2  EPW O   H1  H2  EPW O   H1  H2  EPW O   H1  H2  EPW O   H1  H2  EPW O   
H1  H2  EPW O   H1  H2  EPW O   H1  H2  EPW O   H1  H2  EPW O   H1  H2  EPW O   
H1  H2  EPW O   H1  H2  EPW O   H1  H2  EPW O   H1  H2  EPW O   H1  H2  EPW O   
H1  H2  EPW O   H1  H2  EPW O   H1  H2  EPW O   H1  H2  EPW O   H1  H2  EPW O   
H1  H2  EPW O   H1  H2  EPW O   H1  H2  EPW O   H1  H2  EPW O   H1  H2  EPW O   
H1  H2  EPW O   H1  H2  EPW O   H1  H2  EPW O   H1  H2  EPW O   H1  H2  EPW O   
H1  H2  EPW O   H1  H2  EPW O   H1  H2  EPW O   H1  H2  EPW O   H1  H2  EPW O   
H1  H2  EPW O   H1  H2  EPW O   H1  H2  EPW O   H1  H2  EPW O   H1  H2  EPW O   
H1  H2  EPW O   H1  H2  EPW O   H1  H2  EPW O   H1  H2  EPW O   H1  H2  EPW O   
H1  H2  EPW O   H1  H2  EPW O   H1  H2  EPW O   H1  H2  EPW O   H1  H2  EPW O   
H1  H2  EPW O   H1  H2  EPW O   H1  H2  EPW O   H1  H2  EPW O   H1  H2  EPW O   
H1  H2  EPW O   H1  H2  EPW O   H1  H2  EPW O   H1  H2  EPW O   H1  H2  EPW O   
H1  H2  EPW O   H1  H2  EPW O   H1  H2  EPW O   H1  H2  EPW O   H1  H2  EPW O   
H1  H2  EPW O   H1  H2  EPW O   H1  H2  EPW O   H1  H2  EPW O   H1  H2  EPW O   
H1  H2  EPW O   H1  H2  EPW O   H1  H2  EPW O   H1  H2  EPW O   H1  H2  EPW O   
H1  H2  EPW O   H1  H2  EPW O   H1  H2  EPW O   H1  H2  EPW O   H1  H2  EPW O   
H1  H2  EPW O   H1  H2  EPW O   H1  H2  EPW O   H1  H2  EPW O   H1  H2  EPW O   
H1  H2  EPW O   H1  H2  EPW O   H1  H2  EPW O   H1  H2  EPW O   H1  H2  EPW O   
H1  H2  EPW O   H1  H2  EPW O   H1  H2  EPW O   H1  H2  EPW O   H1  H2  EPW O   
H1  H2  EPW O   H1  H2  EPW O   H1  H2  EPW O   H1  H2  EPW O   H1  H2  EPW O   
H1  H2  EPW O   H1  H2  EPW O   H1  H2  EPW O   H1  H2  EPW O   H1  H2  EPW O   
H1  H2  EPW O   H1  H2  EPW O   H1  H2  EPW O   H1  H2  EPW O   H1  H2  EPW O   
H1  H2  EPW O   H1  H2  EPW O   H1  H2  EPW O   H1  H2  EPW O   H1  H2  EPW O   
H1  H2  EPW O   H1  H2  EPW O   H1  H2  EPW O   H1  H2  EPW O   H1  H2  EPW O   
H1  H2  EPW O   H1  H2  EPW O   H1  H2  EPW O   H1  H2  EPW O   H1  H2  EPW O   
H1  H2  EPW O   H1  H2  EPW O   H1  H2  EPW O   H1  H2  EPW O   H1  H2  EPW O   
H1  H2  EPW O   H1  H2  EPW O   H1  H2  EPW O   H1  H2  EPW O   H1  H2  EPW O   
H1  H2  EPW O   H1  H2  EPW O   H1  H2  EPW O   H1  H2  EPW O   H1  H2  EPW O   
H1  H2  EPW O   H1  H2  EPW O   H1  H2  EPW O   H1  H2  EPW O   H1  H2  EPW O   
H1  H2  EPW O   H1  H2  EPW O   H1  H2  EPW O   H1  H2  EPW O   H1  H2  EPW O   
H1  H2  EPW O   H1  H2  EPW O   H1  H2  EPW O   H1  H2  EPW O   H1  H2  EPW O   
H1  H2  EPW O   H1  H2  EPW O   H1  H2  EPW O   H1  H2  EPW O   H1  H2  EPW O   
H1  H2  EPW O   H1  H2  EPW O   H1  H2  EPW O   H1  H2  EPW O   H1  H2  EPW O   
H1  H2  EPW O   H1  H2  EPW O   H1  H2  EPW O   H1  H2  EPW O   H1  H2  EPW O   
H1  H2  EPW O   H1  H2  EPW O   H1  H2  EPW O   H1  H2  EPW O   H1  H2  EPW O   
H1  H2  EPW O   H1  H2  EPW O   H1  H2  EPW O   H1  H2  EPW O   H1  H2  EPW O   
H1  H2  EPW O   H1  H2  EPW O   H1  H2  EPW O   H1  H2  EPW O   H1  H2  EPW O   
H1  H2  EPW O   H1  H2  EPW O   H1  H2  EPW O   H1  H2  EPW O   H1  H2  EPW O   
H1  H2  EPW O   H1  H2  EPW O   H1  H2  EPW O   H1  H2  EPW O   H1  H2  EPW O   
H1  H2  EPW O   H1  H2  EPW O   H1  H2  EPW O   H1  H2  EPW O   H1  H2  EPW O   
H1  H2  EPW O   H1  H2  EPW O   H1  H2  EPW O   H1  H2  EPW O   H1  H2  EPW O   
H1  H2  EPW O   H1  H2  EPW O   H1  H2  EPW O   H1  H2  EPW O   H1  H2  EPW O   
H1  H2  EPW O   H1  H2  EPW O   H1  H2  EPW O   H1  H2  EPW O   H1  H2  EPW O   
H1  H2  EPW O   H1  H2  EPW O   H1  H2  EPW O   H1  H2  EPW O   H1  H2  EPW O   
H1  H2  EPW O   H1  H2  EPW O   H1  H2  EPW O   H1  H2  EPW O   H1  H2  EPW O   
H1  H2  EPW O   H1  H2  EPW O   H1  H2  EPW O   H1  H2  EPW O   H1  H2  EPW O   
H1  H2  EPW O   H1  H2  EPW O   H1  H2  EPW O   H1  H2  EPW O   H1  H2  EPW O   
H1  H2  EPW O   H1  H2  EPW O   H1  H2  EPW O   H1  H2  EPW O   H1  H2  EPW O   
H1  H2  EPW O   H1  H2  EPW O   H1  H2  EPW O   H1  H2  EPW O   H1  H2  EPW O   
H1  H2  EPW O   H1  H2  EPW O   H1  H2  EPW O   H1  H2  EPW O   H1  H2  EPW O   
H1  H2  EPW O   H1  H2  EPW O   H1  H2  EPW O   H1  H2  EPW O   H1  H2  EPW O   
H1  H2  EPW O   H1  H2  EPW O   H1  H2  EPW O   H1  H2  EPW O   H1  H2  EPW O   
H1  H2  EPW O   H1  H2  EPW O   H1  H2  EPW O   H1  H2  EPW O   H1  H2  EPW O   
H1  H2  EPW O   H1  H2  EPW O   H1  H2  EPW O   H1  H2  EPW O   H1  H2  EPW O   
H1  H2  EPW O   H1  H2  EPW O   H1  H2  EPW O   H1  H2  EPW O   H1  H2  EPW O   
H1  H2  EPW O   H1  H2  EPW O   H1  H2  EPW O   H1  H2  EPW O   H1  H2  EPW O   
H1  H2  EPW O   H1  H2  EPW O   H1  H2  EPW O   H1  H2  EPW O   H1  H2  EPW O   
H1  H2  EPW O   H1  H2  EPW O   H1  H2  EPW O   H1  H2  EPW O   H1  H2  EPW O   
H1  H2  EPW O   H1  H2  EPW O   H1  H2  EPW O   H1  H2  EPW O   H1  H2  EPW O   
H1  H2  EPW O   H1  H2  EPW O   H1  H2  EPW O   H1  H2  EPW O   H1  H2  EPW O   
H1  H2  EPW O   H1  H2  EPW O   H1  H2  EPW O   H1  H2  EPW O   H1  H2  EPW O   
H1  H2  EPW O   H1  H2  EPW O   H1  H2  EPW O   H1  H2  EPW O   H1  H2  EPW O   
H1  H2  EPW O   H1  H2  EPW O   H1  H2  EPW O   H1  H2  EPW O   H1  H2  EPW O   
H1  H2  EPW O   H1  H2  EPW O   H1  H2  EPW O   H1  H2  EPW O   H1  H2  EPW O   
H1  H2  EPW O   H1  H2  EPW O   H1  H2  EPW O   H1  H2  EPW O   H1  H2  EPW O   
H1  H2  EPW O   H1  H2  EPW O   H1  H2  EPW O   H1  H2  EPW O   H1  H2  EPW O   
H1  H2  EPW O   H1  H2  EPW O   H1  H2  EPW O   H1  H2  EPW O   H1  H2  EPW O   
H1  H2  EPW O   H1  H2  EPW O   H1  H2  EPW O   H1  H2  EPW O   H1  H2  EPW O   
H1  H2  EPW O   H1  H2  EPW O   H1  H2  EPW O   H1  H2  EPW O   H1  H2  EPW O   
H1  H2  EPW O   H1  H2  EPW O   H1  H2  EPW O   H1  H2  EPW O   H1  H2  EPW O   
H1  H2  EPW O   H1  H2  EPW O   H1  H2  EPW O   H1  H2  EPW O   H1  H2  EPW O   
H1  H2  EPW O   H1  H2  EPW O   H1  H2  EPW O   H1  H2  EPW O   H1  H2  EPW O   
H1  H2  EPW O   H1  H2  EPW O   H1  H2  EPW O   H1  H2  EPW O   H1  H2  EPW O   
H1  H2  EPW O   H1  H2  EPW O   H1  H2  EPW O   H1  H2  EPW O   H1  H2  EPW O   
H1  H2  EPW O   H1  H2  EPW O   H1  H2  EPW O   H1  H2  EPW O   H1  H2  EPW O   
H1  H2  EPW O   H1  H2  EPW O   H1  H2  EPW O   H1  H2  EPW O   H1  H2  EPW O   
H1  H2  EPW O   H1  H2  EPW O   H1  H2  EPW O   H1  H2  EPW O   H1  H2  EPW O   
H1  H2  EPW O   H1  H2  EPW O   H1  H2  EPW O   H1  H2  EPW O   H1  H2  EPW O   
H1  H2  EPW O   H1  H2  EPW O   H1  H2  EPW O   H1  H2  EPW O   H1  H2  EPW O   
H1  H2  EPW O   H1  H2  EPW O   H1  H2  EPW O   H1  H2  EPW O   H1  H2  EPW O   
H1  H2  EPW O   H1  H2  EPW O   H1  H2  EPW O   H1  H2  EPW O   H1  H2  EPW O   
H1  H2  EPW O   H1  H2  EPW O   H1  H2  EPW O   H1  H2  EPW O   H1  H2  EPW O   
H1  H2  EPW O   H1  H2  EPW O   H1  H2  EPW O   H1  H2  EPW O   H1  H2  EPW O   
H1  H2  EPW O   H1  H2  EPW O   H1  H2  EPW O   H1  H2  EPW O   H1  H2  EPW O   
H1  H2  EPW O   H1  H2  EPW O   H1  H2  EPW O   H1  H2  EPW O   H1  H2  EPW O   
H1  H2  EPW O   H1  H2  EPW O   H1  H2  EPW O   H1  H2  EPW O   H1  H2  EPW O   
H1  H2  EPW O   H1  H2  EPW O   H1  H2  EPW O   H1  H2  EPW O   H1  H2  EPW O   
H1  H2  EPW O   H1  H2  EPW O   H1  H2  EPW O   H1  H2  EPW O   H1  H2  EPW O   
H1  H2  EPW O   H1  H2  EPW O   H1  H2  EPW O   H1  H2  EPW O   H1  H2  EPW O   
H1  H2  EPW O   H1  H2  EPW O   H1  H2  EPW O   H1  H2  EPW O   H1  H2  EPW O   
H1  H2  EPW O   H1  H2  EPW O   H1  H2  EPW O   H1  H2  EPW O   H1  H2  EPW O   
H1  H2  EPW O   H1  H2  EPW O   H1  H2  EPW O   H1  H2  EPW O   H1  H2  EPW O   
H1  H2  EPW O   H1  H2  EPW O   H1  H2  EPW O   H1  H2  EPW O   H1  H2  EPW O   
H1  H2  EPW O   H1  H2  EPW O   H1  H2  EPW O   H1  H2  EPW O   H1  H2  EPW O   
H1  H2  EPW O   H1  H2  EPW O   H1  H2  EPW O   H1  H2  EPW O   H1  H2  EPW O   
H1  H2  EPW O   H1  H2  EPW O   H1  H2  EPW O   H1  H2  EPW O   H1  H2  EPW O   
H1  H2  EPW O   H1  H2  EPW O   H1  H2  EPW O   H1  H2  EPW O   H1  H2  EPW O   
H1  H2  EPW O   H1  H2  EPW O   H1  H2  EPW O   H1  H2  EPW O   H1  H2  EPW O   
H1  H2  EPW O   H1  H2  EPW O   H1  H2  EPW O   H1  H2  EPW O   H1  H2  EPW O   
H1  H2  EPW O   H1  H2  EPW O   H1  H2  EPW O   H1  H2  EPW O   H1  H2  EPW O   
H1  H2  EPW O   H1  H2  EPW O   H1  H2  EPW O   H1  H2  EPW O   H1  H2  EPW O   
H1  H2  EPW O   H1  H2  EPW O   H1  H2  EPW O   H1  H2  EPW O   H1  H2  EPW O   
H1  H2  EPW O   H1  H2  EPW O   H1  H2  EPW O   H1  H2  EPW O   H1  H2  EPW O   
H1  H2  EPW O   H1  H2  EPW O   H1  H2  EPW O   H1  H2  EPW O   H1  H2  EPW O   
H1  H2  EPW O   H1  H2  EPW O   H1  H2  EPW O   H1  H2  EPW O   H1  H2  EPW O   
H1  H2  EPW O   H1  H2  EPW O   H1  H2  EPW O   H1  H2  EPW O   H1  H2  EPW O   
H1  H2  EPW O   H1  H2  EPW O   H1  H2  EPW O   H1  H2  EPW O   H1  H2  EPW O   
H1  H2  EPW O   H1  H2  EPW O   H1  H2  EPW O   H1  H2  EPW O   H1  H2  EPW O   
H1  H2  EPW O   H1  H2  EPW O   H1  H2  EPW O   H1  H2  EPW O   H1  H2  EPW O   
H1  H2  EPW O   H1  H2  EPW O   H1  H2  EPW O   H1  H2  EPW O   H1  H2  EPW O   
H1  H2  EPW O   H1  H2  EPW O   H1  H2  EPW O   H1  H2  EPW O   H1  H2  EPW O   
H1  H2  EPW O   H1  H2  EPW O   H1  H2  EPW O   H1  H2  EPW O   H1  H2  EPW O   
H1  H2  EPW O   H1  H2  EPW O   H1  H2  EPW O   H1  H2  EPW O   H1  H2  EPW O   
H1  H2  EPW O   H1  H2  EPW O   H1  H2  EPW O   H1  H2  EPW O   H1  H2  EPW O   
H1  H2  EPW O   H1  H2  EPW O   H1  H2  EPW O   H1  H2  EPW O   H1  H2  EPW O   
H1  H2  EPW O   H1  H2  EPW O   H1  H2  EPW O   H1  H2  EPW O   H1  H2  EPW O   
H1  H2  EPW O   H1  H2  EPW O   H1  H2  EPW O   H1  H2  EPW O   H1  H2  EPW O   
H1  H2  EPW O   H1  H2  EPW O   H1  H2  EPW O   H1  H2  EPW O   H1  H2  EPW O   
H1  H2  EPW O   H1  H2  EPW O   H1  H2  EPW O   H1  H2  EPW O   H1  H2  EPW O   
H1  H2  EPW O   H1  H2  EPW O   H1  H2  EPW O   H1  H2  EPW O   H1  H2  EPW O   
H1  H2  EPW O   H1  H2  EPW O   H1  H2  EPW O   H1  H2  EPW O   H1  H2  EPW O   
H1  H2  EPW O   H1  H2  EPW O   H1  H2  EPW O   H1  H2  EPW O   H1  H2  EPW O   
H1  H2  EPW O   H1  H2  EPW O   H1  H2  EPW O   H1  H2  EPW O   H1  H2  EPW O   
H1  H2  EPW O   H1  H2  EPW O   H1  H2  EPW O   H1  H2  EPW O   H1  H2  EPW O   
H1  H2  EPW O   H1  H2  EPW O   H1  H2  EPW O   H1  H2  EPW O   H1  H2  EPW O   
H1  H2  EPW O   H1  H2  EPW O   H1  H2  EPW O   H1  H2  EPW O   H1  H2  EPW O   
H1  H2  EPW O   H1  H2  EPW O   H1  H2  EPW O   H1  H2  EPW O   H1  H2  EPW O   
H1  H2  EPW O   H1  H2  EPW O   H1  H2  EPW O   H1  H2  EPW O   H1  H2  EPW O   
H1  H2  EPW O   H1  H2  EPW O   H1  H2  EPW O   H1  H2  EPW O   H1  H2  EPW O   
H1  H2  EPW O   H1  H2  EPW O   H1  H2  EPW O   H1  H2  EPW O   H1  H2  EPW O   
H1  H2  EPW O   H1  H2  EPW O   H1  H2  EPW O   H1  H2  EPW O   H1  H2  EPW O   
H1  H2  EPW O   H1  H2  EPW O   H1  H2  EPW O   H1  H2  EPW O   H1  H2  EPW O   
H1  H2  EPW O   H1  H2  EPW O   H1  H2  EPW O   H1  H2  EPW O   H1  H2  EPW O   
H1  H2  EPW O   H1  H2  EPW O   H1  H2  EPW O   H1  H2  EPW O   H1  H2  EPW O   
H1  H2  EPW O   H1  H2  EPW O   H1  H2  EPW O   H1  H2  EPW O   H1  H2  EPW O   
H1  H2  EPW O   H1  H2  EPW O   H1  H2  EPW O   H1  H2  EPW O   H1  H2  EPW O   
H1  H2  EPW O   H1  H2  EPW O   H1  H2  EPW O   H1  H2  EPW O   H1  H2  EPW O   
H1  H2  EPW O   H1  H2  EPW O   H1  H2  EPW O   H1  H2  EPW O   H1  H2  EPW O   
H1  H2  EPW O   H1  H2  EPW O   H1  H2  EPW O   H1  H2  EPW O   H1  H2  EPW O   
H1  H2  EPW O   H1  H2  EPW O   H1  H2  EPW O   H1  H2  EPW O   H1  H2  EPW O   
H1  H2  EPW O   H1  H2  EPW O   H1  H2  EPW O   H1  H2  EPW O   H1  H2  EPW O   
H1  H2  EPW O   H1  H2  EPW O   H1  H2  EPW O   H1  H2  EPW O   H1  H2  EPW O   
H1  H2  EPW O   H1  H2  EPW O   H1  H2  EPW O   H1  H2  EPW O   H1  H2  EPW O   
H1  H2  EPW O   H1  H2  EPW O   H1  H2  EPW O   H1  H2  EPW O   H1  H2  EPW O   
H1  H2  EPW O   H1  H2  EPW O   H1  H2  EPW O   H1  H2  EPW O   H1  H2  EPW O   
H1  H2  EPW O   H1  H2  EPW O   H1  H2  EPW O   H1  H2  EPW O   H1  H2  EPW O   
H1  H2  EPW O   H1  H2  EPW O   H1  H2  EPW O   H1  H2  EPW O   H1  H2  EPW O   
H1  H2  EPW O   H1  H2  EPW O   H1  H2  EPW O   H1  H2  EPW O   H1  H2  EPW O   
H1  H2  EPW O   H1  H2  EPW O   H1  H2  EPW O   H1  H2  EPW O   H1  H2  EPW O   
H1  H2  EPW O   H1  H2  EPW O   H1  H2  EPW O   H1  H2  EPW O   H1  H2  EPW O   
H1  H2  EPW O   H1  H2  EPW O   H1  H2  EPW O   H1  H2  EPW O   H1  H2  EPW O   
H1  H2  EPW O   H1  H2  EPW O   H1  H2  EPW O   H1  H2  EPW O   H1  H2  EPW O   
H1  H2  EPW O   H1  H2  EPW O   H1  H2  EPW O   H1  H2  EPW O   H1  H2  EPW O   
H1  H2  EPW O   H1  H2  EPW O   H1  H2  EPW O   H1  H2  EPW O   H1  H2  EPW O   
H1  H2  EPW O   H1  H2  EPW O   H1  H2  EPW O   H1  H2  EPW O   H1  H2  EPW O   
H1  H2  EPW O   H1  H2  EPW O   H1  H2  EPW O   H1  H2  EPW O   H1  H2  EPW O   
H1  H2  EPW O   H1  H2  EPW O   H1  H2  EPW O   H1  H2  EPW O   H1  H2  EPW O   
H1  H2  EPW O   H1  H2  EPW O   H1  H2  EPW O   H1  H2  EPW O   H1  H2  EPW O   
H1  H2  EPW O   H1  H2  EPW O   H1  H2  EPW O   H1  H2  EPW O   H1  H2  EPW O   
H1  H2  EPW O   H1  H2  EPW O   H1  H2  EPW O   H1  H2  EPW O   H1  H2  EPW O   
H1  H2  EPW O   H1  H2  EPW O   H1  H2  EPW O   H1  H2  EPW O   H1  H2  EPW O   
H1  H2  EPW O   H1  H2  EPW O   H1  H2  EPW O   H1  H2  EPW O   H1  H2  EPW O   
H1  H2  EPW O   H1  H2  EPW O   H1  H2  EPW O   H1  H2  EPW O   H1  H2  EPW O   
H1  H2  EPW O   H1  H2  EPW O   H1  H2  EPW O   H1  H2  EPW O   H1  H2  EPW O   
H1  H2  EPW O   H1  H2  EPW O   H1  H2  EPW O   H1  H2  EPW O   H1  H2  EPW O   
H1  H2  EPW O   H1  H2  EPW O   H1  H2  EPW O   H1  H2  EPW O   H1  H2  EPW O   
H1  H2  EPW O   H1  H2  EPW O   H1  H2  EPW O   H1  H2  EPW O   H1  H2  EPW O   
H1  H2  EPW O   H1  H2  EPW O   H1  H2  EPW O   H1  H2  EPW O   H1  H2  EPW O   
H1  H2  EPW O   H1  H2  EPW O   H1  H2  EPW O   H1  H2  EPW O   H1  H2  EPW O   
H1  H2  EPW O   H1  H2  EPW O   H1  H2  EPW O   H1  H2  EPW O   H1  H2  EPW O   
H1  H2  EPW O   H1  H2  EPW O   H1  H2  EPW O   H1  H2  EPW O   H1  H2  EPW O   
H1  H2  EPW O   H1  H2  EPW O   H1  H2  EPW O   H1  H2  EPW O   H1  H2  EPW O   
H1  H2  EPW O   H1  H2  EPW O   H1  H2  EPW O   H1  H2  EPW O   H1  H2  EPW O   
H1  H2  EPW O   H1  H2  EPW O   H1  H2  EPW O   H1  H2  EPW O   H1  H2  EPW O   
H1  H2  EPW O   H1  H2  EPW O   H1  H2  EPW O   H1  H2  EPW O   H1  H2  EPW O   
H1  H2  EPW O   H1  H2  EPW O   H1  H2  EPW O   H1  H2  EPW O   H1  H2  EPW O   
H1  H2  EPW O   H1  H2  EPW O   H1  H2  EPW O   H1  H2  EPW O   H1  H2  EPW O   
H1  H2  EPW O   H1  H2  EPW O   H1  H2  EPW O   H1  H2  EPW O   H1  H2  EPW O   
H1  H2  EPW O   H1  H2  EPW O   H1  H2  EPW O   H1  H2  EPW O   H1  H2  EPW O   
H1  H2  EPW O   H1  H2  EPW O   H1  H2  EPW O   H1  H2  EPW O   H1  H2  EPW O   
H1  H2  EPW O   H1  H2  EPW O   H1  H2  EPW O   H1  H2  EPW O   H1  H2  EPW O   
H1  H2  EPW O   H1  H2  EPW O   H1  H2  EPW O   H1  H2  EPW O   H1  H2  EPW O   
H1  H2  EPW O   H1  H2  EPW O   H1  H2  EPW O   H1  H2  EPW O   H1  H2  EPW O   
H1  H2  EPW O   H1  H2  EPW O   H1  H2  EPW O   H1  H2  EPW O   H1  H2  EPW O   
H1  H2  EPW O   H1  H2  EPW O   H1  H2  EPW O   H1  H2  EPW O   H1  H2  EPW O   
H1  H2  EPW O   H1  H2  EPW O   H1  H2  EPW O   H1  H2  EPW O   H1  H2  EPW O   
H1  H2  EPW O   H1  H2  EPW O   H1  H2  EPW O   H1  H2  EPW O   H1  H2  EPW O   
H1  H2  EPW O   H1  H2  EPW O   H1  H2  EPW O   H1  H2  EPW O   H1  H2  EPW O   
H1  H2  EPW O   H1  H2  EPW O   H1  H2  EPW O   H1  H2  EPW O   H1  H2  EPW O   
H1  H2  EPW O   H1  H2  EPW O   H1  H2  EPW O   H1  H2  EPW O   H1  H2  EPW O   
H1  H2  EPW O   H1  H2  EPW O   H1  H2  EPW O   H1  H2  EPW O   H1  H2  EPW O   
H1  H2  EPW O   H1  H2  EPW O   H1  H2  EPW O   H1  H2  EPW O   H1  H2  EPW O   
H1  H2  EPW O   H1  H2  EPW O   H1  H2  EPW O   H1  H2  EPW O   H1  H2  EPW O   
H1  H2  EPW O   H1  H2  EPW O   H1  H2  EPW O   H1  H2  EPW O   H1  H2  EPW O   
H1  H2  EPW O   H1  H2  EPW O   H1  H2  EPW O   H1  H2  EPW O   H1  H2  EPW O   
H1  H2  EPW O   H1  H2  EPW O   H1  H2  EPW O   H1  H2  EPW O   H1  H2  EPW O   
H1  H2  EPW O   H1  H2  EPW O   H1  H2  EPW O   H1  H2  EPW O   H1  H2  EPW O   
H1  H2  EPW O   H1  H2  EPW O   H1  H2  EPW O   H1  H2  EPW O   H1  H2  EPW O   
H1  H2  EPW O   H1  H2  EPW O   H1  H2  EPW O   H1  H2  EPW O   H1  H2  EPW O   
H1  H2  EPW O   H1  H2  EPW O   H1  H2  EPW O   H1  H2  EPW O   H1  H2  EPW O   
H1  H2  EPW O   H1  H2  EPW O   H1  H2  EPW O   H1  H2  EPW O   H1  H2  EPW O   
H1  H2  EPW O   H1  H2  EPW O   H1  H2  EPW O   H1  H2  EPW O   H1  H2  EPW O   
H1  H2  EPW O   H1  H2  EPW O   H1  H2  EPW O   H1  H2  EPW O   H1  H2  EPW O   
H1  H2  EPW O   H1  H2  EPW O   H1  H2  EPW O   H1  H2  EPW O   H1  H2  EPW O   
H1  H2  EPW O   H1  H2  EPW O   H1  H2  EPW O   H1  H2  EPW O   H1  H2  EPW O   
H1  H2  EPW O   H1  H2  EPW O   H1  H2  EPW O   H1  H2  EPW O   H1  H2  EPW O   
H1  H2  EPW O   H1  H2  EPW O   H1  H2  EPW O   H1  H2  EPW O   H1  H2  EPW O   
H1  H2  EPW O   H1  H2  EPW O   H1  H2  EPW O   H1  H2  EPW O   H1  H2  EPW O   
H1  H2  EPW O   H1  H2  EPW O   H1  H2  EPW O   H1  H2  EPW O   H1  H2  EPW O   
H1  H2  EPW O   H1  H2  EPW O   H1  H2  EPW O   H1  H2  EPW O   H1  H2  EPW O   
H1  H2  EPW O   H1  H2  EPW O   H1  H2  EPW O   H1  H2  EPW O   H1  H2  EPW O   
H1  H2  EPW O   H1  H2  EPW O   H1  H2  EPW O   H1  H2  EPW O   H1  H2  EPW O   
H1  H2  EPW O   H1  H2  EPW O   H1  H2  EPW O   H1  H2  EPW O   H1  H2  EPW O   
H1  H2  EPW O   H1  H2  EPW O   H1  H2  EPW O   H1  H2  EPW O   H1  H2  EPW O   
H1  H2  EPW O   H1  H2  EPW O   H1  H2  EPW O   H1  H2  EPW O   H1  H2  EPW O   
H1  H2  EPW O   H1  H2  EPW O   H1  H2  EPW O   H1  H2  EPW O   H1  H2  EPW O   
H1  H2  EPW O   H1  H2  EPW O   H1  H2  EPW O   H1  H2  EPW O   H1  H2  EPW O   
H1  H2  EPW O   H1  H2  EPW O   H1  H2  EPW O   H1  H2  EPW O   H1  H2  EPW O   
H1  H2  EPW O   H1  H2  EPW O   H1  H2  EPW O   H1  H2  EPW O   H1  H2  EPW O   
H1  H2  EPW O   H1  H2  EPW O   H1  H2  EPW O   H1  H2  EPW O   H1  H2  EPW O   
H1  H2  EPW O   H1  H2  EPW O   H1  H2  EPW O   H1  H2  EPW O   H1  H2  EPW O   
H1  H2  EPW O   H1  H2  EPW O   H1  H2  EPW O   H1  H2  EPW O   H1  H2  EPW O   
H1  H2  EPW O   H1  H2  EPW O   H1  H2  EPW O   H1  H2  EPW O   H1  H2  EPW O   
H1  H2  EPW O   H1  H2  EPW O   H1  H2  EPW O   H1  H2  EPW O   H1  H2  EPW O   
H1  H2  EPW O   H1  H2  EPW O   H1  H2  EPW O   H1  H2  EPW O   H1  H2  EPW O   
H1  H2  EPW O   H1  H2  EPW O   H1  H2  EPW O   H1  H2  EPW O   H1  H2  EPW O   
H1  H2  EPW O   H1  H2  EPW O   H1  H2  EPW O   H1  H2  EPW O   H1  H2  EPW O   
H1  H2  EPW O   H1  H2  EPW O   H1  H2  EPW O   H1  H2  EPW O   H1  H2  EPW O   
H1  H2  EPW O   H1  H2  EPW O   H1  H2  EPW O   H1  H2  EPW O   H1  H2  EPW O   
H1  H2  EPW O   H1  H2  EPW O   H1  H2  EPW O   H1  H2  EPW O   H1  H2  EPW O   
H1  H2  EPW O   H1  H2  EPW O   H1  H2  EPW O   H1  H2  EPW O   H1  H2  EPW O   
H1  H2  EPW O   H1  H2  EPW O   H1  H2  EPW O   H1  H2  EPW O   H1  H2  EPW O   
H1  H2  EPW O   H1  H2  EPW O   H1  H2  EPW O   H1  H2  EPW O   H1  H2  EPW O   
H1  H2  EPW O   H1  H2  EPW O   H1  H2  EPW O   H1  H2  EPW O   H1  H2  EPW O   
H1  H2  EPW O   H1  H2  EPW O   H1  H2  EPW O   H1  H2  EPW O   H1  H2  EPW O   
H1  H2  EPW O   H1  H2  EPW O   H1  H2  EPW O   H1  H2  EPW O   H1  H2  EPW O   
H1  H2  EPW O   H1  H2  EPW O   H1  H2  EPW O   H1  H2  EPW O   H1  H2  EPW O   
H1  H2  EPW O   H1  H2  EPW O   H1  H2  EPW O   H1  H2  EPW O   H1  H2  EPW O   
H1  H2  EPW O   H1  H2  EPW O   H1  H2  EPW O   H1  H2  EPW O   H1  H2  EPW O   
H1  H2  EPW O   H1  H2  EPW O   H1  H2  EPW O   H1  H2  EPW O   H1  H2  EPW O   
H1  H2  EPW O   H1  H2  EPW O   H1  H2  EPW O   H1  H2  EPW O   H1  H2  EPW O   
H1  H2  EPW O   H1  H2  EPW O   H1  H2  EPW O   H1  H2  EPW O   H1  H2  EPW O   
H1  H2  EPW O   H1  H2  EPW O   H1  H2  EPW O   H1  H2  EPW O   H1  H2  EPW O   
H1  H2  EPW O   H1  H2  EPW O   H1  H2  EPW O   H1  H2  EPW O   H1  H2  EPW O   
H1  H2  EPW O   H1  H2  EPW O   H1  H2  EPW O   H1  H2  EPW O   H1  H2  EPW O   
H1  H2  EPW O   H1  H2  EPW O   H1  H2  EPW O   H1  H2  EPW O   H1  H2  EPW O   
H1  H2  EPW O   H1  H2  EPW O   H1  H2  EPW O   H1  H2  EPW O   H1  H2  EPW O   
H1  H2  EPW O   H1  H2  EPW O   H1  H2  EPW O   H1  H2  EPW O   H1  H2  EPW O   
H1  H2  EPW O   H1  H2  EPW O   H1  H2  EPW O   H1  H2  EPW O   H1  H2  EPW O   
H1  H2  EPW O   H1  H2  EPW O   H1  H2  EPW O   H1  H2  EPW O   H1  H2  EPW O   
H1  H2  EPW O   H1  H2  EPW O   H1  H2  EPW O   H1  H2  EPW O   H1  H2  EPW O   
H1  H2  EPW O   H1  H2  EPW O   H1  H2  EPW O   H1  H2  EPW O   H1  H2  EPW O   
H1  H2  EPW O   H1  H2  EPW O   H1  H2  EPW O   H1  H2  EPW O   H1  H2  EPW O   
H1  H2  EPW O   H1  H2  EPW O   H1  H2  EPW O   H1  H2  EPW O   H1  H2  EPW O   
H1  H2  EPW O   H1  H2  EPW O   H1  H2  EPW O   H1  H2  EPW O   H1  H2  EPW O   
H1  H2  EPW O   H1  H2  EPW O   H1  H2  EPW O   H1  H2  EPW O   H1  H2  EPW O   
H1  H2  EPW O   H1  H2  EPW O   H1  H2  EPW O   H1  H2  EPW O   H1  H2  EPW O   
H1  H2  EPW O   H1  H2  EPW O   H1  H2  EPW O   H1  H2  EPW O   H1  H2  EPW O   
H1  H2  EPW O   H1  H2  EPW O   H1  H2  EPW O   H1  H2  EPW O   H1  H2  EPW O   
H1  H2  EPW O   H1  H2  EPW O   H1  H2  EPW O   H1  H2  EPW O   H1  H2  EPW O   
H1  H2  EPW O   H1  H2  EPW O   H1  H2  EPW O   H1  H2  EPW O   H1  H2  EPW O   
H1  H2  EPW O   H1  H2  EPW O   H1  H2  EPW O   H1  H2  EPW O   H1  H2  EPW O   
H1  H2  EPW O   H1  H2  EPW O   H1  H2  EPW O   H1  H2  EPW O   H1  H2  EPW O   
H1  H2  EPW O   H1  H2  EPW O   H1  H2  EPW O   H1  H2  EPW O   H1  H2  EPW O   
H1  H2  EPW O   H1  H2  EPW O   H1  H2  EPW O   H1  H2  EPW O   H1  H2  EPW O   
H1  H2  EPW O   H1  H2  EPW O   H1  H2  EPW O   H1  H2  EPW O   H1  H2  EPW O   
H1  H2  EPW O   H1  H2  EPW O   H1  H2  EPW O   H1  H2  EPW O   H1  H2  EPW O   
H1  H2  EPW O   H1  H2  EPW O   H1  H2  EPW O   H1  H2  EPW O   H1  H2  EPW O   
H1  H2  EPW O   H1  H2  EPW O   H1  H2  EPW O   H1  H2  EPW O   H1  H2  EPW O   
H1  H2  EPW O   H1  H2  EPW O   H1  H2  EPW O   H1  H2  EPW O   H1  H2  EPW O   
H1  H2  EPW O   H1  H2  EPW O   H1  H2  EPW O   H1  H2  EPW O   H1  H2  EPW O   
H1  H2  EPW O   H1  H2  EPW O   H1  H2  EPW O   H1  H2  EPW O   H1  H2  EPW O   
H1  H2  EPW O   H1  H2  EPW O   H1  H2  EPW O   H1  H2  EPW O   H1  H2  EPW O   
H1  H2  EPW O   H1  H2  EPW O   H1  H2  EPW O   H1  H2  EPW O   H1  H2  EPW O   
H1  H2  EPW O   H1  H2  EPW O   H1  H2  EPW O   H1  H2  EPW O   H1  H2  EPW O   
H1  H2  EPW O   H1  H2  EPW O   H1  H2  EPW O   H1  H2  EPW O   H1  H2  EPW O   
H1  H2  EPW O   H1  H2  EPW O   H1  H2  EPW O   H1  H2  EPW O   H1  H2  EPW O   
H1  H2  EPW O   H1  H2  EPW O   H1  H2  EPW O   H1  H2  EPW O   H1  H2  EPW O   
H1  H2  EPW O   H1  H2  EPW O   H1  H2  EPW O   H1  H2  EPW O   H1  H2  EPW O   
H1  H2  EPW O   H1  H2  EPW O   H1  H2  EPW O   H1  H2  EPW O   H1  H2  EPW O   
H1  H2  EPW O   H1  H2  EPW O   H1  H2  EPW O   H1  H2  EPW O   H1  H2  EPW O   
H1  H2  EPW O   H1  H2  EPW O   H1  H2  EPW O   H1  H2  EPW O   H1  H2  EPW O   
H1  H2  EPW O   H1  H2  EPW O   H1  H2  EPW O   H1  H2  EPW O   H1  H2  EPW O   
H1  H2  EPW O   H1  H2  EPW O   H1  H2  EPW O   H1  H2  EPW O   H1  H2  EPW O   
H1  H2  EPW O   H1  H2  EPW O   H1  H2  EPW O   H1  H2  EPW O   H1  H2  EPW O   
H1  H2  EPW O   H1  H2  EPW O   H1  H2  EPW O   H1  H2  EPW O   H1  H2  EPW O   
H1  H2  EPW O   H1  H2  EPW O   H1  H2  EPW O   H1  H2  EPW O   H1  H2  EPW O   
H1  H2  EPW O   H1  H2  EPW O   H1  H2  EPW O   H1  H2  EPW O   H1  H2  EPW O   
H1  H2  EPW O   H1  H2  EPW O   H1  H2  EPW O   H1  H2  EPW O   H1  H2  EPW O   
H1  H2  EPW O   H1  H2  EPW O   H1  H2  EPW O   H1  H2  EPW O   H1  H2  EPW O   
H1  H2  EPW O   H1  H2  EPW O   H1  H2  EPW O   H1  H2  EPW O   H1  H2  EPW O   
H1  H2  EPW O   H1  H2  EPW O   H1  H2  EPW O   H1  H2  EPW O   H1  H2  EPW O   
H1  H2  EPW O   H1  H2  EPW O   H1  H2  EPW O   H1  H2  EPW O   H1  H2  EPW O   
H1  H2  EPW O   H1  H2  EPW O   H1  H2  EPW O   H1  H2  EPW O   H1  H2  EPW O   
H1  H2  EPW O   H1  H2  EPW O   H1  H2  EPW O   H1  H2  EPW O   H1  H2  EPW O   
H1  H2  EPW O   H1  H2  EPW O   H1  H2  EPW O   H1  H2  EPW O   H1  H2  EPW O   
H1  H2  EPW O   H1  H2  EPW O   H1  H2  EPW O   H1  H2  EPW O   H1  H2  EPW O   
H1  H2  EPW O   H1  H2  EPW O   H1  H2  EPW O   H1  H2  EPW O   H1  H2  EPW O   
H1  H2  EPW O   H1  H2  EPW O   H1  H2  EPW O   H1  H2  EPW O   H1  H2  EPW O   
H1  H2  EPW O   H1  H2  EPW O   H1  H2  EPW O   H1  H2  EPW O   H1  H2  EPW O   
H1  H2  EPW O   H1  H2  EPW O   H1  H2  EPW O   H1  H2  EPW O   H1  H2  EPW O   
H1  H2  EPW O   H1  H2  EPW O   H1  H2  EPW O   H1  H2  EPW O   H1  H2  EPW O   
H1  H2  EPW O   H1  H2  EPW O   H1  H2  EPW O   H1  H2  EPW O   H1  H2  EPW O   
H1  H2  EPW O   H1  H2  EPW O   H1  H2  EPW O   H1  H2  EPW O   H1  H2  EPW O   
H1  H2  EPW O   H1  H2  EPW O   H1  H2  EPW O   H1  H2  EPW O   H1  H2  EPW O   
H1  H2  EPW O   H1  H2  EPW O   H1  H2  EPW O   H1  H2  EPW O   H1  H2  EPW O   
H1  H2  EPW O   H1  H2  EPW O   H1  H2  EPW O   H1  H2  EPW O   H1  H2  EPW O   
H1  H2  EPW O   H1  H2  EPW O   H1  H2  EPW O   H1  H2  EPW O   H1  H2  EPW O   
H1  H2  EPW O   H1  H2  EPW O   H1  H2  EPW O   H1  H2  EPW O   H1  H2  EPW O   
H1  H2  EPW O   H1  H2  EPW O   H1  H2  EPW O   H1  H2  EPW O   H1  H2  EPW O   
H1  H2  EPW O   H1  H2  EPW O   H1  H2  EPW O   H1  H2  EPW O   H1  H2  EPW O   
H1  H2  EPW O   H1  H2  EPW O   H1  H2  EPW O   H1  H2  EPW O   H1  H2  EPW O   
H1  H2  EPW O   H1  H2  EPW O   H1  H2  EPW O   H1  H2  EPW O   H1  H2  EPW O   
H1  H2  EPW O   H1  H2  EPW O   H1  H2  EPW O   H1  H2  EPW O   H1  H2  EPW O   
H1  H2  EPW O   H1  H2  EPW O   H1  H2  EPW O   H1  H2  EPW O   H1  H2  EPW O   
H1  H2  EPW O   H1  H2  EPW O   H1  H2  EPW O   H1  H2  EPW O   H1  H2  EPW O   
H1  H2  EPW O   H1  H2  EPW O   H1  H2  EPW O   H1  H2  EPW O   H1  H2  EPW O   
H1  H2  EPW O   H1  H2  EPW O   H1  H2  EPW O   H1  H2  EPW O   H1  H2  EPW O   
H1  H2  EPW O   H1  H2  EPW O   H1  H2  EPW O   H1  H2  EPW O   H1  H2  EPW O   
H1  H2  EPW O   H1  H2  EPW O   H1  H2  EPW O   H1  H2  EPW O   H1  H2  EPW O   
H1  H2  EPW O   H1  H2  EPW O   H1  H2  EPW O   H1  H2  EPW O   H1  H2  EPW O   
H1  H2  EPW O   H1  H2  EPW O   H1  H2  EPW O   H1  H2  EPW O   H1  H2  EPW O   
H1  H2  EPW O   H1  H2  EPW O   H1  H2  EPW O   H1  H2  EPW O   H1  H2  EPW O   
H1  H2  EPW O   H1  H2  EPW O   H1  H2  EPW O   H1  H2  EPW O   H1  H2  EPW O   
H1  H2  EPW O   H1  H2  EPW O   H1  H2  EPW O   H1  H2  EPW O   H1  H2  EPW O   
H1  H2  EPW O   H1  H2  EPW O   H1  H2  EPW O   H1  H2  EPW O   H1  H2  EPW O   
H1  H2  EPW O   H1  H2  EPW O   H1  H2  EPW O   H1  H2  EPW O   H1  H2  EPW O   
H1  H2  EPW O   H1  H2  EPW O   H1  H2  EPW O   H1  H2  EPW O   H1  H2  EPW O   
H1  H2  EPW O   H1  H2  EPW O   H1  H2  EPW O   H1  H2  EPW O   H1  H2  EPW O   
H1  H2  EPW O   H1  H2  EPW O   H1  H2  EPW O   H1  H2  EPW O   H1  H2  EPW O   
H1  H2  EPW O   H1  H2  EPW O   H1  H2  EPW O   H1  H2  EPW O   H1  H2  EPW O   
H1  H2  EPW O   H1  H2  EPW O   H1  H2  EPW O   H1  H2  EPW O   H1  H2  EPW O   
H1  H2  EPW O   H1  H2  EPW O   H1  H2  EPW O   H1  H2  EPW O   H1  H2  EPW O   
H1  H2  EPW O   H1  H2  EPW O   H1  H2  EPW O   H1  H2  EPW O   H1  H2  EPW O   
H1  H2  EPW O   H1  H2  EPW O   H1  H2  EPW O   H1  H2  EPW O   H1  H2  EPW O   
H1  H2  EPW O   H1  H2  EPW O   H1  H2  EPW O   H1  H2  EPW O   H1  H2  EPW O   
H1  H2  EPW O   H1  H2  EPW O   H1  H2  EPW O   H1  H2  EPW O   H1  H2  EPW O   
H1  H2  EPW O   H1  H2  EPW O   H1  H2  EPW O   H1  H2  EPW O   H1  H2  EPW O   
H1  H2  EPW O   H1  H2  EPW O   H1  H2  EPW O   H1  H2  EPW O   H1  H2  EPW O   
H1  H2  EPW O   H1  H2  EPW O   H1  H2  EPW O   H1  H2  EPW O   H1  H2  EPW O   
H1  H2  EPW O   H1  H2  EPW O   H1  H2  EPW O   H1  H2  EPW O   H1  H2  EPW O   
H1  H2  EPW O   H1  H2  EPW O   H1  H2  EPW O   H1  H2  EPW O   H1  H2  EPW O   
H1  H2  EPW O   H1  H2  EPW O   H1  H2  EPW O   H1  H2  EPW O   H1  H2  EPW O   
H1  H2  EPW O   H1  H2  EPW O   H1  H2  EPW O   H1  H2  EPW O   H1  H2  EPW O   
H1  H2  EPW O   H1  H2  EPW O   H1  H2  EPW O   H1  H2  EPW O   H1  H2  EPW O   
H1  H2  EPW O   H1  H2  EPW O   H1  H2  EPW O   H1  H2  EPW O   H1  H2  EPW O   
H1  H2  EPW O   H1  H2  EPW O   H1  H2  EPW O   H1  H2  EPW O   H1  H2  EPW O   
H1  H2  EPW O   H1  H2  EPW O   H1  H2  EPW O   H1  H2  EPW O   H1  H2  EPW O   
H1  H2  EPW O   H1  H2  EPW O   H1  H2  EPW O   H1  H2  EPW O   H1  H2  EPW O   
H1  H2  EPW O   H1  H2  EPW O   H1  H2  EPW O   H1  H2  EPW O   H1  H2  EPW O   
H1  H2  EPW O   H1  H2  EPW O   H1  H2  EPW O   H1  H2  EPW O   H1  H2  EPW O   
H1  H2  EPW O   H1  H2  EPW O   H1  H2  EPW O   H1  H2  EPW O   H1  H2  EPW O   
H1  H2  EPW O   H1  H2  EPW O   H1  H2  EPW O   H1  H2  EPW O   H1  H2  EPW O   
H1  H2  EPW O   H1  H2  EPW O   H1  H2  EPW O   H1  H2  EPW O   H1  H2  EPW O   
H1  H2  EPW O   H1  H2  EPW O   H1  H2  EPW O   H1  H2  EPW O   H1  H2  EPW O   
H1  H2  EPW O   H1  H2  EPW O   H1  H2  EPW O   H1  H2  EPW O   H1  H2  EPW O   
H1  H2  EPW O   H1  H2  EPW O   H1  H2  EPW O   H1  H2  EPW O   H1  H2  EPW O   
H1  H2  EPW O   H1  H2  EPW O   H1  H2  EPW O   H1  H2  EPW O   H1  H2  EPW O   
H1  H2  EPW O   H1  H2  EPW O   H1  H2  EPW O   H1  H2  EPW O   H1  H2  EPW O   
H1  H2  EPW O   H1  H2  EPW O   H1  H2  EPW O   H1  H2  EPW O   H1  H2  EPW O   
H1  H2  EPW O   H1  H2  EPW O   H1  H2  EPW O   H1  H2  EPW O   H1  H2  EPW O   
H1  H2  EPW O   H1  H2  EPW O   H1  H2  EPW O   H1  H2  EPW O   H1  H2  EPW O   
H1  H2  EPW O   H1  H2  EPW O   H1  H2  EPW O   H1  H2  EPW O   H1  H2  EPW O   
H1  H2  EPW O   H1  H2  EPW O   H1  H2  EPW O   H1  H2  EPW O   H1  H2  EPW O   
H1  H2  EPW O   H1  H2  EPW O   H1  H2  EPW O   H1  H2  EPW O   H1  H2  EPW O   
H1  H2  EPW O   H1  H2  EPW O   H1  H2  EPW O   H1  H2  EPW O   H1  H2  EPW O   
H1  H2  EPW O   H1  H2  EPW O   H1  H2  EPW O   H1  H2  EPW O   H1  H2  EPW O   
H1  H2  EPW O   H1  H2  EPW O   H1  H2  EPW O   H1  H2  EPW O   H1  H2  EPW O   
H1  H2  EPW O   H1  H2  EPW O   H1  H2  EPW O   H1  H2  EPW O   H1  H2  EPW O   
H1  H2  EPW O   H1  H2  EPW O   H1  H2  EPW O   H1  H2  EPW O   H1  H2  EPW O   
H1  H2  EPW O   H1  H2  EPW O   H1  H2  EPW O   H1  H2  EPW O   H1  H2  EPW O   
H1  H2  EPW O   H1  H2  EPW O   H1  H2  EPW O   H1  H2  EPW O   H1  H2  EPW O   
H1  H2  EPW O   H1  H2  EPW O   H1  H2  EPW O   H1  H2  EPW O   H1  H2  EPW O   
H1  H2  EPW O   H1  H2  EPW O   H1  H2  EPW O   H1  H2  EPW O   H1  H2  EPW O   
H1  H2  EPW O   H1  H2  EPW O   H1  H2  EPW O   H1  H2  EPW O   H1  H2  EPW O   
H1  H2  EPW O   H1  H2  EPW O   H1  H2  EPW O   H1  H2  EPW O   H1  H2  EPW O   
H1  H2  EPW O   H1  H2  EPW O   H1  H2  EPW O   H1  H2  EPW O   H1  H2  EPW O   
H1  H2  EPW O   H1  H2  EPW O   H1  H2  EPW O   H1  H2  EPW O   H1  H2  EPW O   
H1  H2  EPW O   H1  H2  EPW O   H1  H2  EPW O   H1  H2  EPW O   H1  H2  EPW O   
H1  H2  EPW O   H1  H2  EPW O   H1  H2  EPW O   H1  H2  EPW O   H1  H2  EPW O   
H1  H2  EPW O   H1  H2  EPW O   H1  H2  EPW O   H1  H2  EPW O   H1  H2  EPW O   
H1  H2  EPW O   H1  H2  EPW O   H1  H2  EPW O   H1  H2  EPW O   H1  H2  EPW O   
H1  H2  EPW O   H1  H2  EPW O   H1  H2  EPW O   H1  H2  EPW O   H1  H2  EPW O   
H1  H2  EPW O   H1  H2  EPW O   H1  H2  EPW O   H1  H2  EPW O   H1  H2  EPW O   
H1  H2  EPW O   H1  H2  EPW O   H1  H2  EPW O   H1  H2  EPW O   H1  H2  EPW O   
H1  H2  EPW O   H1  H2  EPW O   H1  H2  EPW O   H1  H2  EPW O   H1  H2  EPW O   
H1  H2  EPW O   H1  H2  EPW O   H1  H2  EPW O   H1  H2  EPW O   H1  H2  EPW O   
H1  H2  EPW O   H1  H2  EPW O   H1  H2  EPW O   H1  H2  EPW O   H1  H2  EPW O   
H1  H2  EPW O   H1  H2  EPW O   H1  H2  EPW O   H1  H2  EPW O   H1  H2  EPW O   
H1  H2  EPW O   H1  H2  EPW O   H1  H2  EPW O   H1  H2  EPW O   H1  H2  EPW O   
H1  H2  EPW O   H1  H2  EPW O   H1  H2  EPW O   H1  H2  EPW O   H1  H2  EPW O   
H1  H2  EPW O   H1  H2  EPW O   H1  H2  EPW O   H1  H2  EPW O   H1  H2  EPW O   
H1  H2  EPW O   H1  H2  EPW O   H1  H2  EPW O   H1  H2  EPW O   H1  H2  EPW O   
H1  H2  EPW O   H1  H2  EPW O   H1  H2  EPW O   H1  H2  EPW O   H1  H2  EPW O   
H1  H2  EPW O   H1  H2  EPW O   H1  H2  EPW O   H1  H2  EPW O   H1  H2  EPW O   
H1  H2  EPW O   H1  H2  EPW O   H1  H2  EPW O   H1  H2  EPW O   H1  H2  EPW O   
H1  H2  EPW O   H1  H2  EPW O   H1  H2  EPW O   H1  H2  EPW O   H1  H2  EPW O   
H1  H2  EPW O   H1  H2  EPW O   H1  H2  EPW O   H1  H2  EPW O   H1  H2  EPW O   
H1  H2  EPW O   H1  H2  EPW O   H1  H2  EPW O   H1  H2  EPW O   H1  H2  EPW O   
H1  H2  EPW O   H1  H2  EPW O   H1  H2  EPW O   H1  H2  EPW O   H1  H2  EPW O   
H1  H2  EPW O   H1  H2  EPW O   H1  H2  EPW O   H1  H2  EPW O   H1  H2  EPW O   
H1  H2  EPW O   H1  H2  EPW O   H1  H2  EPW O   H1  H2  EPW O   H1  H2  EPW O   
H1  H2  EPW O   H1  H2  EPW O   H1  H2  EPW O   H1  H2  EPW O   H1  H2  EPW O   
H1  H2  EPW O   H1  H2  EPW O   H1  H2  EPW O   H1  H2  EPW O   H1  H2  EPW O   
H1  H2  EPW O   H1  H2  EPW O   H1  H2  EPW O   H1  H2  EPW O   H1  H2  EPW O   
H1  H2  EPW O   H1  H2  EPW O   H1  H2  EPW O   H1  H2  EPW O   H1  H2  EPW O   
H1  H2  EPW O   H1  H2  EPW O   H1  H2  EPW O   H1  H2  EPW O   H1  H2  EPW O   
H1  H2  EPW O   H1  H2  EPW O   H1  H2  EPW O   H1  H2  EPW O   H1  H2  EPW O   
H1  H2  EPW O   H1  H2  EPW O   H1  H2  EPW O   H1  H2  EPW O   H1  H2  EPW O   
H1  H2  EPW O   H1  H2  EPW O   H1  H2  EPW O   H1  H2  EPW O   H1  H2  EPW O   
H1  H2  EPW O   H1  H2  EPW O   H1  H2  EPW O   H1  H2  EPW O   H1  H2  EPW O   
H1  H2  EPW O   H1  H2  EPW O   H1  H2  EPW O   H1  H2  EPW O   H1  H2  EPW O   
H1  H2  EPW O   H1  H2  EPW O   H1  H2  EPW O   H1  H2  EPW O   H1  H2  EPW O   
H1  H2  EPW O   H1  H2  EPW O   H1  H2  EPW O   H1  H2  EPW O   H1  H2  EPW O   
H1  H2  EPW O   H1  H2  EPW O   H1  H2  EPW O   H1  H2  EPW O   H1  H2  EPW O   
H1  H2  EPW O   H1  H2  EPW O   H1  H2  EPW O   H1  H2  EPW O   H1  H2  EPW O   
H1  H2  EPW O   H1  H2  EPW O   H1  H2  EPW O   H1  H2  EPW O   H1  H2  EPW O   
H1  H2  EPW O   H1  H2  EPW O   H1  H2  EPW O   H1  H2  EPW O   H1  H2  EPW O   
H1  H2  EPW O   H1  H2  EPW O   H1  H2  EPW O   H1  H2  EPW O   H1  H2  EPW O   
H1  H2  EPW O   H1  H2  EPW O   H1  H2  EPW O   H1  H2  EPW O   H1  H2  EPW O   
H1  H2  EPW O   H1  H2  EPW O   H1  H2  EPW O   H1  H2  EPW O   H1  H2  EPW O   
H1  H2  EPW O   H1  H2  EPW O   H1  H2  EPW O   H1  H2  EPW O   H1  H2  EPW O   
H1  H2  EPW O   H1  H2  EPW O   H1  H2  EPW O   H1  H2  EPW O   H1  H2  EPW O   
H1  H2  EPW O   H1  H2  EPW O   H1  H2  EPW O   H1  H2  EPW O   H1  H2  EPW O   
H1  H2  EPW O   H1  H2  EPW O   H1  H2  EPW O   H1  H2  EPW O   H1  H2  EPW O   
H1  H2  EPW O   H1  H2  EPW O   H1  H2  EPW O   H1  H2  EPW O   H1  H2  EPW O   
H1  H2  EPW O   H1  H2  EPW O   H1  H2  EPW O   H1  H2  EPW O   H1  H2  EPW O   
H1  H2  EPW O   H1  H2  EPW O   H1  H2  EPW O   H1  H2  EPW O   H1  H2  EPW O   
H1  H2  EPW O   H1  H2  EPW O   H1  H2  EPW O   H1  H2  EPW O   H1  H2  EPW O   
H1  H2  EPW O   H1  H2  EPW O   H1  H2  EPW O   H1  H2  EPW O   H1  H2  EPW O   
H1  H2  EPW O   H1  H2  EPW O   H1  H2  EPW O   H1  H2  EPW O   H1  H2  EPW O   
H1  H2  EPW O   H1  H2  EPW O   H1  H2  EPW O   H1  H2  EPW O   H1  H2  EPW O   
H1  H2  EPW O   H1  H2  EPW O   H1  H2  EPW O   H1  H2  EPW O   H1  H2  EPW O   
H1  H2  EPW O   H1  H2  EPW O   H1  H2  EPW O   H1  H2  EPW O   H1  H2  EPW O   
H1  H2  EPW O   H1  H2  EPW O   H1  H2  EPW O   H1  H2  EPW O   H1  H2  EPW O   
H1  H2  EPW O   H1  H2  EPW O   H1  H2  EPW O   H1  H2  EPW O   H1  H2  EPW O   
H1  H2  EPW O   H1  H2  EPW O   H1  H2  EPW O   H1  H2  EPW O   H1  H2  EPW O   
H1  H2  EPW O   H1  H2  EPW O   H1  H2  EPW O   H1  H2  EPW O   H1  H2  EPW O   
H1  H2  EPW O   H1  H2  EPW O   H1  H2  EPW O   H1  H2  EPW O   H1  H2  EPW O   
H1  H2  EPW O   H1  H2  EPW O   H1  H2  EPW O   H1  H2  EPW O   H1  H2  EPW O   
H1  H2  EPW O   H1  H2  EPW O   H1  H2  EPW O   H1  H2  EPW O   H1  H2  EPW O   
H1  H2  EPW O   H1  H2  EPW O   H1  H2  EPW O   H1  H2  EPW O   H1  H2  EPW O   
H1  H2  EPW O   H1  H2  EPW O   H1  H2  EPW O   H1  H2  EPW O   H1  H2  EPW O   
H1  H2  EPW O   H1  H2  EPW O   H1  H2  EPW O   H1  H2  EPW O   H1  H2  EPW O   
H1  H2  EPW O   H1  H2  EPW O   H1  H2  EPW O   H1  H2  EPW O   H1  H2  EPW O   
H1  H2  EPW O   H1  H2  EPW O   H1  H2  EPW O   H1  H2  EPW O   H1  H2  EPW O   
H1  H2  EPW O   H1  H2  EPW O   H1  H2  EPW O   H1  H2  EPW O   H1  H2  EPW O   
H1  H2  EPW O   H1  H2  EPW O   H1  H2  EPW O   H1  H2  EPW O   H1  H2  EPW O   
H1  H2  EPW O   H1  H2  EPW O   H1  H2  EPW O   H1  H2  EPW O   H1  H2  EPW O   
H1  H2  EPW O   H1  H2  EPW O   H1  H2  EPW O   H1  H2  EPW O   H1  H2  EPW O   
H1  H2  EPW O   H1  H2  EPW O   H1  H2  EPW O   H1  H2  EPW O   H1  H2  EPW O   
H1  H2  EPW O   H1  H2  EPW O   H1  H2  EPW O   H1  H2  EPW O   H1  H2  EPW O   
H1  H2  EPW O   H1  H2  EPW O   H1  H2  EPW O   H1  H2  EPW O   H1  H2  EPW O   
H1  H2  EPW O   H1  H2  EPW O   H1  H2  EPW O   H1  H2  EPW O   H1  H2  EPW O   
H1  H2  EPW O   H1  H2  EPW O   H1  H2  EPW O   H1  H2  EPW O   H1  H2  EPW O   
H1  H2  EPW O   H1  H2  EPW O   H1  H2  EPW O   H1  H2  EPW O   H1  H2  EPW O   
H1  H2  EPW O   H1  H2  EPW O   H1  H2  EPW O   H1  H2  EPW O   H1  H2  EPW O   
H1  H2  EPW O   H1  H2  EPW O   H1  H2  EPW O   H1  H2  EPW O   H1  H2  EPW O   
H1  H2  EPW O   H1  H2  EPW O   H1  H2  EPW O   H1  H2  EPW O   H1  H2  EPW O   
H1  H2  EPW O   H1  H2  EPW O   H1  H2  EPW O   H1  H2  EPW O   H1  H2  EPW O   
H1  H2  EPW O   H1  H2  EPW O   H1  H2  EPW O   H1  H2  EPW O   H1  H2  EPW O   
H1  H2  EPW O   H1  H2  EPW O   H1  H2  EPW O   H1  H2  EPW O   H1  H2  EPW O   
H1  H2  EPW O   H1  H2  EPW O   H1  H2  EPW O   H1  H2  EPW O   H1  H2  EPW O   
H1  H2  EPW O   H1  H2  EPW O   H1  H2  EPW O   H1  H2  EPW O   H1  H2  EPW O   
H1  H2  EPW O   H1  H2  EPW O   H1  H2  EPW O   H1  H2  EPW O   H1  H2  EPW O   
H1  H2  EPW O   H1  H2  EPW O   H1  H2  EPW O   H1  H2  EPW O   H1  H2  EPW O   
H1  H2  EPW O   H1  H2  EPW O   H1  H2  EPW O   H1  H2  EPW O   H1  H2  EPW O   
H1  H2  EPW O   H1  H2  EPW O   H1  H2  EPW O   H1  H2  EPW O   H1  H2  EPW O   
H1  H2  EPW O   H1  H2  EPW O   H1  H2  EPW O   H1  H2  EPW O   H1  H2  EPW O   
H1  H2  EPW O   H1  H2  EPW O   H1  H2  EPW O   H1  H2  EPW O   H1  H2  EPW O   
H1  H2  EPW O   H1  H2  EPW O   H1  H2  EPW O   H1  H2  EPW O   H1  H2  EPW O   
H1  H2  EPW O   H1  H2  EPW O   H1  H2  EPW O   H1  H2  EPW O   H1  H2  EPW O   
H1  H2  EPW O   H1  H2  EPW O   H1  H2  EPW O   H1  H2  EPW O   H1  H2  EPW O   
H1  H2  EPW O   H1  H2  EPW O   H1  H2  EPW O   H1  H2  EPW O   H1  H2  EPW O   
H1  H2  EPW O   H1  H2  EPW O   H1  H2  EPW O   H1  H2  EPW O   H1  H2  EPW O   
H1  H2  EPW O   H1  H2  EPW O   H1  H2  EPW O   H1  H2  EPW O   H1  H2  EPW O   
H1  H2  EPW O   H1  H2  EPW O   H1  H2  EPW O   H1  H2  EPW O   H1  H2  EPW O   
H1  H2  EPW O   H1  H2  EPW O   H1  H2  EPW O   H1  H2  EPW O   H1  H2  EPW O   
H1  H2  EPW O   H1  H2  EPW O   H1  H2  EPW O   H1  H2  EPW O   H1  H2  EPW O   
H1  H2  EPW O   H1  H2  EPW O   H1  H2  EPW O   H1  H2  EPW O   H1  H2  EPW O   
H1  H2  EPW O   H1  H2  EPW O   H1  H2  EPW O   H1  H2  EPW O   H1  H2  EPW O   
H1  H2  EPW O   H1  H2  EPW O   H1  H2  EPW O   H1  H2  EPW O   H1  H2  EPW O   
H1  H2  EPW O   H1  H2  EPW O   H1  H2  EPW O   H1  H2  EPW O   H1  H2  EPW O   
H1  H2  EPW O   H1  H2  EPW O   H1  H2  EPW O   H1  H2  EPW O   H1  H2  EPW O   
H1  H2  EPW O   H1  H2  EPW O   H1  H2  EPW O   H1  H2  EPW O   H1  H2  EPW O   
H1  H2  EPW O   H1  H2  EPW O   H1  H2  EPW O   H1  H2  EPW O   H1  H2  EPW O   
H1  H2  EPW O   H1  H2  EPW O   H1  H2  EPW O   H1  H2  EPW O   H1  H2  EPW O   
H1  H2  EPW O   H1  H2  EPW O   H1  H2  EPW O   H1  H2  EPW O   H1  H2  EPW O   
H1  H2  EPW O   H1  H2  EPW O   H1  H2  EPW O   H1  H2  EPW O   H1  H2  EPW O   
H1  H2  EPW O   H1  H2  EPW O   H1  H2  EPW O   H1  H2  EPW O   H1  H2  EPW O   
H1  H2  EPW O   H1  H2  EPW O   H1  H2  EPW O   H1  H2  EPW O   H1  H2  EPW O   
H1  H2  EPW O   H1  H2  EPW O   H1  H2  EPW O   H1  H2  EPW O   H1  H2  EPW O   
H1  H2  EPW O   H1  H2  EPW O   H1  H2  EPW O   H1  H2  EPW O   H1  H2  EPW O   
H1  H2  EPW O   H1  H2  EPW O   H1  H2  EPW O   H1  H2  EPW O   H1  H2  EPW O   
H1  H2  EPW O   H1  H2  EPW O   H1  H2  EPW O   H1  H2  EPW O   H1  H2  EPW O   
H1  H2  EPW O   H1  H2  EPW O   H1  H2  EPW O   H1  H2  EPW O   H1  H2  EPW O   
H1  H2  EPW O   H1  H2  EPW O   H1  H2  EPW O   H1  H2  EPW O   H1  H2  EPW O   
H1  H2  EPW O   H1  H2  EPW O   H1  H2  EPW O   H1  H2  EPW O   H1  H2  EPW O   
H1  H2  EPW O   H1  H2  EPW O   H1  H2  EPW O   H1  H2  EPW O   H1  H2  EPW O   
H1  H2  EPW O   H1  H2  EPW O   H1  H2  EPW O   H1  H2  EPW O   H1  H2  EPW O   
H1  H2  EPW O   H1  H2  EPW O   H1  H2  EPW O   H1  H2  EPW O   H1  H2  EPW O   
H1  H2  EPW O   H1  H2  EPW O   H1  H2  EPW O   H1  H2  EPW O   H1  H2  EPW O   
H1  H2  EPW O   H1  H2  EPW O   H1  H2  EPW O   H1  H2  EPW O   H1  H2  EPW O   
H1  H2  EPW O   H1  H2  EPW O   H1  H2  EPW O   H1  H2  EPW O   H1  H2  EPW O   
H1  H2  EPW O   H1  H2  EPW O   H1  H2  EPW O   H1  H2  EPW O   H1  H2  EPW O   
H1  H2  EPW O   H1  H2  EPW O   H1  H2  EPW O   H1  H2  EPW O   H1  H2  EPW O   
H1  H2  EPW O   H1  H2  EPW O   H1  H2  EPW O   H1  H2  EPW O   H1  H2  EPW O   
H1  H2  EPW O   H1  H2  EPW O   H1  H2  EPW O   H1  H2  EPW O   H1  H2  EPW O   
H1  H2  EPW O   H1  H2  EPW O   H1  H2  EPW O   H1  H2  EPW O   H1  H2  EPW O   
H1  H2  EPW O   H1  H2  EPW O   H1  H2  EPW O   H1  H2  EPW O   H1  H2  EPW O   
H1  H2  EPW O   H1  H2  EPW O   H1  H2  EPW O   H1  H2  EPW O   H1  H2  EPW O   
H1  H2  EPW O   H1  H2  EPW O   H1  H2  EPW O   H1  H2  EPW O   H1  H2  EPW O   
H1  H2  EPW O   H1  H2  EPW O   H1  H2  EPW O   H1  H2  EPW O   H1  H2  EPW O   
H1  H2  EPW O   H1  H2  EPW O   H1  H2  EPW O   H1  H2  EPW O   H1  H2  EPW O   
H1  H2  EPW O   H1  H2  EPW O   H1  H2  EPW O   H1  H2  EPW O   H1  H2  EPW O   
H1  H2  EPW O   H1  H2  EPW O   H1  H2  EPW O   H1  H2  EPW O   H1  H2  EPW O   
H1  H2  EPW O   H1  H2  EPW O   H1  H2  EPW O   H1  H2  EPW O   H1  H2  EPW O   
H1  H2  EPW O   H1  H2  EPW O   H1  H2  EPW O   H1  H2  EPW O   H1  H2  EPW O   
H1  H2  EPW O   H1  H2  EPW O   H1  H2  EPW O   H1  H2  EPW O   H1  H2  EPW O   
H1  H2  EPW O   H1  H2  EPW O   H1  H2  EPW O   H1  H2  EPW O   H1  H2  EPW O   
H1  H2  EPW O   H1  H2  EPW O   H1  H2  EPW O   H1  H2  EPW O   H1  H2  EPW O   
H1  H2  EPW O   H1  H2  EPW O   H1  H2  EPW O   H1  H2  EPW O   H1  H2  EPW O   
H1  H2  EPW O   H1  H2  EPW O   H1  H2  EPW O   H1  H2  EPW O   H1  H2  EPW O   
H1  H2  EPW O   H1  H2  EPW O   H1  H2  EPW O   H1  H2  EPW O   H1  H2  EPW O   
H1  H2  EPW O   H1  H2  EPW O   H1  H2  EPW O   H1  H2  EPW O   H1  H2  EPW O   
H1  H2  EPW O   H1  H2  EPW O   H1  H2  EPW O   H1  H2  EPW O   H1  H2  EPW O   
H1  H2  EPW O   H1  H2  EPW O   H1  H2  EPW O   H1  H2  EPW O   H1  H2  EPW O   
H1  H2  EPW O   H1  H2  EPW O   H1  H2  EPW O   H1  H2  EPW O   H1  H2  EPW O   
H1  H2  EPW O   H1  H2  EPW O   H1  H2  EPW O   H1  H2  EPW O   H1  H2  EPW O   
H1  H2  EPW O   H1  H2  EPW O   H1  H2  EPW O   H1  H2  EPW O   H1  H2  EPW O   
H1  H2  EPW O   H1  H2  EPW O   H1  H2  EPW O   H1  H2  EPW O   H1  H2  EPW O   
H1  H2  EPW O   H1  H2  EPW O   H1  H2  EPW O   H1  H2  EPW O   H1  H2  EPW O   
H1  H2  EPW O   H1  H2  EPW O   H1  H2  EPW O   H1  H2  EPW O   H1  H2  EPW O   
H1  H2  EPW O   H1  H2  EPW O   H1  H2  EPW O   H1  H2  EPW O   H1  H2  EPW O   
H1  H2  EPW O   H1  H2  EPW O   H1  H2  EPW O   H1  H2  EPW O   H1  H2  EPW O   
H1  H2  EPW O   H1  H2  EPW O   H1  H2  EPW O   H1  H2  EPW O   H1  H2  EPW O   
H1  H2  EPW O   H1  H2  EPW O   H1  H2  EPW O   H1  H2  EPW O   H1  H2  EPW O   
H1  H2  EPW O   H1  H2  EPW O   H1  H2  EPW O   H1  H2  EPW O   H1  H2  EPW O   
H1  H2  EPW O   H1  H2  EPW O   H1  H2  EPW O   H1  H2  EPW O   H1  H2  EPW O   
H1  H2  EPW O   H1  H2  EPW O   H1  H2  EPW O   H1  H2  EPW O   H1  H2  EPW O   
H1  H2  EPW O   H1  H2  EPW O   H1  H2  EPW O   H1  H2  EPW O   H1  H2  EPW O   
H1  H2  EPW O   H1  H2  EPW O   H1  H2  EPW O   H1  H2  EPW O   H1  H2  EPW O   
H1  H2  EPW O   H1  H2  EPW O   H1  H2  EPW O   H1  H2  EPW O   H1  H2  EPW O   
H1  H2  EPW O   H1  H2  EPW O   H1  H2  EPW O   H1  H2  EPW O   H1  H2  EPW O   
H1  H2  EPW O   H1  H2  EPW O   H1  H2  EPW O   H1  H2  EPW O   H1  H2  EPW O   
H1  H2  EPW O   H1  H2  EPW O   H1  H2  EPW O   H1  H2  EPW O   H1  H2  EPW O   
H1  H2  EPW O   H1  H2  EPW O   H1  H2  EPW O   H1  H2  EPW O   H1  H2  EPW O   
H1  H2  EPW O   H1  H2  EPW O   H1  H2  EPW O   H1  H2  EPW O   H1  H2  EPW O   
H1  H2  EPW O   H1  H2  EPW O   H1  H2  EPW O   H1  H2  EPW O   H1  H2  EPW O   
H1  H2  EPW O   H1  H2  EPW O   H1  H2  EPW O   H1  H2  EPW O   H1  H2  EPW O   
H1  H2  EPW O   H1  H2  EPW O   H1  H2  EPW O   H1  H2  EPW O   H1  H2  EPW O   
H1  H2  EPW O   H1  H2  EPW O   H1  H2  EPW O   H1  H2  EPW O   H1  H2  EPW O   
H1  H2  EPW O   H1  H2  EPW O   H1  H2  EPW O   H1  H2  EPW O   H1  H2  EPW O   
H1  H2  EPW O   H1  H2  EPW O   H1  H2  EPW O   H1  H2  EPW O   H1  H2  EPW O   
H1  H2  EPW O   H1  H2  EPW O   H1  H2  EPW O   H1  H2  EPW O   H1  H2  EPW O   
H1  H2  EPW O   H1  H2  EPW O   H1  H2  EPW O   H1  H2  EPW O   H1  H2  EPW O   
H1  H2  EPW O   H1  H2  EPW O   H1  H2  EPW O   H1  H2  EPW O   H1  H2  EPW O   
H1  H2  EPW O   H1  H2  EPW O   H1  H2  EPW O   H1  H2  EPW O   H1  H2  EPW O   
H1  H2  EPW O   H1  H2  EPW O   H1  H2  EPW O   H1  H2  EPW O   H1  H2  EPW O   
H1  H2  EPW O   H1  H2  EPW O   H1  H2  EPW O   H1  H2  EPW O   H1  H2  EPW O   
H1  H2  EPW O   H1  H2  EPW O   H1  H2  EPW O   H1  H2  EPW O   H1  H2  EPW O   
H1  H2  EPW O   H1  H2  EPW O   H1  H2  EPW O   H1  H2  EPW O   H1  H2  EPW O   
H1  H2  EPW O   H1  H2  EPW O   H1  H2  EPW O   H1  H2  EPW O   H1  H2  EPW O   
H1  H2  EPW O   H1  H2  EPW O   H1  H2  EPW O   H1  H2  EPW O   H1  H2  EPW O   
H1  H2  EPW O   H1  H2  EPW O   H1  H2  EPW O   H1  H2  EPW O   H1  H2  EPW O   
H1  H2  EPW O   H1  H2  EPW O   H1  H2  EPW O   H1  H2  EPW O   H1  H2  EPW O   
H1  H2  EPW O   H1  H2  EPW O   H1  H2  EPW O   H1  H2  EPW O   H1  H2  EPW O   
H1  H2  EPW O   H1  H2  EPW O   H1  H2  EPW O   H1  H2  EPW O   H1  H2  EPW O   
H1  H2  EPW O   H1  H2  EPW O   H1  H2  EPW O   H1  H2  EPW O   H1  H2  EPW O   
H1  H2  EPW O   H1  H2  EPW O   H1  H2  EPW O   H1  H2  EPW O   H1  H2  EPW O   
H1  H2  EPW O   H1  H2  EPW O   H1  H2  EPW O   H1  H2  EPW O   H1  H2  EPW O   
H1  H2  EPW O   H1  H2  EPW O   H1  H2  EPW O   H1  H2  EPW O   H1  H2  EPW O   
H1  H2  EPW O   H1  H2  EPW O   H1  H2  EPW O   H1  H2  EPW O   H1  H2  EPW O   
H1  H2  EPW O   H1  H2  EPW O   H1  H2  EPW O   H1  H2  EPW O   H1  H2  EPW O   
H1  H2  EPW O   H1  H2  EPW O   H1  H2  EPW O   H1  H2  EPW O   H1  H2  EPW O   
H1  H2  EPW O   H1  H2  EPW O   H1  H2  EPW O   H1  H2  EPW O   H1  H2  EPW O   
H1  H2  EPW O   H1  H2  EPW O   H1  H2  EPW O   H1  H2  EPW O   H1  H2  EPW O   
H1  H2  EPW O   H1  H2  EPW O   H1  H2  EPW O   H1  H2  EPW O   H1  H2  EPW O   
H1  H2  EPW O   H1  H2  EPW O   H1  H2  EPW O   H1  H2  EPW O   H1  H2  EPW O   
H1  H2  EPW O   H1  H2  EPW O   H1  H2  EPW O   H1  H2  EPW O   H1  H2  EPW O   
H1  H2  EPW O   H1  H2  EPW O   H1  H2  EPW O   H1  H2  EPW O   H1  H2  EPW O   
H1  H2  EPW O   H1  H2  EPW O   H1  H2  EPW O   H1  H2  EPW O   H1  H2  EPW O   
H1  H2  EPW O   H1  H2  EPW O   H1  H2  EPW O   H1  H2  EPW O   H1  H2  EPW O   
H1  H2  EPW O   H1  H2  EPW O   H1  H2  EPW O   H1  H2  EPW O   H1  H2  EPW O   
H1  H2  EPW O   H1  H2  EPW O   H1  H2  EPW O   H1  H2  EPW O   H1  H2  EPW O   
H1  H2  EPW O   H1  H2  EPW O   H1  H2  EPW O   H1  H2  EPW O   H1  H2  EPW O   
H1  H2  EPW O   H1  H2  EPW O   H1  H2  EPW O   H1  H2  EPW O   H1  H2  EPW O   
H1  H2  EPW O   H1  H2  EPW O   H1  H2  EPW O   H1  H2  EPW O   H1  H2  EPW O   
H1  H2  EPW O   H1  H2  EPW O   H1  H2  EPW O   H1  H2  EPW O   H1  H2  EPW O   
H1  H2  EPW O   H1  H2  EPW O   H1  H2  EPW O   H1  H2  EPW O   H1  H2  EPW O   
H1  H2  EPW O   H1  H2  EPW O   H1  H2  EPW O   H1  H2  EPW O   H1  H2  EPW O   
H1  H2  EPW O   H1  H2  EPW O   H1  H2  EPW O   H1  H2  EPW O   H1  H2  EPW O   
H1  H2  EPW O   H1  H2  EPW O   H1  H2  EPW O   H1  H2  EPW O   H1  H2  EPW O   
H1  H2  EPW O   H1  H2  EPW O   H1  H2  EPW O   H1  H2  EPW O   H1  H2  EPW O   
H1  H2  EPW O   H1  H2  EPW O   H1  H2  EPW O   H1  H2  EPW O   H1  H2  EPW O   
H1  H2  EPW O   H1  H2  EPW O   H1  H2  EPW O   H1  H2  EPW O   H1  H2  EPW O   
H1  H2  EPW O   H1  H2  EPW O   H1  H2  EPW O   H1  H2  EPW O   H1  H2  EPW O   
H1  H2  EPW O   H1  H2  EPW O   H1  H2  EPW O   H1  H2  EPW O   H1  H2  EPW O   
H1  H2  EPW O   H1  H2  EPW O   H1  H2  EPW O   H1  H2  EPW O   H1  H2  EPW O   
H1  H2  EPW O   H1  H2  EPW O   H1  H2  EPW O   H1  H2  EPW O   H1  H2  EPW O   
H1  H2  EPW O   H1  H2  EPW O   H1  H2  EPW O   H1  H2  EPW O   H1  H2  EPW O   
H1  H2  EPW O   H1  H2  EPW O   H1  H2  EPW O   H1  H2  EPW O   H1  H2  EPW O   
H1  H2  EPW O   H1  H2  EPW O   H1  H2  EPW O   H1  H2  EPW O   H1  H2  EPW O   
H1  H2  EPW O   H1  H2  EPW O   H1  H2  EPW O   H1  H2  EPW O   H1  H2  EPW O   
H1  H2  EPW O   H1  H2  EPW O   H1  H2  EPW O   H1  H2  EPW O   H1  H2  EPW O   
H1  H2  EPW O   H1  H2  EPW O   H1  H2  EPW O   H1  H2  EPW O   H1  H2  EPW O   
H1  H2  EPW O   H1  H2  EPW O   H1  H2  EPW O   H1  H2  EPW O   H1  H2  EPW O   
H1  H2  EPW O   H1  H2  EPW O   H1  H2  EPW O   H1  H2  EPW O   H1  H2  EPW O   
H1  H2  EPW O   H1  H2  EPW O   H1  H2  EPW O   H1  H2  EPW O   H1  H2  EPW O   
H1  H2  EPW O   H1  H2  EPW O   H1  H2  EPW O   H1  H2  EPW O   H1  H2  EPW O   
H1  H2  EPW O   H1  H2  EPW O   H1  H2  EPW O   H1  H2  EPW O   H1  H2  EPW O   
H1  H2  EPW O   H1  H2  EPW O   H1  H2  EPW O   H1  H2  EPW O   H1  H2  EPW O   
H1  H2  EPW O   H1  H2  EPW O   H1  H2  EPW O   H1  H2  EPW O   H1  H2  EPW O   
H1  H2  EPW O   H1  H2  EPW O   H1  H2  EPW O   H1  H2  EPW O   H1  H2  EPW O   
H1  H2  EPW O   H1  H2  EPW O   H1  H2  EPW O   H1  H2  EPW O   H1  H2  EPW O   
H1  H2  EPW O   H1  H2  EPW O   H1  H2  EPW O   H1  H2  EPW O   H1  H2  EPW O   
H1  H2  EPW O   H1  H2  EPW O   H1  H2  EPW O   H1  H2  EPW O   H1  H2  EPW O   
H1  H2  EPW O   H1  H2  EPW O   H1  H2  EPW O   H1  H2  EPW O   H1  H2  EPW O   
H1  H2  EPW O   H1  H2  EPW O   H1  H2  EPW O   H1  H2  EPW O   H1  H2  EPW O   
H1  H2  EPW O   H1  H2  EPW O   H1  H2  EPW O   H1  H2  EPW O   H1  H2  EPW O   
H1  H2  EPW O   H1  H2  EPW O   H1  H2  EPW O   H1  H2  EPW O   H1  H2  EPW O   
H1  H2  EPW O   H1  H2  EPW O   H1  H2  EPW O   H1  H2  EPW O   H1  H2  EPW O   
H1  H2  EPW O   H1  H2  EPW O   H1  H2  EPW O   H1  H2  EPW O   H1  H2  EPW O   
H1  H2  EPW O   H1  H2  EPW O   H1  H2  EPW O   H1  H2  EPW O   H1  H2  EPW O   
H1  H2  EPW O   H1  H2  EPW O   H1  H2  EPW O   H1  H2  EPW O   H1  H2  EPW O   
H1  H2  EPW O   H1  H2  EPW O   H1  H2  EPW O   H1  H2  EPW O   H1  H2  EPW O   
H1  H2  EPW O   H1  H2  EPW O   H1  H2  EPW O   H1  H2  EPW O   H1  H2  EPW O   
H1  H2  EPW O   H1  H2  EPW O   H1  H2  EPW O   H1  H2  EPW O   H1  H2  EPW O   
H1  H2  EPW O   H1  H2  EPW O   H1  H2  EPW O   H1  H2  EPW O   H1  H2  EPW O   
H1  H2  EPW O   H1  H2  EPW O   H1  H2  EPW O   H1  H2  EPW O   H1  H2  EPW O   
H1  H2  EPW O   H1  H2  EPW O   H1  H2  EPW O   H1  H2  EPW O   H1  H2  EPW O   
H1  H2  EPW O   H1  H2  EPW O   H1  H2  EPW O   H1  H2  EPW O   H1  H2  EPW O   
H1  H2  EPW O   H1  H2  EPW O   H1  H2  EPW O   H1  H2  EPW O   H1  H2  EPW O   
H1  H2  EPW O   H1  H2  EPW O   H1  H2  EPW O   H1  H2  EPW O   H1  H2  EPW O   
H1  H2  EPW O   H1  H2  EPW O   H1  H2  EPW O   H1  H2  EPW O   H1  H2  EPW O   
H1  H2  EPW O   H1  H2  EPW O   H1  H2  EPW O   H1  H2  EPW O   H1  H2  EPW O   
H1  H2  EPW O   H1  H2  EPW O   H1  H2  EPW O   H1  H2  EPW O   H1  H2  EPW O   
H1  H2  EPW O   H1  H2  EPW O   H1  H2  EPW O   H1  H2  EPW O   H1  H2  EPW O   
H1  H2  EPW O   H1  H2  EPW O   H1  H2  EPW O   H1  H2  EPW O   H1  H2  EPW O   
H1  H2  EPW O   H1  H2  EPW O   H1  H2  EPW O   H1  H2  EPW O   H1  H2  EPW O   
H1  H2  EPW O   H1  H2  EPW O   H1  H2  EPW O   H1  H2  EPW O   H1  H2  EPW O   
H1  H2  EPW O   H1  H2  EPW O   H1  H2  EPW O   H1  H2  EPW O   H1  H2  EPW O   
H1  H2  EPW O   H1  H2  EPW O   H1  H2  EPW O   H1  H2  EPW O   H1  H2  EPW O   
H1  H2  EPW O   H1  H2  EPW O   H1  H2  EPW O   H1  H2  EPW O   H1  H2  EPW O   
H1  H2  EPW O   H1  H2  EPW O   H1  H2  EPW O   H1  H2  EPW O   H1  H2  EPW O   
H1  H2  EPW O   H1  H2  EPW O   H1  H2  EPW O   H1  H2  EPW O   H1  H2  EPW O   
H1  H2  EPW O   H1  H2  EPW O   H1  H2  EPW O   H1  H2  EPW O   H1  H2  EPW O   
H1  H2  EPW O   H1  H2  EPW O   H1  H2  EPW O   H1  H2  EPW O   H1  H2  EPW O   
H1  H2  EPW O   H1  H2  EPW O   H1  H2  EPW O   H1  H2  EPW O   H1  H2  EPW O   
H1  H2  EPW O   H1  H2  EPW O   H1  H2  EPW O   H1  H2  EPW O   H1  H2  EPW O   
H1  H2  EPW O   H1  H2  EPW O   H1  H2  EPW O   H1  H2  EPW O   H1  H2  EPW O   
H1  H2  EPW O   H1  H2  EPW O   H1  H2  EPW O   H1  H2  EPW O   H1  H2  EPW O   
H1  H2  EPW O   H1  H2  EPW O   H1  H2  EPW O   H1  H2  EPW O   H1  H2  EPW O   
H1  H2  EPW O   H1  H2  EPW O   H1  H2  EPW O   H1  H2  EPW O   H1  H2  EPW O   
H1  H2  EPW O   H1  H2  EPW O   H1  H2  EPW O   H1  H2  EPW O   H1  H2  EPW O   
H1  H2  EPW O   H1  H2  EPW O   H1  H2  EPW O   H1  H2  EPW O   H1  H2  EPW O   
H1  H2  EPW O   H1  H2  EPW O   H1  H2  EPW O   H1  H2  EPW O   H1  H2  EPW O   
H1  H2  EPW O   H1  H2  EPW O   H1  H2  EPW O   H1  H2  EPW O   H1  H2  EPW O   
H1  H2  EPW O   H1  H2  EPW O   H1  H2  EPW O   H1  H2  EPW O   H1  H2  EPW O   
H1  H2  EPW O   H1  H2  EPW O   H1  H2  EPW O   H1  H2  EPW O   H1  H2  EPW O   
H1  H2  EPW O   H1  H2  EPW O   H1  H2  EPW O   H1  H2  EPW O   H1  H2  EPW O   
H1  H2  EPW O   H1  H2  EPW O   H1  H2  EPW O   H1  H2  EPW O   H1  H2  EPW O   
H1  H2  EPW O   H1  H2  EPW O   H1  H2  EPW O   H1  H2  EPW O   H1  H2  EPW O   
H1  H2  EPW O   H1  H2  EPW O   H1  H2  EPW O   H1  H2  EPW O   H1  H2  EPW O   
H1  H2  EPW O   H1  H2  EPW O   H1  H2  EPW O   H1  H2  EPW O   H1  H2  EPW O   
H1  H2  EPW O   H1  H2  EPW O   H1  H2  EPW O   H1  H2  EPW O   H1  H2  EPW O   
H1  H2  EPW O   H1  H2  EPW O   H1  H2  EPW O   H1  H2  EPW O   H1  H2  EPW O   
H1  H2  EPW O   H1  H2  EPW O   H1  H2  EPW O   H1  H2  EPW O   H1  H2  EPW O   
H1  H2  EPW O   H1  H2  EPW O   H1  H2  EPW O   H1  H2  EPW O   H1  H2  EPW O   
H1  H2  EPW O   H1  H2  EPW O   H1  H2  EPW O   H1  H2  EPW O   H1  H2  EPW O   
H1  H2  EPW O   H1  H2  EPW O   H1  H2  EPW O   H1  H2  EPW O   H1  H2  EPW O   
H1  H2  EPW O   H1  H2  EPW O   H1  H2  EPW O   H1  H2  EPW O   H1  H2  EPW O   
H1  H2  EPW O   H1  H2  EPW O   H1  H2  EPW O   H1  H2  EPW O   H1  H2  EPW O   
H1  H2  EPW O   H1  H2  EPW O   H1  H2  EPW O   H1  H2  EPW O   H1  H2  EPW O   
H1  H2  EPW O   H1  H2  EPW O   H1  H2  EPW O   H1  H2  EPW O   H1  H2  EPW O   
H1  H2  EPW O   H1  H2  EPW O   H1  H2  EPW O   H1  H2  EPW O   H1  H2  EPW O   
H1  H2  EPW O   H1  H2  EPW O   H1  H2  EPW O   H1  H2  EPW O   H1  H2  EPW O   
H1  H2  EPW O   H1  H2  EPW O   H1  H2  EPW O   H1  H2  EPW O   H1  H2  EPW O   
H1  H2  EPW O   H1  H2  EPW O   H1  H2  EPW O   H1  H2  EPW O   H1  H2  EPW O   
H1  H2  EPW O   H1  H2  EPW O   H1  H2  EPW O   H1  H2  EPW O   H1  H2  EPW O   
H1  H2  EPW O   H1  H2  EPW O   H1  H2  EPW O   H1  H2  EPW O   H1  H2  EPW O   
H1  H2  EPW O   H1  H2  EPW O   H1  H2  EPW O   H1  H2  EPW O   H1  H2  EPW O   
H1  H2  EPW O   H1  H2  EPW O   H1  H2  EPW O   H1  H2  EPW O   H1  H2  EPW O   
H1  H2  EPW O   H1  H2  EPW O   H1  H2  EPW O   H1  H2  EPW O   H1  H2  EPW O   
H1  H2  EPW O   H1  H2  EPW O   H1  H2  EPW O   H1  H2  EPW O   H1  H2  EPW O   
H1  H2  EPW O   H1  H2  EPW O   H1  H2  EPW O   H1  H2  EPW O   H1  H2  EPW O   
H1  H2  EPW O   H1  H2  EPW O   H1  H2  EPW O   H1  H2  EPW O   H1  H2  EPW O   
H1  H2  EPW O   H1  H2  EPW O   H1  H2  EPW O   H1  H2  EPW O   H1  H2  EPW O   
H1  H2  EPW O   H1  H2  EPW O   H1  H2  EPW O   H1  H2  EPW O   H1  H2  EPW O   
H1  H2  EPW O   H1  H2  EPW O   H1  H2  EPW O   H1  H2  EPW O   H1  H2  EPW O   
H1  H2  EPW O   H1  H2  EPW O   H1  H2  EPW O   H1  H2  EPW O   H1  H2  EPW O   
H1  H2  EPW O   H1  H2  EPW O   H1  H2  EPW O   H1  H2  EPW O   H1  H2  EPW O   
H1  H2  EPW O   H1  H2  EPW O   H1  H2  EPW O   H1  H2  EPW O   H1  H2  EPW O   
H1  H2  EPW O   H1  H2  EPW O   H1  H2  EPW O   H1  H2  EPW O   H1  H2  EPW O   
H1  H2  EPW O   H1  H2  EPW O   H1  H2  EPW O   H1  H2  EPW O   H1  H2  EPW O   
H1  H2  EPW O   H1  H2  EPW O   H1  H2  EPW O   H1  H2  EPW O   H1  H2  EPW O   
H1  H2  EPW O   H1  H2  EPW O   H1  H2  EPW O   H1  H2  EPW O   H1  H2  EPW O   
H1  H2  EPW O   H1  H2  EPW O   H1  H2  EPW O   H1  H2  EPW O   H1  H2  EPW O   
H1  H2  EPW O   H1  H2  EPW O   H1  H2  EPW O   H1  H2  EPW O   H1  H2  EPW O   
H1  H2  EPW O   H1  H2  EPW O   H1  H2  EPW O   H1  H2  EPW O   H1  H2  EPW O   
H1  H2  EPW O   H1  H2  EPW O   H1  H2  EPW O   H1  H2  EPW O   H1  H2  EPW O   
H1  H2  EPW O   H1  H2  EPW O   H1  H2  EPW O   H1  H2  EPW O   H1  H2  EPW O   
H1  H2  EPW O   H1  H2  EPW O   H1  H2  EPW O   H1  H2  EPW O   H1  H2  EPW O   
H1  H2  EPW O   H1  H2  EPW O   H1  H2  EPW O   H1  H2  EPW O   H1  H2  EPW O   
H1  H2  EPW O   H1  H2  EPW O   H1  H2  EPW O   H1  H2  EPW O   H1  H2  EPW O   
H1  H2  EPW O   H1  H2  EPW O   H1  H2  EPW O   H1  H2  EPW O   H1  H2  EPW O   
H1  H2  EPW O   H1  H2  EPW O   H1  H2  EPW O   H1  H2  EPW O   H1  H2  EPW O   
H1  H2  EPW O   H1  H2  EPW O   H1  H2  EPW O   H1  H2  EPW O   H1  H2  EPW O   
H1  H2  EPW O   H1  H2  EPW O   H1  H2  EPW O   H1  H2  EPW O   H1  H2  EPW O   
H1  H2  EPW O   H1  H2  EPW O   H1  H2  EPW O   H1  H2  EPW O   H1  H2  EPW O   
H1  H2  EPW O   H1  H2  EPW O   H1  H2  EPW O   H1  H2  EPW O   H1  H2  EPW O   
H1  H2  EPW O   H1  H2  EPW O   H1  H2  EPW O   H1  H2  EPW O   H1  H2  EPW O   
H1  H2  EPW O   H1  H2  EPW O   H1  H2  EPW O   H1  H2  EPW O   H1  H2  EPW O   
H1  H2  EPW O   H1  H2  EPW O   H1  H2  EPW O   H1  H2  EPW O   H1  H2  EPW O   
H1  H2  EPW O   H1  H2  EPW O   H1  H2  EPW O   H1  H2  EPW O   H1  H2  EPW O   
H1  H2  EPW O   H1  H2  EPW O   H1  H2  EPW O   H1  H2  EPW O   H1  H2  EPW O   
H1  H2  EPW O   H1  H2  EPW O   H1  H2  EPW O   H1  H2  EPW O   H1  H2  EPW O   
H1  H2  EPW O   H1  H2  EPW O   H1  H2  EPW O   H1  H2  EPW O   H1  H2  EPW O   
H1  H2  EPW O   H1  H2  EPW O   H1  H2  EPW O   H1  H2  EPW O   H1  H2  EPW O   
H1  H2  EPW O   H1  H2  EPW O   H1  H2  EPW O   H1  H2  EPW O   H1  H2  EPW O   
H1  H2  EPW O   H1  H2  EPW O   H1  H2  EPW O   H1  H2  EPW O   H1  H2  EPW O   
H1  H2  EPW O   H1  H2  EPW O   H1  H2  EPW O   H1  H2  EPW O   H1  H2  EPW O   
H1  H2  EPW O   H1  H2  EPW O   H1  H2  EPW O   H1  H2  EPW O   H1  H2  EPW O   
H1  H2  EPW O   H1  H2  EPW O   H1  H2  EPW O   H1  H2  EPW O   H1  H2  EPW O   
H1  H2  EPW O   H1  H2  EPW O   H1  H2  EPW O   H1  H2  EPW O   H1  H2  EPW O   
H1  H2  EPW O   H1  H2  EPW O   H1  H2  EPW O   H1  H2  EPW O   H1  H2  EPW O   
H1  H2  EPW O   H1  H2  EPW O   H1  H2  EPW O   H1  H2  EPW O   H1  H2  EPW O   
H1  H2  EPW O   H1  H2  EPW O   H1  H2  EPW O   H1  H2  EPW O   H1  H2  EPW O   
H1  H2  EPW O   H1  H2  EPW O   H1  H2  EPW O   H1  H2  EPW O   H1  H2  EPW O   
H1  H2  EPW O   H1  H2  EPW O   H1  H2  EPW O   H1  H2  EPW O   H1  H2  EPW O   
H1  H2  EPW O   H1  H2  EPW O   H1  H2  EPW O   H1  H2  EPW O   H1  H2  EPW O   
H1  H2  EPW O   H1  H2  EPW O   H1  H2  EPW O   H1  H2  EPW O   H1  H2  EPW O   
H1  H2  EPW O   H1  H2  EPW O   H1  H2  EPW O   H1  H2  EPW O   H1  H2  EPW O   
H1  H2  EPW O   H1  H2  EPW O   H1  H2  EPW O   H1  H2  EPW O   H1  H2  EPW O   
H1  H2  EPW O   H1  H2  EPW O   H1  H2  EPW O   H1  H2  EPW O   H1  H2  EPW O   
H1  H2  EPW O   H1  H2  EPW O   H1  H2  EPW O   H1  H2  EPW O   H1  H2  EPW O   
H1  H2  EPW O   H1  H2  EPW O   H1  H2  EPW O   H1  H2  EPW O   H1  H2  EPW O   
H1  H2  EPW O   H1  H2  EPW O   H1  H2  EPW O   H1  H2  EPW O   H1  H2  EPW O   
H1  H2  EPW O   H1  H2  EPW O   H1  H2  EPW O   H1  H2  EPW O   H1  H2  EPW O   
H1  H2  EPW O   H1  H2  EPW O   H1  H2  EPW O   H1  H2  EPW O   H1  H2  EPW O   
H1  H2  EPW O   H1  H2  EPW O   H1  H2  EPW O   H1  H2  EPW O   H1  H2  EPW O   
H1  H2  EPW O   H1  H2  EPW O   H1  H2  EPW O   H1  H2  EPW O   H1  H2  EPW O   
H1  H2  EPW O   H1  H2  EPW O   H1  H2  EPW O   H1  H2  EPW O   H1  H2  EPW O   
H1  H2  EPW O   H1  H2  EPW O   H1  H2  EPW O   H1  H2  EPW O   H1  H2  EPW O   
H1  H2  EPW O   H1  H2  EPW O   H1  H2  EPW O   H1  H2  EPW O   H1  H2  EPW O   
H1  H2  EPW O   H1  H2  EPW O   H1  H2  EPW O   H1  H2  EPW O   H1  H2  EPW O   
H1  H2  EPW O   H1  H2  EPW O   H1  H2  EPW O   H1  H2  EPW O   H1  H2  EPW O   
H1  H2  EPW O   H1  H2  EPW O   H1  H2  EPW O   H1  H2  EPW O   H1  H2  EPW O   
H1  H2  EPW O   H1  H2  EPW O   H1  H2  EPW O   H1  H2  EPW O   H1  H2  EPW O   
H1  H2  EPW O   H1  H2  EPW O   H1  H2  EPW O   H1  H2  EPW O   H1  H2  EPW O   
H1  H2  EPW O   H1  H2  EPW O   H1  H2  EPW O   H1  H2  EPW O   H1  H2  EPW O   
H1  H2  EPW O   H1  H2  EPW O   H1  H2  EPW O   H1  H2  EPW O   H1  H2  EPW O   
H1  H2  EPW O   H1  H2  EPW O   H1  H2  EPW O   H1  H2  EPW O   H1  H2  EPW O   
H1  H2  EPW O   H1  H2  EPW O   H1  H2  EPW O   H1  H2  EPW O   H1  H2  EPW O   
H1  H2  EPW O   H1  H2  EPW O   H1  H2  EPW O   H1  H2  EPW O   H1  H2  EPW O   
H1  H2  EPW O   H1  H2  EPW O   H1  H2  EPW O   H1  H2  EPW O   H1  H2  EPW O   
H1  H2  EPW O   H1  H2  EPW O   H1  H2  EPW O   H1  H2  EPW O   H1  H2  EPW O   
H1  H2  EPW O   H1  H2  EPW O   H1  H2  EPW O   H1  H2  EPW O   H1  H2  EPW O   
H1  H2  EPW O   H1  H2  EPW O   H1  H2  EPW O   H1  H2  EPW O   H1  H2  EPW O   
H1  H2  EPW O   H1  H2  EPW O   H1  H2  EPW O   H1  H2  EPW O   H1  H2  EPW O   
H1  H2  EPW O   H1  H2  EPW O   H1  H2  EPW O   H1  H2  EPW O   H1  H2  EPW O   
H1  H2  EPW O   H1  H2  EPW O   H1  H2  EPW O   H1  H2  EPW O   H1  H2  EPW O   
H1  H2  EPW O   H1  H2  EPW O   H1  H2  EPW O   H1  H2  EPW O   H1  H2  EPW O   
H1  H2  EPW O   H1  H2  EPW O   H1  H2  EPW O   H1  H2  EPW O   H1  H2  EPW O   
H1  H2  EPW O   H1  H2  EPW O   H1  H2  EPW O   H1  H2  EPW O   H1  H2  EPW O   
H1  H2  EPW O   H1  H2  EPW O   H1  H2  EPW O   H1  H2  EPW O   H1  H2  EPW O   
H1  H2  EPW O   H1  H2  EPW O   H1  H2  EPW O   H1  H2  EPW O   H1  H2  EPW O   
H1  H2  EPW O   H1  H2  EPW O   H1  H2  EPW O   H1  H2  EPW O   H1  H2  EPW O   
H1  H2  EPW O   H1  H2  EPW O   H1  H2  EPW O   H1  H2  EPW O   H1  H2  EPW O   
H1  H2  EPW O   H1  H2  EPW O   H1  H2  EPW O   H1  H2  EPW O   H1  H2  EPW O   
H1  H2  EPW O   H1  H2  EPW O   H1  H2  EPW O   H1  H2  EPW O   H1  H2  EPW O   
H1  H2  EPW O   H1  H2  EPW O   H1  H2  EPW O   H1  H2  EPW O   H1  H2  EPW O   
H1  H2  EPW O   H1  H2  EPW O   H1  H2  EPW O   H1  H2  EPW O   H1  H2  EPW O   
H1  H2  EPW O   H1  H2  EPW O   H1  H2  EPW O   H1  H2  EPW O   H1  H2  EPW O   
H1  H2  EPW O   H1  H2  EPW O   H1  H2  EPW O   H1  H2  EPW O   H1  H2  EPW O   
H1  H2  EPW O   H1  H2  EPW O   H1  H2  EPW O   H1  H2  EPW O   H1  H2  EPW O   
H1  H2  EPW O   H1  H2  EPW O   H1  H2  EPW O   H1  H2  EPW O   H1  H2  EPW O   
H1  H2  EPW O   H1  H2  EPW O   H1  H2  EPW O   H1  H2  EPW O   H1  H2  EPW O   
H1  H2  EPW O   H1  H2  EPW O   H1  H2  EPW O   H1  H2  EPW O   H1  H2  EPW O   
H1  H2  EPW O   H1  H2  EPW O   H1  H2  EPW O   H1  H2  EPW O   H1  H2  EPW O   
H1  H2  EPW O   H1  H2  EPW O   H1  H2  EPW O   H1  H2  EPW O   H1  H2  EPW O   
H1  H2  EPW O   H1  H2  EPW O   H1  H2  EPW O   H1  H2  EPW O   H1  H2  EPW O   
H1  H2  EPW O   H1  H2  EPW O   H1  H2  EPW O   H1  H2  EPW O   H1  H2  EPW O   
H1  H2  EPW O   H1  H2  EPW O   H1  H2  EPW O   H1  H2  EPW O   H1  H2  EPW O   
H1  H2  EPW O   H1  H2  EPW O   H1  H2  EPW O   H1  H2  EPW O   H1  H2  EPW O   
H1  H2  EPW O   H1  H2  EPW O   H1  H2  EPW O   H1  H2  EPW O   H1  H2  EPW O   
H1  H2  EPW O   H1  H2  EPW O   H1  H2  EPW O   H1  H2  EPW O   H1  H2  EPW O   
H1  H2  EPW O   H1  H2  EPW O   H1  H2  EPW O   H1  H2  EPW O   H1  H2  EPW O   
H1  H2  EPW O   H1  H2  EPW O   H1  H2  EPW O   H1  H2  EPW O   H1  H2  EPW O   
H1  H2  EPW O   H1  H2  EPW O   H1  H2  EPW O   H1  H2  EPW O   H1  H2  EPW O   
H1  H2  EPW O   H1  H2  EPW O   H1  H2  EPW O   H1  H2  EPW O   H1  H2  EPW O   
H1  H2  EPW O   H1  H2  EPW O   H1  H2  EPW O   H1  H2  EPW O   H1  H2  EPW O   
H1  H2  EPW O   H1  H2  EPW O   H1  H2  EPW O   H1  H2  EPW O   H1  H2  EPW O   
H1  H2  EPW O   H1  H2  EPW O   H1  H2  EPW O   H1  H2  EPW O   H1  H2  EPW O   
H1  H2  EPW O   H1  H2  EPW O   H1  H2  EPW O   H1  H2  EPW O   H1  H2  EPW O   
H1  H2  EPW O   H1  H2  EPW O   H1  H2  EPW O   H1  H2  EPW O   H1  H2  EPW O   
H1  H2  EPW O   H1  H2  EPW O   H1  H2  EPW O   H1  H2  EPW O   H1  H2  EPW O   
H1  H2  EPW O   H1  H2  EPW O   H1  H2  EPW O   H1  H2  EPW O   H1  H2  EPW O   
H1  H2  EPW O   H1  H2  EPW O   H1  H2  EPW O   H1  H2  EPW O   H1  H2  EPW O   
H1  H2  EPW O   H1  H2  EPW O   H1  H2  EPW O   H1  H2  EPW O   H1  H2  EPW O   
H1  H2  EPW O   H1  H2  EPW O   H1  H2  EPW O   H1  H2  EPW O   H1  H2  EPW O   
H1  H2  EPW O   H1  H2  EPW O   H1  H2  EPW O   H1  H2  EPW O   H1  H2  EPW O   
H1  H2  EPW O   H1  H2  EPW O   H1  H2  EPW O   H1  H2  EPW O   H1  H2  EPW O   
H1  H2  EPW O   H1  H2  EPW O   H1  H2  EPW O   H1  H2  EPW O   H1  H2  EPW O   
H1  H2  EPW O   H1  H2  EPW O   H1  H2  EPW O   H1  H2  EPW O   H1  H2  EPW O   
H1  H2  EPW O   H1  H2  EPW O   H1  H2  EPW O   H1  H2  EPW O   H1  H2  EPW O   
H1  H2  EPW O   H1  H2  EPW O   H1  H2  EPW O   H1  H2  EPW O   H1  H2  EPW O   
H1  H2  EPW O   H1  H2  EPW O   H1  H2  EPW O   H1  H2  EPW O   H1  H2  EPW O   
H1  H2  EPW O   H1  H2  EPW O   H1  H2  EPW O   H1  H2  EPW O   H1  H2  EPW O   
H1  H2  EPW O   H1  H2  EPW O   H1  H2  EPW O   H1  H2  EPW O   H1  H2  EPW O   
H1  H2  EPW O   H1  H2  EPW O   H1  H2  EPW O   H1  H2  EPW O   H1  H2  EPW O   
H1  H2  EPW O   H1  H2  EPW O   H1  H2  EPW O   H1  H2  EPW O   H1  H2  EPW O   
H1  H2  EPW O   H1  H2  EPW O   H1  H2  EPW O   H1  H2  EPW O   H1  H2  EPW O   
H1  H2  EPW O   H1  H2  EPW O   H1  H2  EPW O   H1  H2  EPW O   H1  H2  EPW O   
H1  H2  EPW O   H1  H2  EPW O   H1  H2  EPW O   H1  H2  EPW O   H1  H2  EPW O   
H1  H2  EPW O   H1  H2  EPW O   H1  H2  EPW O   H1  H2  EPW O   H1  H2  EPW O   
H1  H2  EPW O   H1  H2  EPW O   H1  H2  EPW O   H1  H2  EPW O   H1  H2  EPW O   
H1  H2  EPW O   H1  H2  EPW O   H1  H2  EPW O   H1  H2  EPW O   H1  H2  EPW O   
H1  H2  EPW O   H1  H2  EPW O   H1  H2  EPW O   H1  H2  EPW O   H1  H2  EPW O   
H1  H2  EPW O   H1  H2  EPW O   H1  H2  EPW O   H1  H2  EPW O   H1  H2  EPW O   
H1  H2  EPW O   H1  H2  EPW O   H1  H2  EPW O   H1  H2  EPW O   H1  H2  EPW O   
H1  H2  EPW O   H1  H2  EPW O   H1  H2  EPW O   H1  H2  EPW O   H1  H2  EPW O   
H1  H2  EPW O   H1  H2  EPW O   H1  H2  EPW O   H1  H2  EPW O   H1  H2  EPW O   
H1  H2  EPW O   H1  H2  EPW O   H1  H2  EPW O   H1  H2  EPW O   H1  H2  EPW O   
H1  H2  EPW O   H1  H2  EPW O   H1  H2  EPW O   H1  H2  EPW O   H1  H2  EPW O   
H1  H2  EPW O   H1  H2  EPW O   H1  H2  EPW O   H1  H2  EPW O   H1  H2  EPW O   
H1  H2  EPW O   H1  H2  EPW O   H1  H2  EPW O   H1  H2  EPW O   H1  H2  EPW O   
H1  H2  EPW O   H1  H2  EPW O   H1  H2  EPW O   H1  H2  EPW O   H1  H2  EPW O   
H1  H2  EPW O   H1  H2  EPW O   H1  H2  EPW O   H1  H2  EPW O   H1  H2  EPW O   
H1  H2  EPW O   H1  H2  EPW O   H1  H2  EPW O   H1  H2  EPW O   H1  H2  EPW O   
H1  H2  EPW O   H1  H2  EPW O   H1  H2  EPW O   H1  H2  EPW O   H1  H2  EPW O   
H1  H2  EPW O   H1  H2  EPW O   H1  H2  EPW O   H1  H2  EPW O   H1  H2  EPW O   
H1  H2  EPW O   H1  H2  EPW O   H1  H2  EPW O   H1  H2  EPW O   H1  H2  EPW O   
H1  H2  EPW O   H1  H2  EPW O   H1  H2  EPW O   H1  H2  EPW O   H1  H2  EPW O   
H1  H2  EPW O   H1  H2  EPW O   H1  H2  EPW O   H1  H2  EPW O   H1  H2  EPW O   
H1  H2  EPW O   H1  H2  EPW O   H1  H2  EPW O   H1  H2  EPW O   H1  H2  EPW O   
H1  H2  EPW O   H1  H2  EPW O   H1  H2  EPW O   H1  H2  EPW O   H1  H2  EPW O   
H1  H2  EPW O   H1  H2  EPW O   H1  H2  EPW O   H1  H2  EPW O   H1  H2  EPW O   
H1  H2  EPW O   H1  H2  EPW O   H1  H2  EPW O   H1  H2  EPW O   H1  H2  EPW O   
H1  H2  EPW O   H1  H2  EPW O   H1  H2  EPW O   H1  H2  EPW O   H1  H2  EPW O   
H1  H2  EPW O   H1  H2  EPW O   H1  H2  EPW O   H1  H2  EPW O   H1  H2  EPW O   
H1  H2  EPW O   H1  H2  EPW O   H1  H2  EPW O   H1  H2  EPW O   H1  H2  EPW O   
H1  H2  EPW O   H1  H2  EPW O   H1  H2  EPW O   H1  H2  EPW O   H1  H2  EPW O   
H1  H2  EPW O   H1  H2  EPW O   H1  H2  EPW O   H1  H2  EPW O   H1  H2  EPW O   
H1  H2  EPW O   H1  H2  EPW O   H1  H2  EPW O   H1  H2  EPW O   H1  H2  EPW O   
H1  H2  EPW O   H1  H2  EPW O   H1  H2  EPW O   H1  H2  EPW O   H1  H2  EPW O   
H1  H2  EPW O   H1  H2  EPW O   H1  H2  EPW O   H1  H2  EPW O   H1  H2  EPW O   
H1  H2  EPW O   H1  H2  EPW O   H1  H2  EPW O   H1  H2  EPW O   H1  H2  EPW O   
H1  H2  EPW O   H1  H2  EPW O   H1  H2  EPW O   H1  H2  EPW O   H1  H2  EPW O   
H1  H2  EPW O   H1  H2  EPW O   H1  H2  EPW O   H1  H2  EPW O   H1  H2  EPW O   
H1  H2  EPW O   H1  H2  EPW O   H1  H2  EPW O   H1  H2  EPW O   H1  H2  EPW O   
H1  H2  EPW O   H1  H2  EPW O   H1  H2  EPW O   H1  H2  EPW O   H1  H2  EPW O   
H1  H2  EPW O   H1  H2  EPW O   H1  H2  EPW O   H1  H2  EPW O   H1  H2  EPW O   
H1  H2  EPW O   H1  H2  EPW O   H1  H2  EPW O   H1  H2  EPW O   H1  H2  EPW O   
H1  H2  EPW O   H1  H2  EPW O   H1  H2  EPW O   H1  H2  EPW O   H1  H2  EPW O   
H1  H2  EPW O   H1  H2  EPW O   H1  H2  EPW O   H1  H2  EPW O   H1  H2  EPW O   
H1  H2  EPW O   H1  H2  EPW O   H1  H2  EPW O   H1  H2  EPW O   H1  H2  EPW O   
H1  H2  EPW O   H1  H2  EPW O   H1  H2  EPW O   H1  H2  EPW O   H1  H2  EPW O   
H1  H2  EPW O   H1  H2  EPW O   H1  H2  EPW O   H1  H2  EPW O   H1  H2  EPW O   
H1  H2  EPW O   H1  H2  EPW O   H1  H2  EPW O   H1  H2  EPW O   H1  H2  EPW O   
H1  H2  EPW O   H1  H2  EPW O   H1  H2  EPW O   H1  H2  EPW O   H1  H2  EPW O   
H1  H2  EPW O   H1  H2  EPW O   H1  H2  EPW O   H1  H2  EPW O   H1  H2  EPW O   
H1  H2  EPW O   H1  H2  EPW O   H1  H2  EPW O   H1  H2  EPW O   H1  H2  EPW O   
H1  H2  EPW O   H1  H2  EPW O   H1  H2  EPW O   H1  H2  EPW O   H1  H2  EPW O   
H1  H2  EPW O   H1  H2  EPW O   H1  H2  EPW O   H1  H2  EPW O   H1  H2  EPW O   
H1  H2  EPW O   H1  H2  EPW O   H1  H2  EPW O   H1  H2  EPW O   H1  H2  EPW O   
H1  H2  EPW O   H1  H2  EPW O   H1  H2  EPW O   H1  H2  EPW O   H1  H2  EPW O   
H1  H2  EPW O   H1  H2  EPW O   H1  H2  EPW O   H1  H2  EPW O   H1  H2  EPW O   
H1  H2  EPW O   H1  H2  EPW O   H1  H2  EPW O   H1  H2  EPW O   H1  H2  EPW O   
H1  H2  EPW O   H1  H2  EPW O   H1  H2  EPW O   H1  H2  EPW O   H1  H2  EPW O   
H1  H2  EPW O   H1  H2  EPW O   H1  H2  EPW O   H1  H2  EPW O   H1  H2  EPW O   
H1  H2  EPW O   H1  H2  EPW O   H1  H2  EPW O   H1  H2  EPW O   H1  H2  EPW O   
H1  H2  EPW O   H1  H2  EPW O   H1  H2  EPW O   H1  H2  EPW O   H1  H2  EPW O   
H1  H2  EPW O   H1  H2  EPW O   H1  H2  EPW O   H1  H2  EPW O   H1  H2  EPW O   
H1  H2  EPW O   H1  H2  EPW O   H1  H2  EPW O   H1  H2  EPW O   H1  H2  EPW O   
H1  H2  EPW O   H1  H2  EPW O   H1  H2  EPW O   H1  H2  EPW O   H1  H2  EPW O   
H1  H2  EPW O   H1  H2  EPW O   H1  H2  EPW O   H1  H2  EPW O   H1  H2  EPW O   
H1  H2  EPW O   H1  H2  EPW O   H1  H2  EPW O   H1  H2  EPW O   H1  H2  EPW O   
H1  H2  EPW O   H1  H2  EPW O   H1  H2  EPW O   H1  H2  EPW O   H1  H2  EPW O   
H1  H2  EPW O   H1  H2  EPW O   H1  H2  EPW O   H1  H2  EPW O   H1  H2  EPW O   
H1  H2  EPW O   H1  H2  EPW O   H1  H2  EPW O   H1  H2  EPW O   H1  H2  EPW O   
H1  H2  EPW O   H1  H2  EPW O   H1  H2  EPW O   H1  H2  EPW O   H1  H2  EPW O   
H1  H2  EPW O   H1  H2  EPW O   H1  H2  EPW O   H1  H2  EPW O   H1  H2  EPW O   
H1  H2  EPW O   H1  H2  EPW O   H1  H2  EPW O   H1  H2  EPW O   H1  H2  EPW O   
H1  H2  EPW O   H1  H2  EPW O   H1  H2  EPW O   H1  H2  EPW O   H1  H2  EPW O   
H1  H2  EPW O   H1  H2  EPW O   H1  H2  EPW O   H1  H2  EPW O   H1  H2  EPW O   
H1  H2  EPW O   H1  H2  EPW O   H1  H2  EPW O   H1  H2  EPW O   H1  H2  EPW O   
H1  H2  EPW O   H1  H2  EPW O   H1  H2  EPW O   H1  H2  EPW O   H1  H2  EPW O   
H1  H2  EPW O   H1  H2  EPW O   H1  H2  EPW O   H1  H2  EPW O   H1  H2  EPW O   
H1  H2  EPW O   H1  H2  EPW O   H1  H2  EPW O   H1  H2  EPW O   H1  H2  EPW O   
H1  H2  EPW O   H1  H2  EPW O   H1  H2  EPW O   H1  H2  EPW O   H1  H2  EPW O   
H1  H2  EPW O   H1  H2  EPW O   H1  H2  EPW O   H1  H2  EPW O   H1  H2  EPW O   
H1  H2  EPW O   H1  H2  EPW O   H1  H2  EPW O   H1  H2  EPW O   H1  H2  EPW O   
H1  H2  EPW O   H1  H2  EPW O   H1  H2  EPW O   H1  H2  EPW O   H1  H2  EPW O   
H1  H2  EPW O   H1  H2  EPW O   H1  H2  EPW O   H1  H2  EPW O   H1  H2  EPW O   
H1  H2  EPW O   H1  H2  EPW O   H1  H2  EPW O   H1  H2  EPW O   H1  H2  EPW O   
H1  H2  EPW O   H1  H2  EPW O   H1  H2  EPW O   H1  H2  EPW O   H1  H2  EPW O   
H1  H2  EPW O   H1  H2  EPW O   H1  H2  EPW O   H1  H2  EPW O   H1  H2  EPW O   
H1  H2  EPW O   H1  H2  EPW O   H1  H2  EPW O   H1  H2  EPW O   H1  H2  EPW O   
H1  H2  EPW O   H1  H2  EPW O   H1  H2  EPW O   H1  H2  EPW O   H1  H2  EPW O   
H1  H2  EPW O   H1  H2  EPW O   H1  H2  EPW O   H1  H2  EPW O   H1  H2  EPW O   
H1  H2  EPW O   H1  H2  EPW O   H1  H2  EPW O   H1  H2  EPW O   H1  H2  EPW O   
H1  H2  EPW O   H1  H2  EPW O   H1  H2  EPW O   H1  H2  EPW O   H1  H2  EPW O   
H1  H2  EPW O   H1  H2  EPW O   H1  H2  EPW O   H1  H2  EPW O   H1  H2  EPW O   
H1  H2  EPW O   H1  H2  EPW O   H1  H2  EPW O   H1  H2  EPW O   H1  H2  EPW O   
H1  H2  EPW O   H1  H2  EPW O   H1  H2  EPW O   H1  H2  EPW O   H1  H2  EPW O   
H1  H2  EPW O   H1  H2  EPW O   H1  H2  EPW O   H1  H2  EPW O   H1  H2  EPW O   
H1  H2  EPW O   H1  H2  EPW O   H1  H2  EPW O   H1  H2  EPW O   H1  H2  EPW O   
H1  H2  EPW O   H1  H2  EPW O   H1  H2  EPW O   H1  H2  EPW O   H1  H2  EPW O   
H1  H2  EPW O   H1  H2  EPW O   H1  H2  EPW O   H1  H2  EPW O   H1  H2  EPW O   
H1  H2  EPW O   H1  H2  EPW O   H1  H2  EPW O   H1  H2  EPW O   H1  H2  EPW O   
H1  H2  EPW O   H1  H2  EPW O   H1  H2  EPW O   H1  H2  EPW O   H1  H2  EPW O   
H1  H2  EPW O   H1  H2  EPW O   H1  H2  EPW O   H1  H2  EPW O   H1  H2  EPW O   
H1  H2  EPW O   H1  H2  EPW O   H1  H2  EPW O   H1  H2  EPW O   H1  H2  EPW O   
H1  H2  EPW O   H1  H2  EPW O   H1  H2  EPW O   H1  H2  EPW O   H1  H2  EPW O   
H1  H2  EPW O   H1  H2  EPW O   H1  H2  EPW O   H1  H2  EPW O   H1  H2  EPW O   
H1  H2  EPW O   H1  H2  EPW O   H1  H2  EPW O   H1  H2  EPW O   H1  H2  EPW O   
H1  H2  EPW O   H1  H2  EPW O   H1  H2  EPW O   H1  H2  EPW O   H1  H2  EPW O   
H1  H2  EPW O   H1  H2  EPW O   H1  H2  EPW O   H1  H2  EPW O   H1  H2  EPW O   
H1  H2  EPW O   H1  H2  EPW O   H1  H2  EPW O   H1  H2  EPW O   H1  H2  EPW O   
H1  H2  EPW O   H1  H2  EPW O   H1  H2  EPW O   H1  H2  EPW O   H1  H2  EPW O   
H1  H2  EPW O   H1  H2  EPW O   H1  H2  EPW O   H1  H2  EPW O   H1  H2  EPW O   
H1  H2  EPW O   H1  H2  EPW O   H1  H2  EPW O   H1  H2  EPW O   H1  H2  EPW O   
H1  H2  EPW O   H1  H2  EPW O   H1  H2  EPW O   H1  H2  EPW O   H1  H2  EPW O   
H1  H2  EPW O   H1  H2  EPW O   H1  H2  EPW O   H1  H2  EPW O   H1  H2  EPW O   
H1  H2  EPW O   H1  H2  EPW O   H1  H2  EPW O   H1  H2  EPW O   H1  H2  EPW O   
H1  H2  EPW O   H1  H2  EPW O   H1  H2  EPW O   H1  H2  EPW O   H1  H2  EPW O   
H1  H2  EPW O   H1  H2  EPW O   H1  H2  EPW O   H1  H2  EPW O   H1  H2  EPW O   
H1  H2  EPW O   H1  H2  EPW O   H1  H2  EPW O   H1  H2  EPW O   H1  H2  EPW O   
H1  H2  EPW O   H1  H2  EPW O   H1  H2  EPW O   H1  H2  EPW O   H1  H2  EPW O   
H1  H2  EPW O   H1  H2  EPW O   H1  H2  EPW O   H1  H2  EPW O   H1  H2  EPW O   
H1  H2  EPW O   H1  H2  EPW O   H1  H2  EPW O   H1  H2  EPW O   H1  H2  EPW O   
H1  H2  EPW O   H1  H2  EPW O   H1  H2  EPW O   H1  H2  EPW O   H1  H2  EPW O   
H1  H2  EPW O   H1  H2  EPW O   H1  H2  EPW O   H1  H2  EPW O   H1  H2  EPW O   
H1  H2  EPW O   H1  H2  EPW O   H1  H2  EPW O   H1  H2  EPW O   H1  H2  EPW O   
H1  H2  EPW O   H1  H2  EPW O   H1  H2  EPW O   H1  H2  EPW O   H1  H2  EPW O   
H1  H2  EPW O   H1  H2  EPW O   H1  H2  EPW O   H1  H2  EPW O   H1  H2  EPW O   
H1  H2  EPW O   H1  H2  EPW O   H1  H2  EPW O   H1  H2  EPW O   H1  H2  EPW O   
H1  H2  EPW O   H1  H2  EPW O   H1  H2  EPW O   H1  H2  EPW O   H1  H2  EPW O   
H1  H2  EPW O   H1  H2  EPW O   H1  H2  EPW O   H1  H2  EPW O   H1  H2  EPW O   
H1  H2  EPW O   H1  H2  EPW O   H1  H2  EPW O   H1  H2  EPW O   H1  H2  EPW O   
H1  H2  EPW O   H1  H2  EPW O   H1  H2  EPW O   H1  H2  EPW O   H1  H2  EPW O   
H1  H2  EPW O   H1  H2  EPW O   H1  H2  EPW O   H1  H2  EPW O   H1  H2  EPW O   
H1  H2  EPW O   H1  H2  EPW O   H1  H2  EPW O   H1  H2  EPW O   H1  H2  EPW O   
H1  H2  EPW O   H1  H2  EPW O   H1  H2  EPW O   H1  H2  EPW O   H1  H2  EPW O   
H1  H2  EPW O   H1  H2  EPW O   H1  H2  EPW O   H1  H2  EPW O   H1  H2  EPW O   
H1  H2  EPW O   H1  H2  EPW O   H1  H2  EPW O   H1  H2  EPW O   H1  H2  EPW O   
H1  H2  EPW O   H1  H2  EPW O   H1  H2  EPW O   H1  H2  EPW O   H1  H2  EPW O   
H1  H2  EPW O   H1  H2  EPW O   H1  H2  EPW O   H1  H2  EPW O   H1  H2  EPW O   
H1  H2  EPW O   H1  H2  EPW O   H1  H2  EPW O   H1  H2  EPW O   H1  H2  EPW O   
H1  H2  EPW O   H1  H2  EPW O   H1  H2  EPW O   H1  H2  EPW O   H1  H2  EPW O   
H1  H2  EPW O   H1  H2  EPW O   H1  H2  EPW O   H1  H2  EPW O   H1  H2  EPW O   
H1  H2  EPW O   H1  H2  EPW O   H1  H2  EPW O   H1  H2  EPW O   H1  H2  EPW O   
H1  H2  EPW O   H1  H2  EPW O   H1  H2  EPW O   H1  H2  EPW O   H1  H2  EPW O   
H1  H2  EPW O   H1  H2  EPW O   H1  H2  EPW O   H1  H2  EPW O   H1  H2  EPW O   
H1  H2  EPW O   H1  H2  EPW O   H1  H2  EPW O   H1  H2  EPW O   H1  H2  EPW O   
H1  H2  EPW O   H1  H2  EPW O   H1  H2  EPW O   H1  H2  EPW O   H1  H2  EPW O   
H1  H2  EPW O   H1  H2  EPW O   H1  H2  EPW O   H1  H2  EPW O   H1  H2  EPW O   
H1  H2  EPW O   H1  H2  EPW O   H1  H2  EPW O   H1  H2  EPW O   H1  H2  EPW O   
H1  H2  EPW O   H1  H2  EPW O   H1  H2  EPW O   H1  H2  EPW O   H1  H2  EPW O   
H1  H2  EPW O   H1  H2  EPW O   H1  H2  EPW O   H1  H2  EPW O   H1  H2  EPW O   
H1  H2  EPW O   H1  H2  EPW O   H1  H2  EPW O   H1  H2  EPW O   H1  H2  EPW O   
H1  H2  EPW O   H1  H2  EPW O   H1  H2  EPW O   H1  H2  EPW O   H1  H2  EPW O   
H1  H2  EPW O   H1  H2  EPW O   H1  H2  EPW O   H1  H2  EPW O   H1  H2  EPW O   
H1  H2  EPW O   H1  H2  EPW O   H1  H2  EPW O   H1  H2  EPW O   H1  H2  EPW O   
H1  H2  EPW O   H1  H2  EPW O   H1  H2  EPW O   H1  H2  EPW O   H1  H2  EPW O   
H1  H2  EPW O   H1  H2  EPW O   H1  H2  EPW O   H1  H2  EPW O   H1  H2  EPW O   
H1  H2  EPW O   H1  H2  EPW O   H1  H2  EPW O   H1  H2  EPW O   H1  H2  EPW O   
H1  H2  EPW O   H1  H2  EPW O   H1  H2  EPW O   H1  H2  EPW O   H1  H2  EPW O   
H1  H2  EPW O   H1  H2  EPW O   H1  H2  EPW O   H1  H2  EPW O   H1  H2  EPW O   
H1  H2  EPW O   H1  H2  EPW O   H1  H2  EPW O   H1  H2  EPW O   H1  H2  EPW O   
H1  H2  EPW O   H1  H2  EPW O   H1  H2  EPW O   H1  H2  EPW O   H1  H2  EPW O   
H1  H2  EPW O   H1  H2  EPW O   H1  H2  EPW O   H1  H2  EPW O   H1  H2  EPW O   
H1  H2  EPW O   H1  H2  EPW O   H1  H2  EPW O   H1  H2  EPW O   H1  H2  EPW O   
H1  H2  EPW O   H1  H2  EPW O   H1  H2  EPW O   H1  H2  EPW O   H1  H2  EPW O   
H1  H2  EPW O   H1  H2  EPW O   H1  H2  EPW O   H1  H2  EPW O   H1  H2  EPW O   
H1  H2  EPW O   H1  H2  EPW O   H1  H2  EPW O   H1  H2  EPW O   H1  H2  EPW O   
H1  H2  EPW O   H1  H2  EPW O   H1  H2  EPW O   H1  H2  EPW O   H1  H2  EPW O   
H1  H2  EPW O   H1  H2  EPW O   H1  H2  EPW O   H1  H2  EPW O   H1  H2  EPW O   
H1  H2  EPW O   H1  H2  EPW O   H1  H2  EPW O   H1  H2  EPW O   H1  H2  EPW O   
H1  H2  EPW O   H1  H2  EPW O   H1  H2  EPW O   H1  H2  EPW O   H1  H2  EPW O   
H1  H2  EPW O   H1  H2  EPW O   H1  H2  EPW O   H1  H2  EPW O   H1  H2  EPW O   
H1  H2  EPW O   H1  H2  EPW O   H1  H2  EPW O   H1  H2  EPW O   H1  H2  EPW O   
H1  H2  EPW O   H1  H2  EPW O   H1  H2  EPW O   H1  H2  EPW O   H1  H2  EPW O   
H1  H2  EPW O   H1  H2  EPW O   H1  H2  EPW O   H1  H2  EPW O   H1  H2  EPW O   
H1  H2  EPW O   H1  H2  EPW O   H1  H2  EPW O   H1  H2  EPW O   H1  H2  EPW O   
H1  H2  EPW O   H1  H2  EPW O   H1  H2  EPW O   H1  H2  EPW O   H1  H2  EPW O   
H1  H2  EPW O   H1  H2  EPW O   H1  H2  EPW O   H1  H2  EPW O   H1  H2  EPW O   
H1  H2  EPW O   H1  H2  EPW O   H1  H2  EPW O   H1  H2  EPW O   H1  H2  EPW O   
H1  H2  EPW O   H1  H2  EPW O   H1  H2  EPW O   H1  H2  EPW O   H1  H2  EPW O   
H1  H2  EPW O   H1  H2  EPW O   H1  H2  EPW O   H1  H2  EPW O   H1  H2  EPW O   
H1  H2  EPW O   H1  H2  EPW O   H1  H2  EPW O   H1  H2  EPW O   H1  H2  EPW O   
H1  H2  EPW O   H1  H2  EPW O   H1  H2  EPW O   H1  H2  EPW O   H1  H2  EPW O   
H1  H2  EPW O   H1  H2  EPW O   H1  H2  EPW O   H1  H2  EPW O   H1  H2  EPW O   
H1  H2  EPW O   H1  H2  EPW O   H1  H2  EPW O   H1  H2  EPW O   H1  H2  EPW O   
H1  H2  EPW O   H1  H2  EPW O   H1  H2  EPW O   H1  H2  EPW O   H1  H2  EPW O   
H1  H2  EPW O   H1  H2  EPW O   H1  H2  EPW O   H1  H2  EPW O   H1  H2  EPW O   
H1  H2  EPW O   H1  H2  EPW O   H1  H2  EPW O   H1  H2  EPW O   H1  H2  EPW O   
H1  H2  EPW O   H1  H2  EPW O   H1  H2  EPW O   H1  H2  EPW O   H1  H2  EPW O   
H1  H2  EPW O   H1  H2  EPW O   H1  H2  EPW O   H1  H2  EPW O   H1  H2  EPW O   
H1  H2  EPW O   H1  H2  EPW O   H1  H2  EPW O   H1  H2  EPW O   H1  H2  EPW O   
H1  H2  EPW O   H1  H2  EPW O   H1  H2  EPW O   H1  H2  EPW O   H1  H2  EPW O   
H1  H2  EPW O   H1  H2  EPW O   H1  H2  EPW O   H1  H2  EPW O   H1  H2  EPW O   
H1  H2  EPW O   H1  H2  EPW O   H1  H2  EPW O   H1  H2  EPW O   H1  H2  EPW O   
H1  H2  EPW O   H1  H2  EPW O   H1  H2  EPW O   H1  H2  EPW O   H1  H2  EPW O   
H1  H2  EPW O   H1  H2  EPW O   H1  H2  EPW O   H1  H2  EPW O   H1  H2  EPW O   
H1  H2  EPW O   H1  H2  EPW O   H1  H2  EPW O   H1  H2  EPW O   H1  H2  EPW O   
H1  H2  EPW O   H1  H2  EPW O   H1  H2  EPW O   H1  H2  EPW O   H1  H2  EPW O   
H1  H2  EPW O   H1  H2  EPW O   H1  H2  EPW O   H1  H2  EPW O   H1  H2  EPW O   
H1  H2  EPW O   H1  H2  EPW O   H1  H2  EPW O   H1  H2  EPW O   H1  H2  EPW O   
H1  H2  EPW O   H1  H2  EPW O   H1  H2  EPW O   H1  H2  EPW O   H1  H2  EPW O   
H1  H2  EPW O   H1  H2  EPW O   H1  H2  EPW O   H1  H2  EPW O   H1  H2  EPW O   
H1  H2  EPW O   H1  H2  EPW O   H1  H2  EPW O   H1  H2  EPW O   H1  H2  EPW O   
H1  H2  EPW O   H1  H2  EPW O   H1  H2  EPW O   H1  H2  EPW O   H1  H2  EPW O   
H1  H2  EPW O   H1  H2  EPW O   H1  H2  EPW O   H1  H2  EPW O   H1  H2  EPW O   
H1  H2  EPW O   H1  H2  EPW O   H1  H2  EPW O   H1  H2  EPW O   H1  H2  EPW O   
H1  H2  EPW O   H1  H2  EPW O   H1  H2  EPW O   H1  H2  EPW O   H1  H2  EPW O   
H1  H2  EPW O   H1  H2  EPW O   H1  H2  EPW O   H1  H2  EPW O   H1  H2  EPW O   
H1  H2  EPW O   H1  H2  EPW O   H1  H2  EPW O   H1  H2  EPW O   H1  H2  EPW O   
H1  H2  EPW O   H1  H2  EPW O   H1  H2  EPW O   H1  H2  EPW O   H1  H2  EPW O   
H1  H2  EPW O   H1  H2  EPW O   H1  H2  EPW O   H1  H2  EPW O   H1  H2  EPW O   
H1  H2  EPW O   H1  H2  EPW O   H1  H2  EPW O   H1  H2  EPW O   H1  H2  EPW O   
H1  H2  EPW O   H1  H2  EPW O   H1  H2  EPW O   H1  H2  EPW O   H1  H2  EPW O   
H1  H2  EPW O   H1  H2  EPW O   H1  H2  EPW O   H1  H2  EPW O   H1  H2  EPW O   
H1  H2  EPW O   H1  H2  EPW O   H1  H2  EPW O   H1  H2  EPW O   H1  H2  EPW O   
H1  H2  EPW O   H1  H2  EPW O   H1  H2  EPW O   H1  H2  EPW O   H1  H2  EPW O   
H1  H2  EPW O   H1  H2  EPW O   H1  H2  EPW O   H1  H2  EPW O   H1  H2  EPW O   
H1  H2  EPW O   H1  H2  EPW O   H1  H2  EPW O   H1  H2  EPW O   H1  H2  EPW O   
H1  H2  EPW O   H1  H2  EPW O   H1  H2  EPW O   H1  H2  EPW O   H1  H2  EPW O   
H1  H2  EPW O   H1  H2  EPW O   H1  H2  EPW O   H1  H2  EPW O   H1  H2  EPW O   
H1  H2  EPW O   H1  H2  EPW O   H1  H2  EPW O   H1  H2  EPW O   H1  H2  EPW O   
H1  H2  EPW O   H1  H2  EPW O   H1  H2  EPW O   H1  H2  EPW O   H1  H2  EPW O   
H1  H2  EPW O   H1  H2  EPW O   H1  H2  EPW O   H1  H2  EPW O   H1  H2  EPW O   
H1  H2  EPW O   H1  H2  EPW O   H1  H2  EPW O   H1  H2  EPW O   H1  H2  EPW O   
H1  H2  EPW O   H1  H2  EPW O   H1  H2  EPW O   H1  H2  EPW O   H1  H2  EPW O   
H1  H2  EPW O   H1  H2  EPW O   H1  H2  EPW O   H1  H2  EPW O   H1  H2  EPW O   
H1  H2  EPW O   H1  H2  EPW O   H1  H2  EPW O   H1  H2  EPW O   H1  H2  EPW O   
H1  H2  EPW O   H1  H2  EPW O   H1  H2  EPW O   H1  H2  EPW O   H1  H2  EPW O   
H1  H2  EPW O   H1  H2  EPW O   H1  H2  EPW O   H1  H2  EPW O   H1  H2  EPW O   
H1  H2  EPW O   H1  H2  EPW O   H1  H2  EPW O   H1  H2  EPW O   H1  H2  EPW O   
H1  H2  EPW O   H1  H2  EPW O   H1  H2  EPW O   H1  H2  EPW O   H1  H2  EPW O   
H1  H2  EPW O   H1  H2  EPW O   H1  H2  EPW O   H1  H2  EPW O   H1  H2  EPW O   
H1  H2  EPW O   H1  H2  EPW O   H1  H2  EPW O   H1  H2  EPW O   H1  H2  EPW O   
H1  H2  EPW O   H1  H2  EPW O   H1  H2  EPW O   H1  H2  EPW O   H1  H2  EPW O   
H1  H2  EPW O   H1  H2  EPW O   H1  H2  EPW O   H1  H2  EPW O   H1  H2  EPW O   
H1  H2  EPW O   H1  H2  EPW O   H1  H2  EPW O   H1  H2  EPW O   H1  H2  EPW O   
H1  H2  EPW O   H1  H2  EPW O   H1  H2  EPW O   H1  H2  EPW O   H1  H2  EPW O   
H1  H2  EPW O   H1  H2  EPW O   H1  H2  EPW O   H1  H2  EPW O   H1  H2  EPW O   
H1  H2  EPW O   H1  H2  EPW O   H1  H2  EPW O   H1  H2  EPW O   H1  H2  EPW O   
H1  H2  EPW O   H1  H2  EPW O   H1  H2  EPW O   H1  H2  EPW O   H1  H2  EPW O   
H1  H2  EPW O   H1  H2  EPW O   H1  H2  EPW O   H1  H2  EPW O   H1  H2  EPW O   
H1  H2  EPW O   H1  H2  EPW O   H1  H2  EPW O   H1  H2  EPW O   H1  H2  EPW O   
H1  H2  EPW O   H1  H2  EPW O   H1  H2  EPW O   H1  H2  EPW O   H1  H2  EPW O   
H1  H2  EPW O   H1  H2  EPW O   H1  H2  EPW O   H1  H2  EPW O   H1  H2  EPW O   
H1  H2  EPW O   H1  H2  EPW O   H1  H2  EPW O   H1  H2  EPW O   H1  H2  EPW O   
H1  H2  EPW O   H1  H2  EPW O   H1  H2  EPW O   H1  H2  EPW O   H1  H2  EPW O   
H1  H2  EPW O   H1  H2  EPW O   H1  H2  EPW O   H1  H2  EPW O   H1  H2  EPW O   
H1  H2  EPW O   H1  H2  EPW O   H1  H2  EPW O   H1  H2  EPW O   H1  H2  EPW O   
H1  H2  EPW O   H1  H2  EPW O   H1  H2  EPW O   H1  H2  EPW O   H1  H2  EPW O   
H1  H2  EPW O   H1  H2  EPW O   H1  H2  EPW O   H1  H2  EPW O   H1  H2  EPW O   
H1  H2  EPW O   H1  H2  EPW O   H1  H2  EPW O   H1  H2  EPW O   H1  H2  EPW O   
H1  H2  EPW O   H1  H2  EPW O   H1  H2  EPW O   H1  H2  EPW O   H1  H2  EPW O   
H1  H2  EPW O   H1  H2  EPW O   H1  H2  EPW O   H1  H2  EPW O   H1  H2  EPW O   
H1  H2  EPW O   H1  H2  EPW O   H1  H2  EPW O   H1  H2  EPW O   H1  H2  EPW O   
H1  H2  EPW O   H1  H2  EPW O   H1  H2  EPW O   H1  H2  EPW O   H1  H2  EPW O   
H1  H2  EPW O   H1  H2  EPW O   H1  H2  EPW O   H1  H2  EPW O   H1  H2  EPW O   
H1  H2  EPW O   H1  H2  EPW O   H1  H2  EPW O   H1  H2  EPW O   H1  H2  EPW O   
H1  H2  EPW O   H1  H2  EPW O   H1  H2  EPW O   H1  H2  EPW O   H1  H2  EPW O   
H1  H2  EPW O   H1  H2  EPW O   H1  H2  EPW O   H1  H2  EPW O   H1  H2  EPW O   
H1  H2  EPW O   H1  H2  EPW O   H1  H2  EPW O   H1  H2  EPW O   H1  H2  EPW O   
H1  H2  EPW O   H1  H2  EPW O   H1  H2  EPW O   H1  H2  EPW O   H1  H2  EPW O   
H1  H2  EPW O   H1  H2  EPW O   H1  H2  EPW O   H1  H2  EPW O   H1  H2  EPW O   
H1  H2  EPW O   H1  H2  EPW O   H1  H2  EPW O   H1  H2  EPW O   H1  H2  EPW O   
H1  H2  EPW O   H1  H2  EPW O   H1  H2  EPW O   H1  H2  EPW O   H1  H2  EPW O   
H1  H2  EPW O   H1  H2  EPW O   H1  H2  EPW O   H1  H2  EPW O   H1  H2  EPW O   
H1  H2  EPW O   H1  H2  EPW O   H1  H2  EPW O   H1  H2  EPW O   H1  H2  EPW O   
H1  H2  EPW O   H1  H2  EPW O   H1  H2  EPW O   H1  H2  EPW O   H1  H2  EPW O   
H1  H2  EPW O   H1  H2  EPW O   H1  H2  EPW O   H1  H2  EPW O   H1  H2  EPW O   
H1  H2  EPW O   H1  H2  EPW O   H1  H2  EPW O   H1  H2  EPW O   H1  H2  EPW O   
H1  H2  EPW O   H1  H2  EPW O   H1  H2  EPW O   H1  H2  EPW O   H1  H2  EPW O   
H1  H2  EPW O   H1  H2  EPW O   H1  H2  EPW O   H1  H2  EPW O   H1  H2  EPW O   
H1  H2  EPW O   H1  H2  EPW O   H1  H2  EPW O   H1  H2  EPW O   H1  H2  EPW O   
H1  H2  EPW O   H1  H2  EPW O   H1  H2  EPW O   H1  H2  EPW O   H1  H2  EPW O   
H1  H2  EPW O   H1  H2  EPW O   H1  H2  EPW O   H1  H2  EPW O   H1  H2  EPW O   
H1  H2  EPW O   H1  H2  EPW O   H1  H2  EPW O   H1  H2  EPW O   H1  H2  EPW O   
H1  H2  EPW O   H1  H2  EPW O   H1  H2  EPW O   H1  H2  EPW O   H1  H2  EPW O   
H1  H2  EPW O   H1  H2  EPW O   H1  H2  EPW O   H1  H2  EPW O   H1  H2  EPW O   
H1  H2  EPW O   H1  H2  EPW O   H1  H2  EPW O   H1  H2  EPW O   H1  H2  EPW O   
H1  H2  EPW O   H1  H2  EPW O   H1  H2  EPW O   H1  H2  EPW O   H1  H2  EPW O   
H1  H2  EPW O   H1  H2  EPW O   H1  H2  EPW O   H1  H2  EPW O   H1  H2  EPW O   
H1  H2  EPW O   H1  H2  EPW O   H1  H2  EPW O   H1  H2  EPW O   H1  H2  EPW O   
H1  H2  EPW O   H1  H2  EPW O   H1  H2  EPW O   H1  H2  EPW O   H1  H2  EPW O   
H1  H2  EPW O   H1  H2  EPW O   H1  H2  EPW O   H1  H2  EPW O   H1  H2  EPW O   
H1  H2  EPW O   H1  H2  EPW O   H1  H2  EPW O   H1  H2  EPW O   H1  H2  EPW O   
H1  H2  EPW O   H1  H2  EPW O   H1  H2  EPW O   H1  H2  EPW O   H1  H2  EPW O   
H1  H2  EPW O   H1  H2  EPW O   H1  H2  EPW O   H1  H2  EPW O   H1  H2  EPW O   
H1  H2  EPW O   H1  H2  EPW O   H1  H2  EPW O   H1  H2  EPW O   H1  H2  EPW O   
H1  H2  EPW O   H1  H2  EPW O   H1  H2  EPW O   H1  H2  EPW O   H1  H2  EPW O   
H1  H2  EPW O   H1  H2  EPW O   H1  H2  EPW O   H1  H2  EPW O   H1  H2  EPW O   
H1  H2  EPW O   H1  H2  EPW O   H1  H2  EPW O   H1  H2  EPW O   H1  H2  EPW O   
H1  H2  EPW O   H1  H2  EPW O   H1  H2  EPW O   H1  H2  EPW O   H1  H2  EPW O   
H1  H2  EPW O   H1  H2  EPW O   H1  H2  EPW O   H1  H2  EPW O   H1  H2  EPW O   
H1  H2  EPW O   H1  H2  EPW O   H1  H2  EPW O   H1  H2  EPW O   H1  H2  EPW O   
H1  H2  EPW O   H1  H2  EPW O   H1  H2  EPW O   H1  H2  EPW O   H1  H2  EPW O   
H1  H2  EPW O   H1  H2  EPW O   H1  H2  EPW O   H1  H2  EPW O   H1  H2  EPW O   
H1  H2  EPW O   H1  H2  EPW O   H1  H2  EPW O   H1  H2  EPW O   H1  H2  EPW O   
H1  H2  EPW O   H1  H2  EPW O   H1  H2  EPW O   H1  H2  EPW O   H1  H2  EPW O   
H1  H2  EPW O   H1  H2  EPW O   H1  H2  EPW O   H1  H2  EPW O   H1  H2  EPW O   
H1  H2  EPW O   H1  H2  EPW O   H1  H2  EPW O   H1  H2  EPW O   H1  H2  EPW O   
H1  H2  EPW O   H1  H2  EPW O   H1  H2  EPW O   H1  H2  EPW O   H1  H2  EPW O   
H1  H2  EPW O   H1  H2  EPW O   H1  H2  EPW O   H1  H2  EPW O   H1  H2  EPW O   
H1  H2  EPW O   H1  H2  EPW O   H1  H2  EPW O   H1  H2  EPW O   H1  H2  EPW O   
H1  H2  EPW O   H1  H2  EPW O   H1  H2  EPW O   H1  H2  EPW O   H1  H2  EPW O   
H1  H2  EPW O   H1  H2  EPW O   H1  H2  EPW O   H1  H2  EPW O   H1  H2  EPW O   
H1  H2  EPW O   H1  H2  EPW O   H1  H2  EPW O   H1  H2  EPW O   H1  H2  EPW O   
H1  H2  EPW O   H1  H2  EPW O   H1  H2  EPW O   H1  H2  EPW O   H1  H2  EPW O   
H1  H2  EPW O   H1  H2  EPW O   H1  H2  EPW O   H1  H2  EPW O   H1  H2  EPW O   
H1  H2  EPW O   H1  H2  EPW O   H1  H2  EPW O   H1  H2  EPW O   H1  H2  EPW O   
H1  H2  EPW O   H1  H2  EPW O   H1  H2  EPW O   H1  H2  EPW O   H1  H2  EPW O   
H1  H2  EPW O   H1  H2  EPW O   H1  H2  EPW O   H1  H2  EPW O   H1  H2  EPW O   
H1  H2  EPW O   H1  H2  EPW O   H1  H2  EPW O   H1  H2  EPW O   H1  H2  EPW O   
H1  H2  EPW O   H1  H2  EPW O   H1  H2  EPW O   H1  H2  EPW O   H1  H2  EPW O   
H1  H2  EPW O   H1  H2  EPW O   H1  H2  EPW O   H1  H2  EPW O   H1  H2  EPW O   
H1  H2  EPW O   H1  H2  EPW O   H1  H2  EPW O   H1  H2  EPW O   H1  H2  EPW O   
H1  H2  EPW O   H1  H2  EPW O   H1  H2  EPW O   H1  H2  EPW O   H1  H2  EPW O   
H1  H2  EPW O   H1  H2  EPW O   H1  H2  EPW O   H1  H2  EPW O   H1  H2  EPW O   
H1  H2  EPW O   H1  H2  EPW O   H1  H2  EPW O   H1  H2  EPW O   H1  H2  EPW O   
H1  H2  EPW O   H1  H2  EPW O   H1  H2  EPW O   H1  H2  EPW O   H1  H2  EPW O   
H1  H2  EPW O   H1  H2  EPW O   H1  H2  EPW O   H1  H2  EPW O   H1  H2  EPW O   
H1  H2  EPW O   H1  H2  EPW O   H1  H2  EPW O   H1  H2  EPW O   H1  H2  EPW O   
H1  H2  EPW O   H1  H2  EPW O   H1  H2  EPW O   H1  H2  EPW O   H1  H2  EPW O   
H1  H2  EPW O   H1  H2  EPW O   H1  H2  EPW O   H1  H2  EPW O   H1  H2  EPW O   
H1  H2  EPW O   H1  H2  EPW O   H1  H2  EPW O   H1  H2  EPW O   H1  H2  EPW O   
H1  H2  EPW O   H1  H2  EPW O   H1  H2  EPW O   H1  H2  EPW O   H1  H2  EPW O   
H1  H2  EPW O   H1  H2  EPW O   H1  H2  EPW O   H1  H2  EPW O   H1  H2  EPW O   
H1  H2  EPW O   H1  H2  EPW O   H1  H2  EPW O   H1  H2  EPW O   H1  H2  EPW O   
H1  H2  EPW O   H1  H2  EPW O   H1  H2  EPW O   H1  H2  EPW O   H1  H2  EPW O   
H1  H2  EPW O   H1  H2  EPW O   H1  H2  EPW O   H1  H2  EPW O   H1  H2  EPW O   
H1  H2  EPW O   H1  H2  EPW O   H1  H2  EPW O   H1  H2  EPW O   H1  H2  EPW O   
H1  H2  EPW O   H1  H2  EPW O   H1  H2  EPW O   H1  H2  EPW O   H1  H2  EPW O   
H1  H2  EPW O   H1  H2  EPW O   H1  H2  EPW O   H1  H2  EPW O   H1  H2  EPW O   
H1  H2  EPW O   H1  H2  EPW O   H1  H2  EPW O   H1  H2  EPW O   H1  H2  EPW O   
H1  H2  EPW O   H1  H2  EPW O   H1  H2  EPW O   H1  H2  EPW O   H1  H2  EPW O   
H1  H2  EPW O   H1  H2  EPW O   H1  H2  EPW O   H1  H2  EPW O   H1  H2  EPW O   
H1  H2  EPW O   H1  H2  EPW O   H1  H2  EPW O   H1  H2  EPW O   H1  H2  EPW O   
H1  H2  EPW O   H1  H2  EPW O   H1  H2  EPW O   H1  H2  EPW O   H1  H2  EPW O   
H1  H2  EPW O   H1  H2  EPW O   H1  H2  EPW O   H1  H2  EPW O   H1  H2  EPW O   
H1  H2  EPW O   H1  H2  EPW O   H1  H2  EPW O   H1  H2  EPW O   H1  H2  EPW O   
H1  H2  EPW O   H1  H2  EPW O   H1  H2  EPW O   H1  H2  EPW O   H1  H2  EPW O   
H1  H2  EPW O   H1  H2  EPW O   H1  H2  EPW O   H1  H2  EPW O   H1  H2  EPW O   
H1  H2  EPW O   H1  H2  EPW O   H1  H2  EPW O   H1  H2  EPW O   H1  H2  EPW O   
H1  H2  EPW O   H1  H2  EPW O   H1  H2  EPW O   H1  H2  EPW O   H1  H2  EPW O   
H1  H2  EPW O   H1  H2  EPW O   H1  H2  EPW O   H1  H2  EPW O   H1  H2  EPW O   
H1  H2  EPW O   H1  H2  EPW O   H1  H2  EPW O   H1  H2  EPW O   H1  H2  EPW O   
H1  H2  EPW O   H1  H2  EPW O   H1  H2  EPW O   H1  H2  EPW O   H1  H2  EPW O   
H1  H2  EPW O   H1  H2  EPW O   H1  H2  EPW O   H1  H2  EPW O   H1  H2  EPW O   
H1  H2  EPW O   H1  H2  EPW O   H1  H2  EPW O   H1  H2  EPW O   H1  H2  EPW O   
H1  H2  EPW O   H1  H2  EPW O   H1  H2  EPW O   H1  H2  EPW O   H1  H2  EPW O   
H1  H2  EPW O   H1  H2  EPW O   H1  H2  EPW O   H1  H2  EPW O   H1  H2  EPW O   
H1  H2  EPW O   H1  H2  EPW O   H1  H2  EPW O   H1  H2  EPW O   H1  H2  EPW O   
H1  H2  EPW O   H1  H2  EPW O   H1  H2  EPW O   H1  H2  EPW O   H1  H2  EPW O   
H1  H2  EPW O   H1  H2  EPW O   H1  H2  EPW O   H1  H2  EPW O   H1  H2  EPW O   
H1  H2  EPW O   H1  H2  EPW O   H1  H2  EPW O   H1  H2  EPW O   H1  H2  EPW O   
H1  H2  EPW O   H1  H2  EPW O   H1  H2  EPW O   H1  H2  EPW O   H1  H2  EPW O   
H1  H2  EPW O   H1  H2  EPW O   H1  H2  EPW O   H1  H2  EPW O   H1  H2  EPW O   
H1  H2  EPW O   H1  H2  EPW O   H1  H2  EPW O   H1  H2  EPW O   H1  H2  EPW O   
H1  H2  EPW O   H1  H2  EPW O   H1  H2  EPW O   H1  H2  EPW O   H1  H2  EPW O   
H1  H2  EPW O   H1  H2  EPW O   H1  H2  EPW O   H1  H2  EPW O   H1  H2  EPW O   
H1  H2  EPW O   H1  H2  EPW O   H1  H2  EPW O   H1  H2  EPW O   H1  H2  EPW O   
H1  H2  EPW O   H1  H2  EPW O   H1  H2  EPW O   H1  H2  EPW O   H1  H2  EPW O   
H1  H2  EPW O   H1  H2  EPW O   H1  H2  EPW O   H1  H2  EPW O   H1  H2  EPW O   
H1  H2  EPW O   H1  H2  EPW O   H1  H2  EPW O   H1  H2  EPW O   H1  H2  EPW O   
H1  H2  EPW O   H1  H2  EPW O   H1  H2  EPW O   H1  H2  EPW O   H1  H2  EPW O   
H1  H2  EPW O   H1  H2  EPW O   H1  H2  EPW O   H1  H2  EPW O   H1  H2  EPW O   
H1  H2  EPW O   H1  H2  EPW O   H1  H2  EPW O   H1  H2  EPW O   H1  H2  EPW O   
H1  H2  EPW O   H1  H2  EPW O   H1  H2  EPW O   H1  H2  EPW O   H1  H2  EPW O   
H1  H2  EPW O   H1  H2  EPW O   H1  H2  EPW O   H1  H2  EPW O   H1  H2  EPW O   
H1  H2  EPW O   H1  H2  EPW O   H1  H2  EPW O   H1  H2  EPW O   H1  H2  EPW O   
H1  H2  EPW O   H1  H2  EPW O   H1  H2  EPW O   H1  H2  EPW O   H1  H2  EPW O   
H1  H2  EPW O   H1  H2  EPW O   H1  H2  EPW O   H1  H2  EPW O   H1  H2  EPW O   
H1  H2  EPW O   H1  H2  EPW O   H1  H2  EPW O   H1  H2  EPW O   H1  H2  EPW O   
H1  H2  EPW O   H1  H2  EPW O   H1  H2  EPW O   H1  H2  EPW O   H1  H2  EPW O   
H1  H2  EPW O   H1  H2  EPW O   H1  H2  EPW O   H1  H2  EPW O   H1  H2  EPW O   
H1  H2  EPW O   H1  H2  EPW O   H1  H2  EPW O   H1  H2  EPW O   H1  H2  EPW O   
H1  H2  EPW O   H1  H2  EPW O   H1  H2  EPW O   H1  H2  EPW O   H1  H2  EPW O   
H1  H2  EPW O   H1  H2  EPW O   H1  H2  EPW O   H1  H2  EPW O   H1  H2  EPW O   
H1  H2  EPW O   H1  H2  EPW O   H1  H2  EPW O   H1  H2  EPW O   H1  H2  EPW O   
H1  H2  EPW O   H1  H2  EPW O   H1  H2  EPW O   H1  H2  EPW O   H1  H2  EPW O   
H1  H2  EPW O   H1  H2  EPW O   H1  H2  EPW O   H1  H2  EPW O   H1  H2  EPW O   
H1  H2  EPW O   H1  H2  EPW O   H1  H2  EPW O   H1  H2  EPW O   H1  H2  EPW O   
H1  H2  EPW O   H1  H2  EPW O   H1  H2  EPW O   H1  H2  EPW O   H1  H2  EPW O   
H1  H2  EPW O   H1  H2  EPW O   H1  H2  EPW O   H1  H2  EPW O   H1  H2  EPW O   
H1  H2  EPW O   H1  H2  EPW O   H1  H2  EPW O   H1  H2  EPW O   H1  H2  EPW O   
H1  H2  EPW O   H1  H2  EPW O   H1  H2  EPW O   H1  H2  EPW O   H1  H2  EPW O   
H1  H2  EPW O   H1  H2  EPW O   H1  H2  EPW O   H1  H2  EPW O   H1  H2  EPW O   
H1  H2  EPW O   H1  H2  EPW O   H1  H2  EPW O   H1  H2  EPW O   H1  H2  EPW O   
H1  H2  EPW O   H1  H2  EPW O   H1  H2  EPW O   H1  H2  EPW O   H1  H2  EPW O   
H1  H2  EPW O   H1  H2  EPW O   H1  H2  EPW O   H1  H2  EPW O   H1  H2  EPW O   
H1  H2  EPW O   H1  H2  EPW O   H1  H2  EPW O   H1  H2  EPW O   H1  H2  EPW O   
H1  H2  EPW O   H1  H2  EPW O   H1  H2  EPW O   H1  H2  EPW O   H1  H2  EPW O   
H1  H2  EPW O   H1  H2  EPW O   H1  H2  EPW O   H1  H2  EPW O   H1  H2  EPW O   
H1  H2  EPW O   H1  H2  EPW O   H1  H2  EPW O   H1  H2  EPW O   H1  H2  EPW O   
H1  H2  EPW O   H1  H2  EPW O   H1  H2  EPW O   H1  H2  EPW O   H1  H2  EPW O   
H1  H2  EPW O   H1  H2  EPW O   H1  H2  EPW O   H1  H2  EPW O   H1  H2  EPW O   
H1  H2  EPW O   H1  H2  EPW O   H1  H2  EPW O   H1  H2  EPW O   H1  H2  EPW O   
H1  H2  EPW O   H1  H2  EPW O   H1  H2  EPW O   H1  H2  EPW O   H1  H2  EPW O   
H1  H2  EPW O   H1  H2  EPW O   H1  H2  EPW O   H1  H2  EPW O   H1  H2  EPW O   
H1  H2  EPW O   H1  H2  EPW O   H1  H2  EPW O   H1  H2  EPW O   H1  H2  EPW O   
H1  H2  EPW O   H1  H2  EPW O   H1  H2  EPW O   H1  H2  EPW O   H1  H2  EPW O   
H1  H2  EPW O   H1  H2  EPW O   H1  H2  EPW O   H1  H2  EPW O   H1  H2  EPW O   
H1  H2  EPW O   H1  H2  EPW O   H1  H2  EPW O   H1  H2  EPW O   H1  H2  EPW O   
H1  H2  EPW O   H1  H2  EPW O   H1  H2  EPW O   H1  H2  EPW O   H1  H2  EPW O   
H1  H2  EPW O   H1  H2  EPW O   H1  H2  EPW O   H1  H2  EPW O   H1  H2  EPW O   
H1  H2  EPW O   H1  H2  EPW O   H1  H2  EPW O   H1  H2  EPW O   H1  H2  EPW O   
H1  H2  EPW O   H1  H2  EPW O   H1  H2  EPW O   H1  H2  EPW O   H1  H2  EPW O   
H1  H2  EPW O   H1  H2  EPW O   H1  H2  EPW O   H1  H2  EPW O   H1  H2  EPW O   
H1  H2  EPW O   H1  H2  EPW O   H1  H2  EPW O   H1  H2  EPW O   H1  H2  EPW O   
H1  H2  EPW O   H1  H2  EPW O   H1  H2  EPW O   H1  H2  EPW O   H1  H2  EPW O   
H1  H2  EPW O   H1  H2  EPW O   H1  H2  EPW O   H1  H2  EPW O   H1  H2  EPW O   
H1  H2  EPW O   H1  H2  EPW O   H1  H2  EPW O   H1  H2  EPW O   H1  H2  EPW O   
H1  H2  EPW O   H1  H2  EPW O   H1  H2  EPW O   H1  H2  EPW O   H1  H2  EPW O   
H1  H2  EPW O   H1  H2  EPW O   H1  H2  EPW O   H1  H2  EPW O   H1  H2  EPW O   
H1  H2  EPW O   H1  H2  EPW O   H1  H2  EPW O   H1  H2  EPW O   H1  H2  EPW O   
H1  H2  EPW O   H1  H2  EPW O   H1  H2  EPW O   H1  H2  EPW O   H1  H2  EPW O   
H1  H2  EPW O   H1  H2  EPW O   H1  H2  EPW O   H1  H2  EPW O   H1  H2  EPW O   
H1  H2  EPW O   H1  H2  EPW O   H1  H2  EPW O   H1  H2  EPW O   H1  H2  EPW O   
H1  H2  EPW O   H1  H2  EPW O   H1  H2  EPW O   H1  H2  EPW O   H1  H2  EPW O   
H1  H2  EPW O   H1  H2  EPW O   H1  H2  EPW O   H1  H2  EPW O   H1  H2  EPW O   
H1  H2  EPW O   H1  H2  EPW O   H1  H2  EPW O   H1  H2  EPW O   H1  H2  EPW O   
H1  H2  EPW O   H1  H2  EPW O   H1  H2  EPW O   H1  H2  EPW O   H1  H2  EPW O   
H1  H2  EPW O   H1  H2  EPW O   H1  H2  EPW O   H1  H2  EPW O   H1  H2  EPW O   
H1  H2  EPW O   H1  H2  EPW O   H1  H2  EPW O   H1  H2  EPW O   H1  H2  EPW O   
H1  H2  EPW O   H1  H2  EPW O   H1  H2  EPW O   H1  H2  EPW O   H1  H2  EPW O   
H1  H2  EPW O   H1  H2  EPW O   H1  H2  EPW O   H1  H2  EPW O   H1  H2  EPW O   
H1  H2  EPW O   H1  H2  EPW O   H1  H2  EPW O   H1  H2  EPW O   H1  H2  EPW O   
H1  H2  EPW O   H1  H2  EPW O   H1  H2  EPW O   H1  H2  EPW O   H1  H2  EPW O   
H1  H2  EPW O   H1  H2  EPW O   H1  H2  EPW O   H1  H2  EPW O   H1  H2  EPW O   
H1  H2  EPW O   H1  H2  EPW O   H1  H2  EPW O   H1  H2  EPW O   H1  H2  EPW O   
H1  H2  EPW O   H1  H2  EPW O   H1  H2  EPW O   H1  H2  EPW O   H1  H2  EPW O   
H1  H2  EPW O   H1  H2  EPW O   H1  H2  EPW O   H1  H2  EPW O   H1  H2  EPW O   
H1  H2  EPW O   H1  H2  EPW O   H1  H2  EPW O   H1  H2  EPW O   H1  H2  EPW O   
H1  H2  EPW O   H1  H2  EPW O   H1  H2  EPW O   H1  H2  EPW O   H1  H2  EPW O   
H1  H2  EPW O   H1  H2  EPW O   H1  H2  EPW O   H1  H2  EPW O   H1  H2  EPW O   
H1  H2  EPW O   H1  H2  EPW O   H1  H2  EPW O   H1  H2  EPW O   H1  H2  EPW O   
H1  H2  EPW O   H1  H2  EPW O   H1  H2  EPW O   H1  H2  EPW O   H1  H2  EPW O   
H1  H2  EPW O   H1  H2  EPW O   H1  H2  EPW O   H1  H2  EPW O   H1  H2  EPW O   
H1  H2  EPW O   H1  H2  EPW O   H1  H2  EPW O   H1  H2  EPW O   H1  H2  EPW O   
H1  H2  EPW O   H1  H2  EPW O   H1  H2  EPW O   H1  H2  EPW O   H1  H2  EPW O   
H1  H2  EPW O   H1  H2  EPW O   H1  H2  EPW O   H1  H2  EPW O   H1  H2  EPW O   
H1  H2  EPW O   H1  H2  EPW O   H1  H2  EPW O   H1  H2  EPW O   H1  H2  EPW O   
H1  H2  EPW O   H1  H2  EPW O   H1  H2  EPW O   H1  H2  EPW O   H1  H2  EPW O   
H1  H2  EPW O   H1  H2  EPW O   H1  H2  EPW O   H1  H2  EPW O   H1  H2  EPW O   
H1  H2  EPW O   H1  H2  EPW O   H1  H2  EPW O   H1  H2  EPW O   H1  H2  EPW O   
H1  H2  EPW O   H1  H2  EPW O   H1  H2  EPW O   H1  H2  EPW O   H1  H2  EPW O   
H1  H2  EPW O   H1  H2  EPW O   H1  H2  EPW O   H1  H2  EPW O   H1  H2  EPW O   
H1  H2  EPW O   H1  H2  EPW O   H1  H2  EPW O   H1  H2  EPW O   H1  H2  EPW O   
H1  H2  EPW O   H1  H2  EPW O   H1  H2  EPW O   H1  H2  EPW O   H1  H2  EPW O   
H1  H2  EPW O   H1  H2  EPW O   H1  H2  EPW O   H1  H2  EPW O   H1  H2  EPW O   
H1  H2  EPW O   H1  H2  EPW O   H1  H2  EPW O   H1  H2  EPW O   H1  H2  EPW O   
H1  H2  EPW O   H1  H2  EPW O   H1  H2  EPW O   H1  H2  EPW O   H1  H2  EPW O   
H1  H2  EPW O   H1  H2  EPW O   H1  H2  EPW O   H1  H2  EPW O   H1  H2  EPW O   
H1  H2  EPW O   H1  H2  EPW O   H1  H2  EPW O   H1  H2  EPW O   H1  H2  EPW O   
H1  H2  EPW O   H1  H2  EPW O   H1  H2  EPW O   H1  H2  EPW O   H1  H2  EPW O   
H1  H2  EPW O   H1  H2  EPW O   H1  H2  EPW O   H1  H2  EPW O   H1  H2  EPW O   
H1  H2  EPW O   H1  H2  EPW O   H1  H2  EPW O   H1  H2  EPW O   H1  H2  EPW O   
H1  H2  EPW O   H1  H2  EPW O   H1  H2  EPW O   H1  H2  EPW O   H1  H2  EPW O   
H1  H2  EPW O   H1  H2  EPW O   H1  H2  EPW O   H1  H2  EPW O   H1  H2  EPW O   
H1  H2  EPW O   H1  H2  EPW O   H1  H2  EPW O   H1  H2  EPW O   H1  H2  EPW O   
H1  H2  EPW O   H1  H2  EPW O   H1  H2  EPW O   H1  H2  EPW O   H1  H2  EPW O   
H1  H2  EPW O   H1  H2  EPW O   H1  H2  EPW O   H1  H2  EPW O   H1  H2  EPW O   
H1  H2  EPW O   H1  H2  EPW O   H1  H2  EPW O   H1  H2  EPW O   H1  H2  EPW O   
H1  H2  EPW O   H1  H2  EPW O   H1  H2  EPW O   H1  H2  EPW O   H1  H2  EPW O   
H1  H2  EPW O   H1  H2  EPW O   H1  H2  EPW O   H1  H2  EPW O   H1  H2  EPW O   
H1  H2  EPW O   H1  H2  EPW O   H1  H2  EPW O   H1  H2  EPW O   H1  H2  EPW O   
H1  H2  EPW O   H1  H2  EPW O   H1  H2  EPW O   H1  H2  EPW O   H1  H2  EPW O   
H1  H2  EPW O   H1  H2  EPW O   H1  H2  EPW O   H1  H2  EPW O   H1  H2  EPW O   
H1  H2  EPW O   H1  H2  EPW O   H1  H2  EPW O   H1  H2  EPW O   H1  H2  EPW O   
H1  H2  EPW O   H1  H2  EPW O   H1  H2  EPW O   H1  H2  EPW O   H1  H2  EPW O   
H1  H2  EPW O   H1  H2  EPW O   H1  H2  EPW O   H1  H2  EPW O   H1  H2  EPW O   
H1  H2  EPW O   H1  H2  EPW O   H1  H2  EPW O   H1  H2  EPW O   H1  H2  EPW O   
H1  H2  EPW O   H1  H2  EPW O   H1  H2  EPW O   H1  H2  EPW O   H1  H2  EPW O   
H1  H2  EPW O   H1  H2  EPW O   H1  H2  EPW O   H1  H2  EPW O   H1  H2  EPW O   
H1  H2  EPW O   H1  H2  EPW O   H1  H2  EPW O   H1  H2  EPW O   H1  H2  EPW O   
H1  H2  EPW O   H1  H2  EPW O   H1  H2  EPW O   H1  H2  EPW O   H1  H2  EPW O   
H1  H2  EPW O   H1  H2  EPW O   H1  H2  EPW O   H1  H2  EPW O   H1  H2  EPW O   
H1  H2  EPW O   H1  H2  EPW O   H1  H2  EPW O   H1  H2  EPW O   H1  H2  EPW O   
H1  H2  EPW O   H1  H2  EPW O   H1  H2  EPW O   H1  H2  EPW O   H1  H2  EPW O   
H1  H2  EPW O   H1  H2  EPW O   H1  H2  EPW O   H1  H2  EPW O   H1  H2  EPW O   
H1  H2  EPW O   H1  H2  EPW O   H1  H2  EPW O   H1  H2  EPW O   H1  H2  EPW O   
H1  H2  EPW O   H1  H2  EPW O   H1  H2  EPW O   H1  H2  EPW O   H1  H2  EPW O   
H1  H2  EPW O   H1  H2  EPW O   H1  H2  EPW O   H1  H2  EPW O   H1  H2  EPW O   
H1  H2  EPW O   H1  H2  EPW O   H1  H2  EPW O   H1  H2  EPW O   H1  H2  EPW O   
H1  H2  EPW O   H1  H2  EPW O   H1  H2  EPW O   H1  H2  EPW O   H1  H2  EPW O   
H1  H2  EPW O   H1  H2  EPW O   H1  H2  EPW O   H1  H2  EPW O   H1  H2  EPW O   
H1  H2  EPW O   H1  H2  EPW O   H1  H2  EPW O   H1  H2  EPW O   H1  H2  EPW O   
H1  H2  EPW O   H1  H2  EPW O   H1  H2  EPW O   H1  H2  EPW O   H1  H2  EPW O   
H1  H2  EPW O   H1  H2  EPW O   H1  H2  EPW O   H1  H2  EPW O   H1  H2  EPW O   
H1  H2  EPW O   H1  H2  EPW O   H1  H2  EPW O   H1  H2  EPW O   H1  H2  EPW O   
H1  H2  EPW O   H1  H2  EPW O   H1  H2  EPW O   H1  H2  EPW O   H1  H2  EPW O   
H1  H2  EPW O   H1  H2  EPW O   H1  H2  EPW O   H1  H2  EPW O   H1  H2  EPW O   
H1  H2  EPW O   H1  H2  EPW O   H1  H2  EPW O   H1  H2  EPW O   H1  H2  EPW O   
H1  H2  EPW O   H1  H2  EPW O   H1  H2  EPW O   H1  H2  EPW O   H1  H2  EPW O   
H1  H2  EPW O   H1  H2  EPW O   H1  H2  EPW O   H1  H2  EPW O   H1  H2  EPW O   
H1  H2  EPW O   H1  H2  EPW O   H1  H2  EPW O   H1  H2  EPW O   H1  H2  EPW O   
H1  H2  EPW O   H1  H2  EPW O   H1  H2  EPW O   H1  H2  EPW O   H1  H2  EPW O   
H1  H2  EPW O   H1  H2  EPW O   H1  H2  EPW O   H1  H2  EPW O   H1  H2  EPW O   
H1  H2  EPW O   H1  H2  EPW O   H1  H2  EPW O   H1  H2  EPW O   H1  H2  EPW O   
H1  H2  EPW O   H1  H2  EPW O   H1  H2  EPW O   H1  H2  EPW O   H1  H2  EPW O   
H1  H2  EPW O   H1  H2  EPW O   H1  H2  EPW O   H1  H2  EPW O   H1  H2  EPW O   
H1  H2  EPW O   H1  H2  EPW O   H1  H2  EPW O   H1  H2  EPW O   H1  H2  EPW O   
H1  H2  EPW O   H1  H2  EPW O   H1  H2  EPW O   H1  H2  EPW O   H1  H2  EPW O   
H1  H2  EPW O   H1  H2  EPW O   H1  H2  EPW O   H1  H2  EPW O   H1  H2  EPW O   
H1  H2  EPW O   H1  H2  EPW O   H1  H2  EPW O   H1  H2  EPW O   H1  H2  EPW O   
H1  H2  EPW O   H1  H2  EPW O   H1  H2  EPW O   H1  H2  EPW O   H1  H2  EPW O   
H1  H2  EPW O   H1  H2  EPW O   H1  H2  EPW O   H1  H2  EPW O   H1  H2  EPW O   
H1  H2  EPW O   H1  H2  EPW O   H1  H2  EPW O   H1  H2  EPW O   H1  H2  EPW O   
H1  H2  EPW O   H1  H2  EPW O   H1  H2  EPW O   H1  H2  EPW O   H1  H2  EPW O   
H1  H2  EPW O   H1  H2  EPW O   H1  H2  EPW O   H1  H2  EPW O   H1  H2  EPW O   
H1  H2  EPW O   H1  H2  EPW O   H1  H2  EPW O   H1  H2  EPW O   H1  H2  EPW O   
H1  H2  EPW O   H1  H2  EPW O   H1  H2  EPW O   H1  H2  EPW O   H1  H2  EPW O   
H1  H2  EPW O   H1  H2  EPW O   H1  H2  EPW O   H1  H2  EPW O   H1  H2  EPW O   
H1  H2  EPW O   H1  H2  EPW O   H1  H2  EPW O   H1  H2  EPW O   H1  H2  EPW O   
H1  H2  EPW O   H1  H2  EPW O   H1  H2  EPW O   H1  H2  EPW O   H1  H2  EPW O   
H1  H2  EPW O   H1  H2  EPW O   H1  H2  EPW O   H1  H2  EPW O   H1  H2  EPW O   
H1  H2  EPW O   H1  H2  EPW O   H1  H2  EPW O   H1  H2  EPW O   H1  H2  EPW O   
H1  H2  EPW O   H1  H2  EPW O   H1  H2  EPW O   H1  H2  EPW O   H1  H2  EPW O   
H1  H2  EPW O   H1  H2  EPW O   H1  H2  EPW O   H1  H2  EPW O   H1  H2  EPW O   
H1  H2  EPW O   H1  H2  EPW O   H1  H2  EPW O   H1  H2  EPW O   H1  H2  EPW O   
H1  H2  EPW O   H1  H2  EPW O   H1  H2  EPW O   H1  H2  EPW O   H1  H2  EPW O   
H1  H2  EPW O   H1  H2  EPW O   H1  H2  EPW O   H1  H2  EPW O   H1  H2  EPW O   
H1  H2  EPW O   H1  H2  EPW O   H1  H2  EPW O   H1  H2  EPW O   H1  H2  EPW O   
H1  H2  EPW O   H1  H2  EPW O   H1  H2  EPW O   H1  H2  EPW O   H1  H2  EPW O   
H1  H2  EPW O   H1  H2  EPW O   H1  H2  EPW O   H1  H2  EPW O   H1  H2  EPW O   
H1  H2  EPW O   H1  H2  EPW O   H1  H2  EPW O   H1  H2  EPW O   H1  H2  EPW O   
H1  H2  EPW O   H1  H2  EPW O   H1  H2  EPW O   H1  H2  EPW O   H1  H2  EPW O   
H1  H2  EPW O   H1  H2  EPW O   H1  H2  EPW O   H1  H2  EPW O   H1  H2  EPW O   
H1  H2  EPW O   H1  H2  EPW O   H1  H2  EPW O   H1  H2  EPW O   H1  H2  EPW O   
H1  H2  EPW O   H1  H2  EPW O   H1  H2  EPW O   H1  H2  EPW O   H1  H2  EPW O   
H1  H2  EPW O   H1  H2  EPW O   H1  H2  EPW O   H1  H2  EPW O   H1  H2  EPW O   
H1  H2  EPW O   H1  H2  EPW O   H1  H2  EPW O   H1  H2  EPW O   H1  H2  EPW O   
H1  H2  EPW O   H1  H2  EPW O   H1  H2  EPW O   H1  H2  EPW O   H1  H2  EPW O   
H1  H2  EPW O   H1  H2  EPW O   H1  H2  EPW O   H1  H2  EPW O   H1  H2  EPW O   
H1  H2  EPW O   H1  H2  EPW O   H1  H2  EPW O   H1  H2  EPW O   H1  H2  EPW O   
H1  H2  EPW O   H1  H2  EPW O   H1  H2  EPW O   H1  H2  EPW O   H1  H2  EPW O   
H1  H2  EPW O   H1  H2  EPW O   H1  H2  EPW O   H1  H2  EPW O   H1  H2  EPW O   
H1  H2  EPW O   H1  H2  EPW O   H1  H2  EPW O   H1  H2  EPW O   H1  H2  EPW O   
H1  H2  EPW O   H1  H2  EPW O   H1  H2  EPW O   H1  H2  EPW O   H1  H2  EPW O   
H1  H2  EPW O   H1  H2  EPW O   H1  H2  EPW O   H1  H2  EPW O   H1  H2  EPW O   
H1  H2  EPW O   H1  H2  EPW O   H1  H2  EPW O   H1  H2  EPW O   H1  H2  EPW O   
H1  H2  EPW O   H1  H2  EPW O   H1  H2  EPW O   H1  H2  EPW O   H1  H2  EPW O   
H1  H2  EPW O   H1  H2  EPW O   H1  H2  EPW O   H1  H2  EPW O   H1  H2  EPW O   
H1  H2  EPW O   H1  H2  EPW O   H1  H2  EPW O   H1  H2  EPW O   H1  H2  EPW O   
H1  H2  EPW O   H1  H2  EPW O   H1  H2  EPW O   H1  H2  EPW O   H1  H2  EPW O   
H1  H2  EPW O   H1  H2  EPW O   H1  H2  EPW O   H1  H2  EPW O   H1  H2  EPW O   
H1  H2  EPW O   H1  H2  EPW O   H1  H2  EPW O   H1  H2  EPW O   H1  H2  EPW O   
H1  H2  EPW O   H1  H2  EPW O   H1  H2  EPW O   H1  H2  EPW O   H1  H2  EPW O   
H1  H2  EPW O   H1  H2  EPW O   H1  H2  EPW O   H1  H2  EPW O   H1  H2  EPW O   
H1  H2  EPW O   H1  H2  EPW O   H1  H2  EPW O   H1  H2  EPW O   H1  H2  EPW O   
H1  H2  EPW O   H1  H2  EPW O   H1  H2  EPW O   H1  H2  EPW O   H1  H2  EPW O   
H1  H2  EPW O   H1  H2  EPW O   H1  H2  EPW O   H1  H2  EPW O   H1  H2  EPW O   
H1  H2  EPW O   H1  H2  EPW O   H1  H2  EPW O   H1  H2  EPW O   H1  H2  EPW O   
H1  H2  EPW O   H1  H2  EPW O   H1  H2  EPW O   H1  H2  EPW O   H1  H2  EPW O   
H1  H2  EPW O   H1  H2  EPW O   H1  H2  EPW O   H1  H2  EPW O   H1  H2  EPW O   
H1  H2  EPW O   H1  H2  EPW O   H1  H2  EPW O   H1  H2  EPW O   H1  H2  EPW O   
H1  H2  EPW O   H1  H2  EPW O   H1  H2  EPW O   H1  H2  EPW O   H1  H2  EPW O   
H1  H2  EPW O   H1  H2  EPW O   H1  H2  EPW O   H1  H2  EPW O   H1  H2  EPW O   
H1  H2  EPW O   H1  H2  EPW O   H1  H2  EPW O   H1  H2  EPW O   H1  H2  EPW O   
H1  H2  EPW O   H1  H2  EPW O   H1  H2  EPW O   H1  H2  EPW O   H1  H2  EPW O   
H1  H2  EPW O   H1  H2  EPW O   H1  H2  EPW O   H1  H2  EPW O   H1  H2  EPW O   
H1  H2  EPW O   H1  H2  EPW O   H1  H2  EPW O   H1  H2  EPW O   H1  H2  EPW O   
H1  H2  EPW O   H1  H2  EPW O   H1  H2  EPW O   H1  H2  EPW O   H1  H2  EPW O   
H1  H2  EPW O   H1  H2  EPW O   H1  H2  EPW O   H1  H2  EPW O   H1  H2  EPW O   
H1  H2  EPW O   H1  H2  EPW O   H1  H2  EPW O   H1  H2  EPW O   H1  H2  EPW O   
H1  H2  EPW O   H1  H2  EPW O   H1  H2  EPW O   H1  H2  EPW O   H1  H2  EPW O   
H1  H2  EPW O   H1  H2  EPW O   H1  H2  EPW O   H1  H2  EPW O   H1  H2  EPW O   
H1  H2  EPW O   H1  H2  EPW O   H1  H2  EPW O   H1  H2  EPW O   H1  H2  EPW O   
H1  H2  EPW O   H1  H2  EPW O   H1  H2  EPW O   H1  H2  EPW O   H1  H2  EPW O   
H1  H2  EPW O   H1  H2  EPW O   H1  H2  EPW O   H1  H2  EPW O   H1  H2  EPW O   
H1  H2  EPW O   H1  H2  EPW O   H1  H2  EPW O   H1  H2  EPW O   H1  H2  EPW O   
H1  H2  EPW O   H1  H2  EPW O   H1  H2  EPW O   H1  H2  EPW O   H1  H2  EPW O   
H1  H2  EPW O   H1  H2  EPW O   H1  H2  EPW O   H1  H2  EPW O   H1  H2  EPW O   
H1  H2  EPW O   H1  H2  EPW O   H1  H2  EPW O   H1  H2  EPW O   H1  H2  EPW O   
H1  H2  EPW O   H1  H2  EPW O   H1  H2  EPW O   H1  H2  EPW O   H1  H2  EPW O   
H1  H2  EPW O   H1  H2  EPW O   H1  H2  EPW O   H1  H2  EPW O   H1  H2  EPW O   
H1  H2  EPW O   H1  H2  EPW O   H1  H2  EPW O   H1  H2  EPW O   H1  H2  EPW O   
H1  H2  EPW O   H1  H2  EPW O   H1  H2  EPW O   H1  H2  EPW O   H1  H2  EPW O   
H1  H2  EPW O   H1  H2  EPW O   H1  H2  EPW O   H1  H2  EPW O   H1  H2  EPW O   
H1  H2  EPW O   H1  H2  EPW O   H1  H2  EPW O   H1  H2  EPW O   H1  H2  EPW O   
H1  H2  EPW O   H1  H2  EPW O   H1  H2  EPW O   H1  H2  EPW O   H1  H2  EPW O   
H1  H2  EPW O   H1  H2  EPW O   H1  H2  EPW O   H1  H2  EPW O   H1  H2  EPW O   
H1  H2  EPW O   H1  H2  EPW O   H1  H2  EPW O   H1  H2  EPW O   H1  H2  EPW O   
H1  H2  EPW O   H1  H2  EPW O   H1  H2  EPW O   H1  H2  EPW O   H1  H2  EPW O   
H1  H2  EPW O   H1  H2  EPW O   H1  H2  EPW O   H1  H2  EPW O   H1  H2  EPW O   
H1  H2  EPW O   H1  H2  EPW O   H1  H2  EPW O   H1  H2  EPW O   H1  H2  EPW O   
H1  H2  EPW O   H1  H2  EPW O   H1  H2  EPW O   H1  H2  EPW O   H1  H2  EPW O   
H1  H2  EPW O   H1  H2  EPW O   H1  H2  EPW O   H1  H2  EPW O   H1  H2  EPW O   
H1  H2  EPW O   H1  H2  EPW O   H1  H2  EPW O   H1  H2  EPW O   H1  H2  EPW O   
H1  H2  EPW O   H1  H2  EPW O   H1  H2  EPW O   H1  H2  EPW O   H1  H2  EPW O   
H1  H2  EPW O   H1  H2  EPW O   H1  H2  EPW O   H1  H2  EPW O   H1  H2  EPW O   
H1  H2  EPW O   H1  H2  EPW O   H1  H2  EPW O   H1  H2  EPW O   H1  H2  EPW O   
H1  H2  EPW O   H1  H2  EPW O   H1  H2  EPW O   H1  H2  EPW O   H1  H2  EPW O   
H1  H2  EPW O   H1  H2  EPW O   H1  H2  EPW O   H1  H2  EPW O   H1  H2  EPW O   
H1  H2  EPW O   H1  H2  EPW O   H1  H2  EPW O   H1  H2  EPW O   H1  H2  EPW O   
H1  H2  EPW O   H1  H2  EPW O   H1  H2  EPW O   H1  H2  EPW O   H1  H2  EPW O   
H1  H2  EPW O   H1  H2  EPW O   H1  H2  EPW O   H1  H2  EPW O   H1  H2  EPW O   
H1  H2  EPW O   H1  H2  EPW O   H1  H2  EPW O   H1  H2  EPW O   H1  H2  EPW O   
H1  H2  EPW O   H1  H2  EPW O   H1  H2  EPW O   H1  H2  EPW O   H1  H2  EPW O   
H1  H2  EPW O   H1  H2  EPW O   H1  H2  EPW O   H1  H2  EPW O   H1  H2  EPW O   
H1  H2  EPW O   H1  H2  EPW O   H1  H2  EPW O   H1  H2  EPW O   H1  H2  EPW O   
H1  H2  EPW O   H1  H2  EPW O   H1  H2  EPW O   H1  H2  EPW O   H1  H2  EPW O   
H1  H2  EPW O   H1  H2  EPW O   H1  H2  EPW O   H1  H2  EPW O   H1  H2  EPW O   
H1  H2  EPW O   H1  H2  EPW O   H1  H2  EPW O   H1  H2  EPW O   H1  H2  EPW O   
H1  H2  EPW O   H1  H2  EPW O   H1  H2  EPW O   H1  H2  EPW O   H1  H2  EPW O   
H1  H2  EPW O   H1  H2  EPW O   H1  H2  EPW O   H1  H2  EPW O   H1  H2  EPW O   
H1  H2  EPW O   H1  H2  EPW O   H1  H2  EPW O   H1  H2  EPW O   H1  H2  EPW O   
H1  H2  EPW O   H1  H2  EPW O   H1  H2  EPW O   H1  H2  EPW O   H1  H2  EPW O   
H1  H2  EPW O   H1  H2  EPW O   H1  H2  EPW O   H1  H2  EPW O   H1  H2  EPW O   
H1  H2  EPW O   H1  H2  EPW O   H1  H2  EPW O   H1  H2  EPW O   H1  H2  EPW O   
H1  H2  EPW O   H1  H2  EPW O   H1  H2  EPW O   H1  H2  EPW O   H1  H2  EPW O   
H1  H2  EPW O   H1  H2  EPW O   H1  H2  EPW O   H1  H2  EPW O   H1  H2  EPW O   
H1  H2  EPW O   H1  H2  EPW O   H1  H2  EPW O   H1  H2  EPW O   H1  H2  EPW O   
H1  H2  EPW O   H1  H2  EPW O   H1  H2  EPW O   H1  H2  EPW O   H1  H2  EPW O   
H1  H2  EPW O   H1  H2  EPW O   H1  H2  EPW O   H1  H2  EPW O   H1  H2  EPW O   
H1  H2  EPW O   H1  H2  EPW O   H1  H2  EPW O   H1  H2  EPW O   H1  H2  EPW O   
H1  H2  EPW O   H1  H2  EPW O   H1  H2  EPW O   H1  H2  EPW O   H1  H2  EPW O   
H1  H2  EPW O   H1  H2  EPW O   H1  H2  EPW O   H1  H2  EPW O   H1  H2  EPW O   
H1  H2  EPW O   H1  H2  EPW O   H1  H2  EPW O   H1  H2  EPW O   H1  H2  EPW O   
H1  H2  EPW O   H1  H2  EPW O   H1  H2  EPW O   H1  H2  EPW O   H1  H2  EPW O   
H1  H2  EPW O   H1  H2  EPW O   H1  H2  EPW O   H1  H2  EPW O   H1  H2  EPW O   
H1  H2  EPW O   H1  H2  EPW O   H1  H2  EPW O   H1  H2  EPW O   H1  H2  EPW O   
H1  H2  EPW O   H1  H2  EPW O   H1  H2  EPW O   H1  H2  EPW O   H1  H2  EPW O   
H1  H2  EPW O   H1  H2  EPW O   H1  H2  EPW O   H1  H2  EPW O   H1  H2  EPW O   
H1  H2  EPW O   H1  H2  EPW O   H1  H2  EPW O   H1  H2  EPW O   H1  H2  EPW 
%FLAG CHARGE                                                                    
%FORMAT(5E16.8)                                                                 
  7.82647785E+00 -1.13397373E+01  1.01680434E+00  1.23729417E+00  1.23729417E+00
  1.94067495E+00  2.13929802E+00 -6.46527204E+00  3.48045930E-01  3.65539338E+00
  8.96537160E-01  2.50374402E+00  2.98845720E+00 -1.04031111E+01  3.17796912E+00
  8.69203710E+00 -1.01990213E+01 -8.72301501E+00  6.23931552E+00  1.39528151E+01
 -1.76246086E+01  7.95221172E+00  7.95221172E+00 -1.15219603E+01  2.22676506E+00
  3.68454906E+00  1.12067145E+00  1.22089410E+00  1.77120756E+00 -1.11866700E+01
  7.62785478E+00 -9.55941858E+00  2.12508463E+01 -1.41405048E+01 -1.41405048E+01
 -9.09110547E+00  1.01680434E+00  1.23729417E+00  1.23729417E+00  1.94067495E+00
  2.13929802E+00 -6.46527204E+00  3.48045930E-01  3.65539338E+00  8.96537160E-01
  2.50374402E+00  2.98845720E+00 -1.04031111E+01  3.17796912E+00  8.69203710E+00
 -1.01990213E+01 -8.72301501E+00  6.23931552E+00  1.39528151E+01 -1.76246086E+01
  7.95221172E+00  7.95221172E+00 -1.15219603E+01  2.22676506E+00  3.68454906E+00
  1.12067145E+00  1.22089410E+00  1.77120756E+00 -1.11866700E+01  7.62785478E+00
 -9.55941858E+00  2.12508463E+01 -1.41405048E+01 -1.41405048E+01 -9.09110547E+00
  1.01680434E+00  1.23729417E+00  1.23729417E+00  1.94067495E+00  2.13929802E+00
 -6.46527204E+00  7.17958620E-01  3.65721561E+00 -4.57379730E-01  3.65539338E+00
  2.82992319E+00 -1.10664028E+01  9.38448450E-01  1.27720101E+01 -1.64346924E+01
  7.49847645E+00  7.49847645E+00 -1.38762815E+01  1.07056013E+01  8.61914790E-01
 -1.27501433E+01  5.56326819E+00  3.68454906E+00  1.12067145E+00  1.22089410E+00
  1.77120756E+00 -1.11866700E+01  7.62785478E+00 -9.55941858E+00  2.12508463E+01
 -1.41405048E+01 -1.41405048E+01 -9.09110547E+00  1.01680434E+00  1.23729417E+00
  1.23729417E+00  1.94067495E+00  2.13929802E+00 -6.46527204E+00  1.22818302E+00
  3.32374752E+00  7.61692140E-01 -2.05183098E+00  3.98703924E+00 -6.62380605E+00
  3.30005853E+00  1.08459130E+01 -1.04978670E+01 -6.46709427E+00  5.74731342E+00
  8.54079201E+00 -9.98035371E+00  3.68454906E+00  1.12067145E+00  1.22089410E+00
  1.77120756E+00 -1.11866700E+01  7.62785478E+00 -9.55941858E+00  2.12508463E+01
 -1.41405048E+01 -1.41405048E+01 -9.09110547E+00  1.01680434E+00  1.23729417E+00
  1.23729417E+00  1.94067495E+00  2.13929802E+00 -6.46527204E+00  1.20267180E-01
  3.69730467E+00 -8.81959320E-01  9.65781900E-02  3.56792634E+00 -9.50292945E+00
  3.51325944E+00  1.49149526E+01 -1.73658519E+01  7.71532182E+00  7.71532182E+00
 -1.38197923E+01  1.37359697E+01 -1.13925820E+01  3.68454906E+00  1.12067145E+00
  1.22089410E+00  1.77120756E+00 -1.11866700E+01  7.62785478E+00 -9.55941858E+00
  2.12508463E+01 -1.41405048E+01 -1.41405048E+01 -9.09110547E+00  1.01680434E+00
  1.23729417E+00  1.23729417E+00  1.94067495E+00  2.13929802E+00 -6.46527204E+00
  7.17958620E-01  3.65721561E+00 -4.57379730E-01  3.65539338E+00  2.82992319E+00
 -1.10664028E+01  9.38448450E-01  1.27720101E+01 -1.64346924E+01  7.49847645E+00
  7.49847645E+00 -1.38762815E+01  1.07056013E+01  8.61914790E-01 -1.27501433E+01
  5.56326819E+00  3.68454906E+00  1.12067145E+00  1.22089410E+00  1.77120756E+00
 -1.11866700E+01  7.62785478E+00 -9.55941858E+00  2.12508463E+01 -1.41405048E+01
 -1.41405048E+01 -9.09110547E+00  1.01680434E+00  1.23729417E+00  1.23729417E+00
  1.94067495E+00  2.13929802E+00 -6.46527204E+00  1.22818302E+00  3.32374752E+00
  7.61692140E-01 -2.05183098E+00  3.98703924E+00 -6.62380605E+00  3.30005853E+00
  1.08459130E+01 -1.04978670E+01 -6.46709427E+00  5.74731342E+00  8.54079201E+00
 -9.98035371E+00  3.68454906E+00  1.12067145E+00  1.22089410E+00  1.77120756E+00
 -1.11866700E+01  7.62785478E+00 -9.55941858E+00  2.12508463E+01 -1.41405048E+01
 -1.41405048E+01 -9.09110547E+00  1.01680434E+00  1.23729417E+00  1.23729417E+00
  1.94067495E+00  2.13929802E+00 -6.46527204E+00  7.17958620E-01  3.65721561E+00
 -4.57379730E-01  3.65539338E+00  2.82992319E+00 -1.10664028E+01  9.38448450E-01
  1.27720101E+01 -1.64346924E+01  7.49847645E+00  7.49847645E+00 -1.38762815E+01
  1.07056013E+01  8.61914790E-01 -1.27501433E+01  5.56326819E+00  3.68454906E+00
  1.12067145E+00  1.22089410E+00  1.77120756E+00 -1.11866700E+01  7.62785478E+00
 -9.55941858E+00  2.12508463E+01 -1.41405048E+01 -1.41405048E+01 -9.09110547E+00
  1.01680434E+00  1.23729417E+00  1.23729417E+00  1.94067495E+00  2.13929802E+00
 -6.46527204E+00  1.22818302E+00  3.32374752E+00  7.61692140E-01 -2.05183098E+00
  3.98703924E+00 -6.62380605E+00  3.30005853E+00  1.08459130E+01 -1.04978670E+01
 -6.46709427E+00  5.74731342E+00  8.54079201E+00 -9.98035371E+00  3.68454906E+00
  1.12067145E+00  1.22089410E+00  1.77120756E+00 -1.11866700E+01  7.62785478E+00
 -9.55941858E+00  2.12508463E+01 -1.41405048E+01 -1.41405048E+01 -9.09110547E+00
  1.01680434E+00  1.23729417E+00  1.23729417E+00  1.94067495E+00  2.13929802E+00
 -6.46527204E+00  7.17958620E-01  3.65721561E+00 -4.57379730E-01  3.65539338E+00
  2.82992319E+00 -1.10664028E+01  9.38448450E-01  1.27720101E+01 -1.64346924E+01
  7.49847645E+00  7.49847645E+00 -1.38762815E+01  1.07056013E+01  8.61914790E-01
 -1.27501433E+01  5.56326819E+00  3.68454906E+00  1.12067145E+00  1.22089410E+00
  1.77120756E+00 -1.11866700E+01  7.62785478E+00 -9.55941858E+00  2.12508463E+01
 -1.41405048E+01 -1.41405048E+01 -9.09110547E+00  1.01680434E+00  1.23729417E+00
  1.23729417E+00  1.94067495E+00  2.13929802E+00 -6.46527204E+00  7.17958620E-01
  3.65721561E+00 -4.57379730E-01  3.65539338E+00  2.82992319E+00 -1.10664028E+01
  9.38448450E-01  1.27720101E+01 -1.64346924E+01  7.49847645E+00  7.49847645E+00
 -1.38762815E+01  1.07056013E+01  8.61914790E-01 -1.27501433E+01  5.56326819E+00
  3.68454906E+00  1.12067145E+00  1.22089410E+00  1.77120756E+00 -1.11866700E+01
  7.62785478E+00 -9.55941858E+00  2.12508463E+01 -1.41405048E+01 -1.41405048E+01
 -9.09110547E+00  1.01680434E+00  1.23729417E+00  1.23729417E+00  1.94067495E+00
  2.13929802E+00 -6.46527204E+00  1.22818302E+00  3.32374752E+00  7.61692140E-01
 -2.05183098E+00  3.98703924E+00 -6.62380605E+00  3.30005853E+00  1.08459130E+01
 -1.04978670E+01 -6.46709427E+00  5.74731342E+00  8.54079201E+00 -9.98035371E+00
  3.68454906E+00  1.12067145E+00  1.22089410E+00  1.77120756E+00 -1.11866700E+01
  7.62785478E+00 -9.55941858E+00  2.12508463E+01 -1.41405048E+01 -1.41405048E+01
 -9.09110547E+00  1.01680434E+00  1.23729417E+00  1.23729417E+00  1.94067495E+00
  2.13929802E+00 -6.46527204E+00  1.20267180E-01  3.69730467E+00 -8.81959320E-01
  9.65781900E-02  3.56792634E+00 -9.50292945E+00  3.51325944E+00  1.49149526E+01
 -1.73658519E+01  7.71532182E+00  7.71532182E+00 -1.38197923E+01  1.37359697E+01
 -1.13925820E+01  3.68454906E+00  1.12067145E+00  1.22089410E+00  1.77120756E+00
 -1.11866700E+01  7.62785478E+00 -9.55941858E+00  2.12508463E+01 -1.41405048E+01
 -1.41405048E+01 -9.09110547E+00  1.01680434E+00  1.23729417E+00  1.23729417E+00
  1.94067495E+00  2.13929802E+00 -6.46527204E+00  3.48045930E-01  3.65539338E+00
  8.96537160E-01  2.50374402E+00  2.98845720E+00 -1.04031111E+01  3.17796912E+00
  8.69203710E+00 -1.01990213E+01 -8.72301501E+00  6.23931552E+00  1.39528151E+01
 -1.76246086E+01  7.95221172E+00  7.95221172E+00 -1.15219603E+01  2.22676506E+00
  3.68454906E+00  1.12067145E+00  1.22089410E+00  1.77120756E+00 -1.11866700E+01
  7.62785478E+00 -9.55941858E+00  2.12508463E+01 -1.41405048E+01 -1.41405048E+01
 -9.09110547E+00  1.01680434E+00  1.23729417E+00  1.23729417E+00  1.94067495E+00
  2.13929802E+00 -6.46527204E+00  1.20267180E-01  3.69730467E+00 -8.81959320E-01
  9.65781900E-02  3.56792634E+00 -9.50292945E+00  3.51325944E+00  1.49149526E+01
 -1.73658519E+01  7.71532182E+00  7.71532182E+00 -1.38197923E+01  1.37359697E+01
 -1.13925820E+01  3.68454906E+00  1.12067145E+00  1.22089410E+00  1.77120756E+00
 -1.11866700E+01  7.62785478E+00 -9.55941858E+00  2.12508463E+01 -1.41405048E+01
 -1.41405048E+01 -9.09110547E+00  1.01680434E+00  1.23729417E+00  1.23729417E+00
  1.94067495E+00  2.13929802E+00 -6.46527204E+00  3.48045930E-01  3.65539338E+00
  8.96537160E-01  2.50374402E+00  2.98845720E+00 -1.04031111E+01  3.17796912E+00
  8.69203710E+00 -1.01990213E+01 -8.72301501E+00  6.23931552E+00  1.39528151E+01
 -1.76246086E+01  7.95221172E+00  7.95221172E+00 -1.15219603E+01  2.22676506E+00
  3.68454906E+00  1.12067145E+00  1.22089410E+00  1.77120756E+00 -1.11866700E+01
  7.62785478E+00 -9.55941858E+00  2.12508463E+01 -1.41405048E+01 -1.41405048E+01
 -9.09110547E+00  1.01680434E+00  1.23729417E+00  1.23729417E+00  1.94067495E+00
  2.13929802E+00 -6.46527204E+00  1.22818302E+00  3.32374752E+00  7.61692140E-01
 -2.05183098E+00  3.98703924E+00 -6.62380605E+00  3.30005853E+00  1.08459130E+01
 -1.04978670E+01 -6.46709427E+00  5.74731342E+00  8.54079201E+00 -9.98035371E+00
  3.68454906E+00  1.12067145E+00  1.22089410E+00  1.77120756E+00 -1.11866700E+01
  7.62785478E+00 -9.55941858E+00  2.12508463E+01 -1.41405048E+01 -1.41405048E+01
 -9.09110547E+00  1.01680434E+00  1.23729417E+00  1.23729417E+00  1.94067495E+00
  2.13929802E+00 -6.46527204E+00  3.48045930E-01  3.65539338E+00  8.96537160E-01
  2.50374402E+00  2.98845720E+00 -1.04031111E+01  3.17796912E+00  8.69203710E+00
 -1.01990213E+01 -8.72301501E+00  6.23931552E+00  1.39528151E+01 -1.76246086E+01
  7.95221172E+00  7.95221172E+00 -1.15219603E+01  2.22676506E+00  3.68454906E+00
  1.12067145E+00  1.22089410E+00  1.77120756E+00 -1.11866700E+01  7.62785478E+00
 -9.55941858E+00  2.12508463E+01 -1.41405048E+01 -1.41405048E+01 -9.09110547E+00
  1.01680434E+00  1.23729417E+00  1.23729417E+00  1.94067495E+00  2.13929802E+00
 -6.46527204E+00  3.48045930E-01  3.65539338E+00  8.96537160E-01  2.50374402E+00
  2.98845720E+00 -1.04031111E+01  3.17796912E+00  8.69203710E+00 -1.01990213E+01
 -8.72301501E+00  6.23931552E+00  1.39528151E+01 -1.76246086E+01  7.95221172E+00
  7.95221172E+00 -1.15219603E+01  2.22676506E+00  3.68454906E+00  1.12067145E+00
  1.22089410E+00  1.77120756E+00 -1.11866700E+01  7.62785478E+00 -9.55941858E+00
  2.12508463E+01 -1.41405048E+01 -1.41405048E+01 -9.09110547E+00  1.01680434E+00
  1.23729417E+00  1.23729417E+00  1.94067495E+00  2.13929802E+00 -6.46527204E+00
  7.17958620E-01  3.65721561E+00 -4.57379730E-01  3.65539338E+00  2.82992319E+00
 -1.10664028E+01  9.38448450E-01  1.27720101E+01 -1.64346924E+01  7.49847645E+00
  7.49847645E+00 -1.38762815E+01  1.07056013E+01  8.61914790E-01 -1.27501433E+01
  5.56326819E+00  3.68454906E+00  1.12067145E+00  1.22089410E+00  1.77120756E+00
 -1.11866700E+01  7.62785478E+00 -9.55941858E+00  2.12508463E+01 -1.41405048E+01
 -1.41405048E+01 -9.09110547E+00  1.01680434E+00  1.23729417E+00  1.23729417E+00
  1.94067495E+00  2.13929802E+00 -6.46527204E+00  1.22818302E+00  3.32374752E+00
  7.61692140E-01 -2.05183098E+00  3.98703924E+00 -6.62380605E+00  3.30005853E+00
  1.08459130E+01 -1.04978670E+01 -6.46709427E+00  5.74731342E+00  8.54079201E+00
 -9.98035371E+00  3.68454906E+00  1.12067145E+00  1.22089410E+00  1.77120756E+00
 -1.11866700E+01  7.62785478E+00 -9.55941858E+00  2.12508463E+01 -1.41405048E+01
 -1.41405048E+01 -9.09110547E+00  1.01680434E+00  1.23729417E+00  1.23729417E+00
  1.94067495E+00  2.13929802E+00 -6.46527204E+00  7.17958620E-01  3.65721561E+00
 -4.57379730E-01  3.65539338E+00  2.82992319E+00 -1.10664028E+01  9.38448450E-01
  1.27720101E+01 -1.64346924E+01  7.49847645E+00  7.49847645E+00 -1.38762815E+01
  1.07056013E+01  8.61914790E-01 -1.27501433E+01  5.56326819E+00  3.68454906E+00
  1.12067145E+00  1.22089410E+00  1.77120756E+00 -1.11866700E+01  7.62785478E+00
 -9.55941858E+00  2.12508463E+01 -1.41405048E+01 -1.41405048E+01 -9.09110547E+00
  1.01680434E+00  1.23729417E+00  1.23729417E+00  1.94067495E+00  2.13929802E+00
 -6.46527204E+00  1.22818302E+00  3.32374752E+00  7.61692140E-01 -2.05183098E+00
  3.98703924E+00 -6.62380605E+00  3.30005853E+00  1.08459130E+01 -1.04978670E+01
 -6.46709427E+00  5.74731342E+00  8.54079201E+00 -9.98035371E+00  3.68454906E+00
  1.12067145E+00  1.22089410E+00  1.77120756E+00 -1.11866700E+01  7.62785478E+00
 -9.55941858E+00  2.12508463E+01 -1.41405048E+01 -1.41405048E+01 -9.09110547E+00
  1.01680434E+00  1.23729417E+00  1.23729417E+00  1.94067495E+00  2.13929802E+00
 -6.46527204E+00  3.48045930E-01  3.65539338E+00  8.96537160E-01  2.50374402E+00
  2.98845720E+00 -1.04031111E+01  3.17796912E+00  8.69203710E+00 -1.01990213E+01
 -8.72301501E+00  6.23931552E+00  1.39528151E+01 -1.76246086E+01  7.95221172E+00
  7.95221172E+00 -1.15219603E+01  2.22676506E+00  3.68454906E+00  1.12067145E+00
  1.22089410E+00  1.77120756E+00 -1.11866700E+01  7.62785478E+00 -9.55941858E+00
  2.12508463E+01 -1.41405048E+01 -1.41405048E+01 -9.09110547E+00  1.01680434E+00
  1.23729417E+00  1.23729417E+00  1.94067495E+00  2.13929802E+00 -6.46527204E+00
  3.48045930E-01  3.65539338E+00  8.96537160E-01  2.50374402E+00  2.98845720E+00
 -1.04031111E+01  3.17796912E+00  8.69203710E+00 -1.01990213E+01 -8.72301501E+00
  6.23931552E+00  1.39528151E+01 -1.76246086E+01  7.95221172E+00  7.95221172E+00
 -1.15219603E+01  2.22676506E+00  3.68454906E+00  1.12067145E+00  1.22089410E+00
  1.77120756E+00 -1.11866700E+01  7.62785478E+00 -9.55941858E+00  2.12508463E+01
 -1.41405048E+01 -1.41405048E+01 -9.09110547E+00  1.01680434E+00  1.23729417E+00
  1.23729417E+00  1.94067495E+00  2.13929802E+00 -6.46527204E+00  1.20267180E-01
  3.69730467E+00 -8.81959320E-01  9.65781900E-02  3.56792634E+00 -9.50292945E+00
  3.51325944E+00  1.49149526E+01 -1.73658519E+01  7.71532182E+00  7.71532182E+00
 -1.38197923E+01  1.37359697E+01 -1.13925820E+01  3.68454906E+00  1.12067145E+00
  1.22089410E+00  1.77120756E+00 -1.11866700E+01  7.62785478E+00 -9.55941858E+00
  2.12508463E+01 -1.41405048E+01 -1.41405048E+01 -9.09110547E+00  1.01680434E+00
  1.23729417E+00  1.23729417E+00  1.94067495E+00  2.13929802E+00 -6.46527204E+00
  7.17958620E-01  3.65721561E+00 -4.57379730E-01  3.65539338E+00  2.82992319E+00
 -1.10664028E+01  9.38448450E-01  1.27720101E+01 -1.64346924E+01  7.49847645E+00
  7.49847645E+00 -1.38762815E+01  1.07056013E+01  8.61914790E-01 -1.27501433E+01
  5.56326819E+00  3.68454906E+00  1.12067145E+00  1.22089410E+00  1.77120756E+00
 -1.11866700E+01  7.62785478E+00 -9.55941858E+00  2.12508463E+01 -1.41405048E+01
 -1.41405048E+01 -9.09110547E+00  1.01680434E+00  1.23729417E+00  1.23729417E+00
  1.94067495E+00  2.13929802E+00 -6.46527204E+00  1.20267180E-01  3.69730467E+00
 -8.81959320E-01  9.65781900E-02  3.56792634E+00 -9.50292945E+00  3.51325944E+00
  1.49149526E+01 -1.73658519E+01  7.71532182E+00  7.71532182E+00 -1.38197923E+01
  1.37359697E+01 -1.13925820E+01  3.68454906E+00  1.12067145E+00  1.22089410E+00
  1.77120756E+00 -1.11866700E+01  7.62785478E+00 -9.55941858E+00  2.12508463E+01
 -1.41405048E+01 -1.41405048E+01 -9.09110547E+00  1.01680434E+00  1.23729417E+00
  1.23729417E+00  1.94067495E+00  2.13929802E+00 -6.46527204E+00  3.48045930E-01
  3.65539338E+00  8.96537160E-01  2.50374402E+00  2.98845720E+00 -1.04031111E+01
  3.17796912E+00  8.69203710E+00 -1.01990213E+01 -8.72301501E+00  6.23931552E+00
  1.39528151E+01 -1.76246086E+01  7.95221172E+00  7.95221172E+00 -1.15219603E+01
  2.22676506E+00  3.68454906E+00  1.12067145E+00  1.22089410E+00  1.77120756E+00
 -1.11866700E+01  7.62785478E+00 -9.55941858E+00  2.12508463E+01 -1.41405048E+01
 -1.41405048E+01 -9.09110547E+00  1.01680434E+00  1.23729417E+00  1.23729417E+00
  1.94067495E+00  2.13929802E+00 -6.46527204E+00  1.20267180E-01  3.69730467E+00
 -8.81959320E-01  9.65781900E-02  3.56792634E+00 -9.50292945E+00  3.51325944E+00
  1.49149526E+01 -1.73658519E+01  7.71532182E+00  7.71532182E+00 -1.38197923E+01
  1.37359697E+01 -1.13925820E+01  3.68454906E+00  1.12067145E+00  1.22089410E+00
  1.77120756E+00 -1.11866700E+01  7.62785478E+00 -9.55941858E+00  2.12508463E+01
 -1.41405048E+01 -1.41405048E+01 -9.09110547E+00  1.01680434E+00  1.23729417E+00
  1.23729417E+00  1.94067495E+00  2.13929802E+00 -6.46527204E+00  7.17958620E-01
  3.65721561E+00 -4.57379730E-01  3.65539338E+00  2.82992319E+00 -1.10664028E+01
  9.38448450E-01  1.27720101E+01 -1.64346924E+01  7.49847645E+00  7.49847645E+00
 -1.38762815E+01  1.07056013E+01  8.61914790E-01 -1.27501433E+01  5.56326819E+00
  3.68454906E+00  1.12067145E+00  1.22089410E+00  1.77120756E+00 -1.11866700E+01
  7.62785478E+00 -9.55941858E+00  2.12508463E+01 -1.41405048E+01 -1.41405048E+01
 -9.09110547E+00  1.01680434E+00  1.23729417E+00  1.23729417E+00  1.94067495E+00
  2.13929802E+00 -6.46527204E+00  7.17958620E-01  3.65721561E+00 -4.57379730E-01
  3.65539338E+00  2.82992319E+00 -1.10664028E+01  9.38448450E-01  1.27720101E+01
 -1.64346924E+01  7.49847645E+00  7.49847645E+00 -1.38762815E+01  1.07056013E+01
  8.61914790E-01 -1.27501433E+01  5.56326819E+00  3.68454906E+00  1.12067145E+00
  1.22089410E+00  1.77120756E+00 -1.11866700E+01  7.62785478E+00 -9.55941858E+00
  2.12508463E+01 -1.41405048E+01 -1.41405048E+01 -9.09110547E+00  1.01680434E+00
  1.23729417E+00  1.23729417E+00  1.94067495E+00  2.13929802E+00 -6.46527204E+00
  3.48045930E-01  3.65539338E+00  8.96537160E-01  2.50374402E+00  2.98845720E+00
 -1.04031111E+01  3.17796912E+00  8.69203710E+00 -1.01990213E+01 -8.72301501E+00
  6.23931552E+00  1.39528151E+01 -1.76246086E+01  7.95221172E+00  7.95221172E+00
 -1.15219603E+01  2.22676506E+00  3.68454906E+00  1.12067145E+00  1.22089410E+00
  1.77120756E+00 -1.11866700E+01  7.62785478E+00 -9.55941858E+00  2.12508463E+01
 -1.41405048E+01 -1.41405048E+01 -9.09110547E+00  1.01680434E+00  1.23729417E+00
  1.23729417E+00  1.94067495E+00  2.13929802E+00 -6.46527204E+00  1.22818302E+00
  3.32374752E+00  7.61692140E-01 -2.05183098E+00  3.98703924E+00 -6.62380605E+00
  3.30005853E+00  1.08459130E+01 -1.04978670E+01 -6.46709427E+00  5.74731342E+00
  8.54079201E+00 -9.98035371E+00  3.68454906E+00  1.12067145E+00  1.22089410E+00
  1.77120756E+00 -1.11866700E+01  7.62785478E+00 -9.55941858E+00  2.12508463E+01
 -1.41405048E+01 -1.41405048E+01 -9.09110547E+00  1.01680434E+00  1.23729417E+00
  1.23729417E+00  1.94067495E+00  2.13929802E+00 -6.46527204E+00  1.22818302E+00
  3.32374752E+00  7.61692140E-01 -2.05183098E+00  3.98703924E+00 -6.62380605E+00
  3.30005853E+00  1.08459130E+01 -1.04978670E+01 -6.46709427E+00  5.74731342E+00
  8.54079201E+00 -9.98035371E+00  3.68454906E+00  1.12067145E+00  1.22089410E+00
  1.77120756E+00 -1.11866700E+01  7.62785478E+00 -9.55941858E+00  2.12508463E+01
 -1.41405048E+01 -1.41405048E+01 -9.09110547E+00  1.01680434E+00  1.23729417E+00
  1.23729417E+00  1.94067495E+00  2.13929802E+00 -6.46527204E+00  1.22818302E+00
  3.32374752E+00  7.61692140E-01 -2.05183098E+00  3.98703924E+00 -6.62380605E+00
  3.30005853E+00  1.08459130E+01 -1.04978670E+01 -6.46709427E+00  5.74731342E+00
  8.54079201E+00 -9.98035371E+00  3.68454906E+00  1.12067145E+00  1.22089410E+00
  1.77120756E+00 -1.11866700E+01  7.62785478E+00 -9.55941858E+00  2.12508463E+01
 -1.41405048E+01 -1.41405048E+01 -9.09110547E+00  1.01680434E+00  1.23729417E+00
  1.23729417E+00  1.94067495E+00  2.13929802E+00 -6.46527204E+00  1.20267180E-01
  3.69730467E+00 -8.81959320E-01  9.65781900E-02  3.56792634E+00 -9.50292945E+00
  3.51325944E+00  1.49149526E+01 -1.73658519E+01  7.71532182E+00  7.71532182E+00
 -1.38197923E+01  1.37359697E+01 -1.13925820E+01  3.68454906E+00  1.12067145E+00
  1.22089410E+00  1.77120756E+00 -1.11866700E+01  7.62785478E+00 -9.55941858E+00
  2.12508463E+01 -1.41405048E+01 -1.41405048E+01 -9.09110547E+00  1.01680434E+00
  1.23729417E+00  1.23729417E+00  1.94067495E+00  2.13929802E+00 -6.46527204E+00
  1.22818302E+00  3.32374752E+00  7.61692140E-01 -2.05183098E+00  3.98703924E+00
 -6.62380605E+00  3.30005853E+00  1.08459130E+01 -1.04978670E+01 -6.46709427E+00
  5.74731342E+00  8.54079201E+00 -9.98035371E+00  3.68454906E+00  1.12067145E+00
  1.22089410E+00  1.77120756E+00 -1.11866700E+01  7.62785478E+00 -9.55941858E+00
  2.12508463E+01 -1.41405048E+01 -1.41405048E+01 -9.09110547E+00  1.01680434E+00
  1.23729417E+00  1.23729417E+00  1.94067495E+00  2.13929802E+00 -6.46527204E+00
  7.17958620E-01  3.65721561E+00 -4.57379730E-01  3.65539338E+00  2.82992319E+00
 -1.10664028E+01  9.38448450E-01  1.27720101E+01 -1.64346924E+01  7.49847645E+00
  7.49847645E+00 -1.38762815E+01  1.07056013E+01  8.61914790E-01 -1.27501433E+01
  5.56326819E+00  3.68454906E+00  1.12067145E+00  1.22089410E+00  1.77120756E+00
 -1.11866700E+01  7.62785478E+00 -9.55941858E+00  2.12508463E+01 -1.41405048E+01
 -1.41405048E+01 -9.09110547E+00  1.01680434E+00  1.23729417E+00  1.23729417E+00
  1.94067495E+00  2.13929802E+00 -6.46527204E+00  1.20267180E-01  3.69730467E+00
 -8.81959320E-01  9.65781900E-02  3.56792634E+00 -9.50292945E+00  3.51325944E+00
  1.49149526E+01 -1.73658519E+01  7.71532182E+00  7.71532182E+00 -1.38197923E+01
  1.37359697E+01 -1.13925820E+01  3.68454906E+00  1.12067145E+00  1.22089410E+00
  1.77120756E+00 -1.11866700E+01  7.62785478E+00 -9.55941858E+00  2.12508463E+01
 -1.41405048E+01 -1.41405048E+01 -9.09110547E+00  1.01680434E+00  1.23729417E+00
  1.23729417E+00  1.94067495E+00  2.13929802E+00 -6.46527204E+00  1.20267180E-01
  3.69730467E+00 -8.81959320E-01  9.65781900E-02  3.56792634E+00 -9.50292945E+00
  3.51325944E+00  1.49149526E+01 -1.73658519E+01  7.71532182E+00  7.71532182E+00
 -1.38197923E+01  1.37359697E+01 -1.13925820E+01  3.68454906E+00  1.12067145E+00
  1.22089410E+00  1.77120756E+00 -1.11866700E+01  7.62785478E+00 -9.55941858E+00
  2.12508463E+01 -1.41405048E+01 -1.41405048E+01 -9.09110547E+00  1.01680434E+00
  1.23729417E+00  1.23729417E+00  1.94067495E+00  2.13929802E+00 -6.46527204E+00
  3.48045930E-01  3.65539338E+00  8.96537160E-01  2.50374402E+00  2.98845720E+00
 -1.04031111E+01  3.17796912E+00  8.69203710E+00 -1.01990213E+01 -8.72301501E+00
  6.23931552E+00  1.39528151E+01 -1.76246086E+01  7.95221172E+00  7.95221172E+00
 -1.15219603E+01  2.22676506E+00  3.68454906E+00  1.12067145E+00  1.22089410E+00
  1.77120756E+00 -1.11866700E+01  7.62785478E+00 -9.55941858E+00  2.12508463E+01
 -1.41405048E+01 -1.41405048E+01 -9.09110547E+00  1.01680434E+00  1.23729417E+00
  1.23729417E+00  1.94067495E+00  2.13929802E+00 -6.46527204E+00  3.48045930E-01
  3.65539338E+00  8.96537160E-01  2.50374402E+00  2.98845720E+00 -1.04031111E+01
  3.17796912E+00  8.69203710E+00 -1.01990213E+01 -8.72301501E+00  6.23931552E+00
  1.39528151E+01 -1.76246086E+01  7.95221172E+00  7.95221172E+00 -1.15219603E+01
  2.22676506E+00  3.68454906E+00  1.12067145E+00  1.22089410E+00  1.77120756E+00
 -1.11866700E+01  7.62785478E+00 -9.55941858E+00  2.12508463E+01 -1.41405048E+01
 -1.41405048E+01 -9.09110547E+00  1.01680434E+00  1.23729417E+00  1.23729417E+00
  1.94067495E+00  2.13929802E+00 -6.46527204E+00  3.48045930E-01  3.65539338E+00
  8.96537160E-01  2.50374402E+00  2.98845720E+00 -1.04031111E+01  3.17796912E+00
  8.69203710E+00 -1.01990213E+01 -8.72301501E+00  6.23931552E+00  1.39528151E+01
 -1.76246086E+01  7.95221172E+00  7.95221172E+00 -1.15219603E+01  2.22676506E+00
  3.68454906E+00  1.12067145E+00  1.22089410E+00  1.77120756E+00 -1.11866700E+01
  7.62785478E+00 -9.55941858E+00  2.12508463E+01 -1.41405048E+01 -1.41405048E+01
 -9.09110547E+00  1.01680434E+00  1.23729417E+00  1.23729417E+00  1.94067495E+00
  2.13929802E+00 -6.46527204E+00  1.20267180E-01  3.69730467E+00 -8.81959320E-01
  9.65781900E-02  3.56792634E+00 -9.50292945E+00  3.51325944E+00  1.49149526E+01
 -1.73658519E+01  7.71532182E+00  7.71532182E+00 -1.38197923E+01  1.37359697E+01
 -1.13925820E+01  3.68454906E+00  1.12067145E+00  1.22089410E+00  1.77120756E+00
 -1.11866700E+01  7.62785478E+00 -9.55941858E+00  2.12508463E+01 -1.41405048E+01
 -1.41405048E+01 -9.09110547E+00  1.01680434E+00  1.23729417E+00  1.23729417E+00
  1.94067495E+00  2.13929802E+00 -6.46527204E+00  7.17958620E-01  3.65721561E+00
 -4.57379730E-01  3.65539338E+00  2.82992319E+00 -1.10664028E+01  9.38448450E-01
  1.27720101E+01 -1.64346924E+01  7.49847645E+00  7.49847645E+00 -1.38762815E+01
  1.07056013E+01  8.61914790E-01 -1.27501433E+01  5.56326819E+00  3.68454906E+00
  1.12067145E+00  1.22089410E+00  1.77120756E+00 -1.11866700E+01  7.62785478E+00
 -9.55941858E+00  2.12508463E+01 -1.41405048E+01 -1.41405048E+01 -9.09110547E+00
  1.01680434E+00  1.23729417E+00  1.23729417E+00  1.94067495E+00  2.13929802E+00
 -6.46527204E+00  1.20267180E-01  3.69730467E+00 -8.81959320E-01  9.65781900E-02
  3.56792634E+00 -9.50292945E+00  3.51325944E+00  1.49149526E+01 -1.73658519E+01
  7.71532182E+00  7.71532182E+00 -1.38197923E+01  1.37359697E+01 -1.13925820E+01
  3.68454906E+00  1.12067145E+00  1.22089410E+00  1.77120756E+00 -1.11866700E+01
  7.62785478E+00 -9.55941858E+00  2.12508463E+01 -1.41405048E+01 -1.41405048E+01
 -9.09110547E+00  1.01680434E+00  1.23729417E+00  1.23729417E+00  1.94067495E+00
  2.13929802E+00 -6.46527204E+00  1.20267180E-01  3.69730467E+00 -8.81959320E-01
  9.65781900E-02  3.56792634E+00 -9.50292945E+00  3.51325944E+00  1.49149526E+01
 -1.73658519E+01  7.71532182E+00  7.71532182E+00 -1.38197923E+01  1.37359697E+01
 -1.13925820E+01  3.68454906E+00  1.12067145E+00  1.22089410E+00  1.77120756E+00
 -1.11866700E+01  7.62785478E+00 -9.55941858E+00  2.12508463E+01 -1.41405048E+01
 -1.41405048E+01 -9.09110547E+00  1.01680434E+00  1.23729417E+00  1.23729417E+00
  1.94067495E+00  2.13929802E+00 -6.46527204E+00  3.48045930E-01  3.65539338E+00
  8.96537160E-01  2.50374402E+00  2.98845720E+00 -1.04031111E+01  3.17796912E+00
  8.69203710E+00 -1.01990213E+01 -8.72301501E+00  6.23931552E+00  1.39528151E+01
 -1.76246086E+01  7.95221172E+00  7.95221172E+00 -1.15219603E+01  2.22676506E+00
  3.68454906E+00  1.12067145E+00  1.22089410E+00  1.77120756E+00 -1.11866700E+01
  7.62785478E+00 -9.55941858E+00  2.12508463E+01 -1.41405048E+01 -1.41405048E+01
 -9.09110547E+00  1.01680434E+00  1.23729417E+00  1.23729417E+00  1.94067495E+00
  2.13929802E+00 -6.46527204E+00  1.22818302E+00  3.32374752E+00  7.61692140E-01
 -2.05183098E+00  3.98703924E+00 -6.62380605E+00  3.30005853E+00  1.08459130E+01
 -1.04978670E+01 -6.46709427E+00  5.74731342E+00  8.54079201E+00 -9.98035371E+00
  3.68454906E+00  1.12067145E+00  1.22089410E+00  1.77120756E+00 -1.11866700E+01
  7.62785478E+00 -9.55941858E+00  2.12508463E+01 -1.41405048E+01 -1.41405048E+01
 -9.09110547E+00  1.01680434E+00  1.23729417E+00  1.23729417E+00  1.94067495E+00
  2.13929802E+00 -6.46527204E+00  7.17958620E-01  3.65721561E+00 -4.57379730E-01
  3.65539338E+00  2.82992319E+00 -1.10664028E+01  9.38448450E-01  1.27720101E+01
 -1.64346924E+01  7.49847645E+00  7.49847645E+00 -1.38762815E+01  1.07056013E+01
  8.61914790E-01 -1.27501433E+01  5.56326819E+00  3.68454906E+00  1.12067145E+00
  1.22089410E+00  1.77120756E+00 -1.11866700E+01  7.62785478E+00 -9.55941858E+00
  2.12508463E+01 -1.41405048E+01 -1.41405048E+01 -9.09110547E+00  1.01680434E+00
  1.23729417E+00  1.23729417E+00  1.94067495E+00  2.13929802E+00 -6.46527204E+00
  7.17958620E-01  3.65721561E+00 -4.57379730E-01  3.65539338E+00  2.82992319E+00
 -1.10664028E+01  9.38448450E-01  1.27720101E+01 -1.64346924E+01  7.49847645E+00
  7.49847645E+00 -1.38762815E+01  1.07056013E+01  8.61914790E-01 -1.27501433E+01
  5.56326819E+00  3.68454906E+00  1.12067145E+00  1.22089410E+00  1.77120756E+00
 -1.11866700E+01  7.62785478E+00 -9.55941858E+00  2.12508463E+01 -1.41405048E+01
 -1.41405048E+01 -9.09110547E+00  1.01680434E+00  1.23729417E+00  1.23729417E+00
  1.94067495E+00  2.13929802E+00 -6.46527204E+00  7.17958620E-01  3.65721561E+00
 -4.57379730E-01  3.65539338E+00  2.82992319E+00 -1.10664028E+01  9.38448450E-01
  1.27720101E+01 -1.64346924E+01  7.49847645E+00  7.49847645E+00 -1.38762815E+01
  1.07056013E+01  8.61914790E-01 -1.27501433E+01  5.56326819E+00  3.68454906E+00
  1.12067145E+00  1.22089410E+00  1.77120756E+00 -1.11866700E+01  7.62785478E+00
 -9.55941858E+00  2.12508463E+01 -1.41405048E+01 -1.41405048E+01 -9.09110547E+00
  1.01680434E+00  1.23729417E+00  1.23729417E+00  1.94067495E+00  2.13929802E+00
 -6.46527204E+00  1.22818302E+00  3.32374752E+00  7.61692140E-01 -2.05183098E+00
  3.98703924E+00 -6.62380605E+00  3.30005853E+00  1.08459130E+01 -1.04978670E+01
 -6.46709427E+00  5.74731342E+00  8.54079201E+00 -9.98035371E+00  3.68454906E+00
  1.12067145E+00  1.22089410E+00  1.77120756E+00 -1.11866700E+01  7.62785478E+00
 -9.55941858E+00  2.12508463E+01 -1.41405048E+01 -1.41405048E+01 -9.09110547E+00
  1.01680434E+00  1.23729417E+00  1.23729417E+00  1.94067495E+00  2.13929802E+00
 -6.46527204E+00  3.48045930E-01  3.65539338E+00  8.96537160E-01  2.50374402E+00
  2.98845720E+00 -1.04031111E+01  3.17796912E+00  8.69203710E+00 -1.01990213E+01
 -8.72301501E+00  6.23931552E+00  1.39528151E+01 -1.76246086E+01  7.95221172E+00
  7.95221172E+00 -1.15219603E+01  2.22676506E+00  3.68454906E+00  1.12067145E+00
  1.22089410E+00  1.77120756E+00 -1.11866700E+01  7.62785478E+00 -9.55941858E+00
  2.12508463E+01 -1.41405048E+01 -1.41405048E+01 -9.09110547E+00  1.01680434E+00
  1.23729417E+00  1.23729417E+00  1.94067495E+00  2.13929802E+00 -6.46527204E+00
  1.22818302E+00  3.32374752E+00  7.61692140E-01 -2.05183098E+00  3.98703924E+00
 -6.62380605E+00  3.30005853E+00  1.08459130E+01 -1.04978670E+01 -6.46709427E+00
  5.74731342E+00  8.54079201E+00 -9.98035371E+00  3.68454906E+00  1.12067145E+00
  1.22089410E+00  1.77120756E+00 -1.11866700E+01  7.62785478E+00 -9.55941858E+00
  2.12508463E+01 -1.41405048E+01 -1.41405048E+01 -9.09110547E+00  1.01680434E+00
  1.23729417E+00  1.23729417E+00  1.94067495E+00  2.13929802E+00 -6.46527204E+00
  1.20267180E-01  3.69730467E+00 -8.81959320E-01  9.65781900E-02  3.56792634E+00
 -9.50292945E+00  3.51325944E+00  1.49149526E+01 -1.73658519E+01  7.71532182E+00
  7.71532182E+00 -1.38197923E+01  1.37359697E+01 -1.13925820E+01  3.68454906E+00
  1.12067145E+00  1.22089410E+00  1.77120756E+00 -1.11866700E+01  7.62785478E+00
 -9.55941858E+00  2.12508463E+01 -1.41405048E+01 -1.41405048E+01 -9.09110547E+00
  1.01680434E+00  1.23729417E+00  1.23729417E+00  1.94067495E+00  2.13929802E+00
 -6.46527204E+00  1.20267180E-01  3.69730467E+00 -8.81959320E-01  9.65781900E-02
  3.56792634E+00 -9.50292945E+00  3.51325944E+00  1.49149526E+01 -1.73658519E+01
  7.71532182E+00  7.71532182E+00 -1.38197923E+01  1.37359697E+01 -1.13925820E+01
  3.68454906E+00  1.12067145E+00  1.22089410E+00  1.77120756E+00 -1.11866700E+01
  7.62785478E+00 -9.55941858E+00  2.12508463E+01 -1.41405048E+01 -1.41405048E+01
 -9.09110547E+00  1.01680434E+00  1.23729417E+00  1.23729417E+00  1.94067495E+00
  2.13929802E+00 -6.46527204E+00  3.48045930E-01  3.65539338E+00  8.96537160E-01
  2.50374402E+00  2.98845720E+00 -1.04031111E+01  3.17796912E+00  8.69203710E+00
 -1.01990213E+01 -8.72301501E+00  6.23931552E+00  1.39528151E+01 -1.76246086E+01
  7.95221172E+00  7.95221172E+00 -1.15219603E+01  2.22676506E+00  3.68454906E+00
  1.12067145E+00  1.22089410E+00  1.77120756E+00 -1.11866700E+01  7.62785478E+00
 -9.55941858E+00  2.12508463E+01 -1.41405048E+01 -1.41405048E+01 -9.09110547E+00
  1.01680434E+00  1.23729417E+00  1.23729417E+00  1.94067495E+00  2.13929802E+00
 -6.46527204E+00  7.17958620E-01  3.65721561E+00 -4.57379730E-01  3.65539338E+00
  2.82992319E+00 -1.10664028E+01  9.38448450E-01  1.27720101E+01 -1.64346924E+01
  7.49847645E+00  7.49847645E+00 -1.38762815E+01  1.07056013E+01  8.61914790E-01
 -1.27501433E+01  5.56326819E+00  3.68454906E+00  1.12067145E+00  1.22089410E+00
  1.77120756E+00 -1.11866700E+01  7.62785478E+00 -9.55941858E+00  2.12508463E+01
 -1.41405048E+01 -1.41405048E+01 -9.09110547E+00  1.01680434E+00  1.23729417E+00
  1.23729417E+00  1.94067495E+00  2.13929802E+00 -6.46527204E+00  1.20267180E-01
  3.69730467E+00 -8.81959320E-01  9.65781900E-02  3.56792634E+00 -9.50292945E+00
  3.51325944E+00  1.49149526E+01 -1.73658519E+01  7.71532182E+00  7.71532182E+00
 -1.38197923E+01  1.37359697E+01 -1.13925820E+01  3.68454906E+00  1.12067145E+00
  1.22089410E+00  1.77120756E+00 -1.11866700E+01  7.62785478E+00 -9.55941858E+00
  2.12508463E+01 -1.41405048E+01 -1.41405048E+01 -9.09110547E+00  1.01680434E+00
  1.23729417E+00  1.23729417E+00  1.94067495E+00  2.13929802E+00 -6.46527204E+00
  1.22818302E+00  3.32374752E+00  7.61692140E-01 -2.05183098E+00  3.98703924E+00
 -6.62380605E+00  3.30005853E+00  1.08459130E+01 -1.04978670E+01 -6.46709427E+00
  5.74731342E+00  8.54079201E+00 -9.98035371E+00  3.68454906E+00  1.12067145E+00
  1.22089410E+00  1.77120756E+00 -1.11866700E+01  7.62785478E+00 -9.55941858E+00
  2.12508463E+01 -1.41405048E+01 -1.41405048E+01 -9.09110547E+00  1.01680434E+00
  1.23729417E+00  1.23729417E+00  1.94067495E+00  2.13929802E+00 -6.46527204E+00
  7.17958620E-01  3.65721561E+00 -4.57379730E-01  3.65539338E+00  2.82992319E+00
 -1.10664028E+01  9.38448450E-01  1.27720101E+01 -1.64346924E+01  7.49847645E+00
  7.49847645E+00 -1.38762815E+01  1.07056013E+01  8.61914790E-01 -1.27501433E+01
  5.56326819E+00  3.68454906E+00  1.12067145E+00  1.22089410E+00  1.77120756E+00
 -1.11866700E+01  7.62785478E+00 -9.55941858E+00  2.12508463E+01 -1.41405048E+01
 -1.41405048E+01 -9.09110547E+00  1.01680434E+00  1.23729417E+00  1.23729417E+00
  1.94067495E+00  2.13929802E+00 -6.46527204E+00  1.22818302E+00  3.32374752E+00
  7.61692140E-01 -2.05183098E+00  3.98703924E+00 -6.62380605E+00  3.30005853E+00
  1.08459130E+01 -1.04978670E+01 -6.46709427E+00  5.74731342E+00  8.54079201E+00
 -9.98035371E+00  3.68454906E+00  1.12067145E+00  1.22089410E+00  1.77120756E+00
 -1.11866700E+01  7.62785478E+00 -9.55941858E+00  2.12508463E+01 -1.41405048E+01
 -1.41405048E+01 -9.09110547E+00  1.01680434E+00  1.23729417E+00  1.23729417E+00
  1.94067495E+00  2.13929802E+00 -6.46527204E+00  3.48045930E-01  3.65539338E+00
  8.96537160E-01  2.50374402E+00  2.98845720E+00 -1.04031111E+01  3.17796912E+00
  8.69203710E+00 -1.01990213E+01 -8.72301501E+00  6.23931552E+00  1.39528151E+01
 -1.76246086E+01  7.95221172E+00  7.95221172E+00 -1.15219603E+01  2.22676506E+00
  3.68454906E+00  1.12067145E+00  1.22089410E+00  1.77120756E+00 -1.11866700E+01
  7.62785478E+00 -9.55941858E+00  2.12508463E+01 -1.41405048E+01 -1.41405048E+01
 -9.09110547E+00  1.01680434E+00  1.23729417E+00  1.23729417E+00  1.94067495E+00
  2.13929802E+00 -6.46527204E+00  3.48045930E-01  3.65539338E+00  8.96537160E-01
  2.50374402E+00  2.98845720E+00 -1.04031111E+01  3.17796912E+00  8.69203710E+00
 -1.01990213E+01 -8.72301501E+00  6.23931552E+00  1.39528151E+01 -1.76246086E+01
  7.95221172E+00  7.95221172E+00 -1.15219603E+01  2.22676506E+00  3.68454906E+00
  1.12067145E+00  1.22089410E+00  1.77120756E+00 -1.11866700E+01  7.62785478E+00
 -9.55941858E+00  2.12508463E+01 -1.41405048E+01 -1.41405048E+01 -9.09110547E+00
  1.01680434E+00  1.23729417E+00  1.23729417E+00  1.94067495E+00  2.13929802E+00
 -6.46527204E+00  1.22818302E+00  3.32374752E+00  7.61692140E-01 -2.05183098E+00
  3.98703924E+00 -6.62380605E+00  3.30005853E+00  1.08459130E+01 -1.04978670E+01
 -6.46709427E+00  5.74731342E+00  8.54079201E+00 -9.98035371E+00  3.68454906E+00
  1.12067145E+00  1.22089410E+00  1.77120756E+00 -1.11866700E+01  7.62785478E+00
 -9.55941858E+00  2.12508463E+01 -1.41405048E+01 -1.41405048E+01 -9.09110547E+00
  1.01680434E+00  1.23729417E+00  1.23729417E+00  1.94067495E+00  2.13929802E+00
 -6.46527204E+00  1.20267180E-01  3.69730467E+00 -8.81959320E-01  9.65781900E-02
  3.56792634E+00 -9.50292945E+00  3.51325944E+00  1.49149526E+01 -1.73658519E+01
  7.71532182E+00  7.71532182E+00 -1.38197923E+01  1.37359697E+01 -1.13925820E+01
  3.68454906E+00  1.12067145E+00  1.22089410E+00  1.77120756E+00 -1.11866700E+01
  7.62785478E+00 -1.19192064E+01  7.97407848E+00  1.82223000E+01  1.82223000E+01
  1.82223000E+01  1.82223000E+01  1.82223000E+01  1.82223000E+01  1.82223000E+01
  1.82223000E+01  1.82223000E+01  1.82223000E+01  1.82223000E+01  1.82223000E+01
  1.82223000E+01  1.82223000E+01  1.82223000E+01  1.82223000E+01  1.82223000E+01
  1.82223000E+01  1.82223000E+01  1.82223000E+01  1.82223000E+01  1.82223000E+01
  1.82223000E+01  1.82223000E+01  1.82223000E+01  1.82223000E+01  1.82223000E+01
  1.82223000E+01  1.82223000E+01  1.82223000E+01  1.82223000E+01  1.82223000E+01
  1.82223000E+01  1.82223000E+01  1.82223000E+01  1.82223000E+01  1.82223000E+01
  1.82223000E+01  1.82223000E+01  1.82223000E+01  1.82223000E+01  1.82223000E+01
  1.82223000E+01  1.82223000E+01  1.82223000E+01  1.82223000E+01  1.82223000E+01
  1.82223000E+01  1.82223000E+01  1.82223000E+01  1.82223000E+01  1.82223000E+01
  1.82223000E+01  1.82223000E+01  1.82223000E+01  1.82223000E+01  1.82223000E+01
  1.82223000E+01  1.82223000E+01  1.82223000E+01  1.82223000E+01  1.82223000E+01
  1.82223000E+01  1.82223000E+01  1.82223000E+01  1.82223000E+01  1.82223000E+01
  1.82223000E+01 -1.82223000E+01  1.82223000E+01 -1.82223000E+01  1.82223000E+01
 -1.82223000E+01  1.82223000E+01 -1.82223000E+01  1.82223000E+01 -1.82223000E+01
  1.82223000E+01 -1.82223000E+01  1.82223000E+01 -1.82223000E+01  1.82223000E+01
 -1.82223000E+01  1.82223000E+01 -1.82223000E+01  1.82223000E+01 -1.82223000E+01
  1.82223000E+01 -1.82223000E+01  1.82223000E+01 -1.82223000E+01  1.82223000E+01
 -1.82223000E+01  1.82223000E+01 -1.82223000E+01  1.82223000E+01 -1.82223000E+01
  1.82223000E+01 -1.82223000E+01  1.82223000E+01 -1.82223000E+01  1.82223000E+01
 -1.82223000E+01  1.82223000E+01 -1.82223000E+01  1.82223000E+01 -1.82223000E+01
  1.82223000E+01 -1.82223000E+01  1.82223000E+01 -1.82223000E+01  1.82223000E+01
 -1.82223000E+01  1.82223000E+01 -1.82223000E+01  1.82223000E+01 -1.82223000E+01
  1.82223000E+01 -1.82223000E+01  1.82223000E+01 -1.82223000E+01  1.82223000E+01
 -1.82223000E+01  1.82223000E+01 -1.82223000E+01  1.82223000E+01 -1.82223000E+01
  1.82223000E+01 -1.82223000E+01  1.82223000E+01 -1.82223000E+01 -1.07438681E+01
  5.88762513E+00 -4.02348384E+00  9.13483899E+00 -1.03156440E+01 -1.99898631E+00
 -6.85158480E-01  3.17068020E-01 -1.07329347E+00 -3.65721561E+00 -1.69285167E+00
 -3.22352487E+00 -2.06458659E+00 -1.07657348E+01  6.32860479E+00  5.50313460E+00
 -9.91839789E+00  1.20084957E+00 -6.32860479E+00  5.63615739E+00  7.10851923E+00
  1.61449578E+00  1.61449578E+00  2.25045405E+00  2.82810096E+00  2.27960973E+00
  2.75885622E+00  1.85320791E+00  3.65721561E+00  6.51811671E+00  0.00000000E+00
  9.55249411E+00  9.55249411E+00 -1.91049882E+01  0.00000000E+00  9.55249411E+00
  9.55249411E+00 -1.91049882E+01  0.00000000E+00  9.55249411E+00  9.55249411E+00
 -1.91049882E+01  0.00000000E+00  9.55249411E+00  9.55249411E+00 -1.91049882E+01
  0.00000000E+00  9.55249411E+00  9.55249411E+00 -1.91049882E+01  0.00000000E+00
  9.55249411E+00  9.55249411E+00 -1.91049882E+01  0.00000000E+00  9.55249411E+00
  9.55249411E+00 -1.91049882E+01  0.00000000E+00  9.55249411E+00  9.55249411E+00
 -1.91049882E+01  0.00000000E+00  9.55249411E+00  9.55249411E+00 -1.91049882E+01
  0.00000000E+00  9.55249411E+00  9.55249411E+00 -1.91049882E+01  0.00000000E+00
  9.55249411E+00  9.55249411E+00 -1.91049882E+01  0.00000000E+00  9.55249411E+00
  9.55249411E+00 -1.91049882E+01  0.00000000E+00  9.55249411E+00  9.55249411E+00
 -1.91049882E+01  0.00000000E+00  9.55249411E+00  9.55249411E+00 -1.91049882E+01
  0.00000000E+00  9.55249411E+00  9.55249411E+00 -1.91049882E+01  0.00000000E+00
  9.55249411E+00  9.55249411E+00 -1.91049882E+01  0.00000000E+00  9.55249411E+00
  9.55249411E+00 -1.91049882E+01  0.00000000E+00  9.55249411E+00  9.55249411E+00
 -1.91049882E+01  0.00000000E+00  9.55249411E+00  9.55249411E+00 -1.91049882E+01
  0.00000000E+00  9.55249411E+00  9.55249411E+00 -1.91049882E+01  0.00000000E+00
  9.55249411E+00  9.55249411E+00 -1.91049882E+01  0.00000000E+00  9.55249411E+00
  9.55249411E+00 -1.91049882E+01  0.00000000E+00  9.55249411E+00  9.55249411E+00
 -1.91049882E+01  0.00000000E+00  9.55249411E+00  9.55249411E+00 -1.91049882E+01
  0.00000000E+00  9.55249411E+00  9.55249411E+00 -1.91049882E+01  0.00000000E+00
  9.55249411E+00  9.55249411E+00 -1.91049882E+01  0.00000000E+00  9.55249411E+00
  9.55249411E+00 -1.91049882E+01  0.00000000E+00  9.55249411E+00  9.55249411E+00
 -1.91049882E+01  0.00000000E+00  9.55249411E+00  9.55249411E+00 -1.91049882E+01
  0.00000000E+00  9.55249411E+00  9.55249411E+00 -1.91049882E+01  0.00000000E+00
  9.55249411E+00  9.55249411E+00 -1.91049882E+01  0.00000000E+00  9.55249411E+00
  9.55249411E+00 -1.91049882E+01  0.00000000E+00  9.55249411E+00  9.55249411E+00
 -1.91049882E+01  0.00000000E+00  9.55249411E+00  9.55249411E+00 -1.91049882E+01
  0.00000000E+00  9.55249411E+00  9.55249411E+00 -1.91049882E+01  0.00000000E+00
  9.55249411E+00  9.55249411E+00 -1.91049882E+01  0.00000000E+00  9.55249411E+00
  9.55249411E+00 -1.91049882E+01  0.00000000E+00  9.55249411E+00  9.55249411E+00
 -1.91049882E+01  0.00000000E+00  9.55249411E+00  9.55249411E+00 -1.91049882E+01
  0.00000000E+00  9.55249411E+00  9.55249411E+00 -1.91049882E+01  0.00000000E+00
  9.55249411E+00  9.55249411E+00 -1.91049882E+01  0.00000000E+00  9.55249411E+00
  9.55249411E+00 -1.91049882E+01  0.00000000E+00  9.55249411E+00  9.55249411E+00
 -1.91049882E+01  0.00000000E+00  9.55249411E+00  9.55249411E+00 -1.91049882E+01
  0.00000000E+00  9.55249411E+00  9.55249411E+00 -1.91049882E+01  0.00000000E+00
  9.55249411E+00  9.55249411E+00 -1.91049882E+01  0.00000000E+00  9.55249411E+00
  9.55249411E+00 -1.91049882E+01  0.00000000E+00  9.55249411E+00  9.55249411E+00
 -1.91049882E+01  0.00000000E+00  9.55249411E+00  9.55249411E+00 -1.91049882E+01
  0.00000000E+00  9.55249411E+00  9.55249411E+00 -1.91049882E+01  0.00000000E+00
  9.55249411E+00  9.55249411E+00 -1.91049882E+01  0.00000000E+00  9.55249411E+00
  9.55249411E+00 -1.91049882E+01  0.00000000E+00  9.55249411E+00  9.55249411E+00
 -1.91049882E+01  0.00000000E+00  9.55249411E+00  9.55249411E+00 -1.91049882E+01
  0.00000000E+00  9.55249411E+00  9.55249411E+00 -1.91049882E+01  0.00000000E+00
  9.55249411E+00  9.55249411E+00 -1.91049882E+01  0.00000000E+00  9.55249411E+00
  9.55249411E+00 -1.91049882E+01  0.00000000E+00  9.55249411E+00  9.55249411E+00
 -1.91049882E+01  0.00000000E+00  9.55249411E+00  9.55249411E+00 -1.91049882E+01
  0.00000000E+00  9.55249411E+00  9.55249411E+00 -1.91049882E+01  0.00000000E+00
  9.55249411E+00  9.55249411E+00 -1.91049882E+01  0.00000000E+00  9.55249411E+00
  9.55249411E+00 -1.91049882E+01  0.00000000E+00  9.55249411E+00  9.55249411E+00
 -1.91049882E+01  0.00000000E+00  9.55249411E+00  9.55249411E+00 -1.91049882E+01
  0.00000000E+00  9.55249411E+00  9.55249411E+00 -1.91049882E+01  0.00000000E+00
  9.55249411E+00  9.55249411E+00 -1.91049882E+01  0.00000000E+00  9.55249411E+00
  9.55249411E+00 -1.91049882E+01  0.00000000E+00  9.55249411E+00  9.55249411E+00
 -1.91049882E+01  0.00000000E+00  9.55249411E+00  9.55249411E+00 -1.91049882E+01
  0.00000000E+00  9.55249411E+00  9.55249411E+00 -1.91049882E+01  0.00000000E+00
  9.55249411E+00  9.55249411E+00 -1.91049882E+01  0.00000000E+00  9.55249411E+00
  9.55249411E+00 -1.91049882E+01  0.00000000E+00  9.55249411E+00  9.55249411E+00
 -1.91049882E+01  0.00000000E+00  9.55249411E+00  9.55249411E+00 -1.91049882E+01
  0.00000000E+00  9.55249411E+00  9.55249411E+00 -1.91049882E+01  0.00000000E+00
  9.55249411E+00  9.55249411E+00 -1.91049882E+01  0.00000000E+00  9.55249411E+00
  9.55249411E+00 -1.91049882E+01  0.00000000E+00  9.55249411E+00  9.55249411E+00
 -1.91049882E+01  0.00000000E+00  9.55249411E+00  9.55249411E+00 -1.91049882E+01
  0.00000000E+00  9.55249411E+00  9.55249411E+00 -1.91049882E+01  0.00000000E+00
  9.55249411E+00  9.55249411E+00 -1.91049882E+01  0.00000000E+00  9.55249411E+00
  9.55249411E+00 -1.91049882E+01  0.00000000E+00  9.55249411E+00  9.55249411E+00
 -1.91049882E+01  0.00000000E+00  9.55249411E+00  9.55249411E+00 -1.91049882E+01
  0.00000000E+00  9.55249411E+00  9.55249411E+00 -1.91049882E+01  0.00000000E+00
  9.55249411E+00  9.55249411E+00 -1.91049882E+01  0.00000000E+00  9.55249411E+00
  9.55249411E+00 -1.91049882E+01  0.00000000E+00  9.55249411E+00  9.55249411E+00
 -1.91049882E+01  0.00000000E+00  9.55249411E+00  9.55249411E+00 -1.91049882E+01
  0.00000000E+00  9.55249411E+00  9.55249411E+00 -1.91049882E+01  0.00000000E+00
  9.55249411E+00  9.55249411E+00 -1.91049882E+01  0.00000000E+00  9.55249411E+00
  9.55249411E+00 -1.91049882E+01  0.00000000E+00  9.55249411E+00  9.55249411E+00
 -1.91049882E+01  0.00000000E+00  9.55249411E+00  9.55249411E+00 -1.91049882E+01
  0.00000000E+00  9.55249411E+00  9.55249411E+00 -1.91049882E+01  0.00000000E+00
  9.55249411E+00  9.55249411E+00 -1.91049882E+01  0.00000000E+00  9.55249411E+00
  9.55249411E+00 -1.91049882E+01  0.00000000E+00  9.55249411E+00  9.55249411E+00
 -1.91049882E+01  0.00000000E+00  9.55249411E+00  9.55249411E+00 -1.91049882E+01
  0.00000000E+00  9.55249411E+00  9.55249411E+00 -1.91049882E+01  0.00000000E+00
  9.55249411E+00  9.55249411E+00 -1.91049882E+01  0.00000000E+00  9.55249411E+00
  9.55249411E+00 -1.91049882E+01  0.00000000E+00  9.55249411E+00  9.55249411E+00
 -1.91049882E+01  0.00000000E+00  9.55249411E+00  9.55249411E+00 -1.91049882E+01
  0.00000000E+00  9.55249411E+00  9.55249411E+00 -1.91049882E+01  0.00000000E+00
  9.55249411E+00  9.55249411E+00 -1.91049882E+01  0.00000000E+00  9.55249411E+00
  9.55249411E+00 -1.91049882E+01  0.00000000E+00  9.55249411E+00  9.55249411E+00
 -1.91049882E+01  0.00000000E+00  9.55249411E+00  9.55249411E+00 -1.91049882E+01
  0.00000000E+00  9.55249411E+00  9.55249411E+00 -1.91049882E+01  0.00000000E+00
  9.55249411E+00  9.55249411E+00 -1.91049882E+01  0.00000000E+00  9.55249411E+00
  9.55249411E+00 -1.91049882E+01  0.00000000E+00  9.55249411E+00  9.55249411E+00
 -1.91049882E+01  0.00000000E+00  9.55249411E+00  9.55249411E+00 -1.91049882E+01
  0.00000000E+00  9.55249411E+00  9.55249411E+00 -1.91049882E+01  0.00000000E+00
  9.55249411E+00  9.55249411E+00 -1.91049882E+01  0.00000000E+00  9.55249411E+00
  9.55249411E+00 -1.91049882E+01  0.00000000E+00  9.55249411E+00  9.55249411E+00
 -1.91049882E+01  0.00000000E+00  9.55249411E+00  9.55249411E+00 -1.91049882E+01
  0.00000000E+00  9.55249411E+00  9.55249411E+00 -1.91049882E+01  0.00000000E+00
  9.55249411E+00  9.55249411E+00 -1.91049882E+01  0.00000000E+00  9.55249411E+00
  9.55249411E+00 -1.91049882E+01  0.00000000E+00  9.55249411E+00  9.55249411E+00
 -1.91049882E+01  0.00000000E+00  9.55249411E+00  9.55249411E+00 -1.91049882E+01
  0.00000000E+00  9.55249411E+00  9.55249411E+00 -1.91049882E+01  0.00000000E+00
  9.55249411E+00  9.55249411E+00 -1.91049882E+01  0.00000000E+00  9.55249411E+00
  9.55249411E+00 -1.91049882E+01  0.00000000E+00  9.55249411E+00  9.55249411E+00
 -1.91049882E+01  0.00000000E+00  9.55249411E+00  9.55249411E+00 -1.91049882E+01
  0.00000000E+00  9.55249411E+00  9.55249411E+00 -1.91049882E+01  0.00000000E+00
  9.55249411E+00  9.55249411E+00 -1.91049882E+01  0.00000000E+00  9.55249411E+00
  9.55249411E+00 -1.91049882E+01  0.00000000E+00  9.55249411E+00  9.55249411E+00
 -1.91049882E+01  0.00000000E+00  9.55249411E+00  9.55249411E+00 -1.91049882E+01
  0.00000000E+00  9.55249411E+00  9.55249411E+00 -1.91049882E+01  0.00000000E+00
  9.55249411E+00  9.55249411E+00 -1.91049882E+01  0.00000000E+00  9.55249411E+00
  9.55249411E+00 -1.91049882E+01  0.00000000E+00  9.55249411E+00  9.55249411E+00
 -1.91049882E+01  0.00000000E+00  9.55249411E+00  9.55249411E+00 -1.91049882E+01
  0.00000000E+00  9.55249411E+00  9.55249411E+00 -1.91049882E+01  0.00000000E+00
  9.55249411E+00  9.55249411E+00 -1.91049882E+01  0.00000000E+00  9.55249411E+00
  9.55249411E+00 -1.91049882E+01  0.00000000E+00  9.55249411E+00  9.55249411E+00
 -1.91049882E+01  0.00000000E+00  9.55249411E+00  9.55249411E+00 -1.91049882E+01
  0.00000000E+00  9.55249411E+00  9.55249411E+00 -1.91049882E+01  0.00000000E+00
  9.55249411E+00  9.55249411E+00 -1.91049882E+01  0.00000000E+00  9.55249411E+00
  9.55249411E+00 -1.91049882E+01  0.00000000E+00  9.55249411E+00  9.55249411E+00
 -1.91049882E+01  0.00000000E+00  9.55249411E+00  9.55249411E+00 -1.91049882E+01
  0.00000000E+00  9.55249411E+00  9.55249411E+00 -1.91049882E+01  0.00000000E+00
  9.55249411E+00  9.55249411E+00 -1.91049882E+01  0.00000000E+00  9.55249411E+00
  9.55249411E+00 -1.91049882E+01  0.00000000E+00  9.55249411E+00  9.55249411E+00
 -1.91049882E+01  0.00000000E+00  9.55249411E+00  9.55249411E+00 -1.91049882E+01
  0.00000000E+00  9.55249411E+00  9.55249411E+00 -1.91049882E+01  0.00000000E+00
  9.55249411E+00  9.55249411E+00 -1.91049882E+01  0.00000000E+00  9.55249411E+00
  9.55249411E+00 -1.91049882E+01  0.00000000E+00  9.55249411E+00  9.55249411E+00
 -1.91049882E+01  0.00000000E+00  9.55249411E+00  9.55249411E+00 -1.91049882E+01
  0.00000000E+00  9.55249411E+00  9.55249411E+00 -1.91049882E+01  0.00000000E+00
  9.55249411E+00  9.55249411E+00 -1.91049882E+01  0.00000000E+00  9.55249411E+00
  9.55249411E+00 -1.91049882E+01  0.00000000E+00  9.55249411E+00  9.55249411E+00
 -1.91049882E+01  0.00000000E+00  9.55249411E+00  9.55249411E+00 -1.91049882E+01
  0.00000000E+00  9.55249411E+00  9.55249411E+00 -1.91049882E+01  0.00000000E+00
  9.55249411E+00  9.55249411E+00 -1.91049882E+01  0.00000000E+00  9.55249411E+00
  9.55249411E+00 -1.91049882E+01  0.00000000E+00  9.55249411E+00  9.55249411E+00
 -1.91049882E+01  0.00000000E+00  9.55249411E+00  9.55249411E+00 -1.91049882E+01
  0.00000000E+00  9.55249411E+00  9.55249411E+00 -1.91049882E+01  0.00000000E+00
  9.55249411E+00  9.55249411E+00 -1.91049882E+01  0.00000000E+00  9.55249411E+00
  9.55249411E+00 -1.91049882E+01  0.00000000E+00  9.55249411E+00  9.55249411E+00
 -1.91049882E+01  0.00000000E+00  9.55249411E+00  9.55249411E+00 -1.91049882E+01
  0.00000000E+00  9.55249411E+00  9.55249411E+00 -1.91049882E+01  0.00000000E+00
  9.55249411E+00  9.55249411E+00 -1.91049882E+01  0.00000000E+00  9.55249411E+00
  9.55249411E+00 -1.91049882E+01  0.00000000E+00  9.55249411E+00  9.55249411E+00
 -1.91049882E+01  0.00000000E+00  9.55249411E+00  9.55249411E+00 -1.91049882E+01
  0.00000000E+00  9.55249411E+00  9.55249411E+00 -1.91049882E+01  0.00000000E+00
  9.55249411E+00  9.55249411E+00 -1.91049882E+01  0.00000000E+00  9.55249411E+00
  9.55249411E+00 -1.91049882E+01  0.00000000E+00  9.55249411E+00  9.55249411E+00
 -1.91049882E+01  0.00000000E+00  9.55249411E+00  9.55249411E+00 -1.91049882E+01
  0.00000000E+00  9.55249411E+00  9.55249411E+00 -1.91049882E+01  0.00000000E+00
  9.55249411E+00  9.55249411E+00 -1.91049882E+01  0.00000000E+00  9.55249411E+00
  9.55249411E+00 -1.91049882E+01  0.00000000E+00  9.55249411E+00  9.55249411E+00
 -1.91049882E+01  0.00000000E+00  9.55249411E+00  9.55249411E+00 -1.91049882E+01
  0.00000000E+00  9.55249411E+00  9.55249411E+00 -1.91049882E+01  0.00000000E+00
  9.55249411E+00  9.55249411E+00 -1.91049882E+01  0.00000000E+00  9.55249411E+00
  9.55249411E+00 -1.91049882E+01  0.00000000E+00  9.55249411E+00  9.55249411E+00
 -1.91049882E+01  0.00000000E+00  9.55249411E+00  9.55249411E+00 -1.91049882E+01
  0.00000000E+00  9.55249411E+00  9.55249411E+00 -1.91049882E+01  0.00000000E+00
  9.55249411E+00  9.55249411E+00 -1.91049882E+01  0.00000000E+00  9.55249411E+00
  9.55249411E+00 -1.91049882E+01  0.00000000E+00  9.55249411E+00  9.55249411E+00
 -1.91049882E+01  0.00000000E+00  9.55249411E+00  9.55249411E+00 -1.91049882E+01
  0.00000000E+00  9.55249411E+00  9.55249411E+00 -1.91049882E+01  0.00000000E+00
  9.55249411E+00  9.55249411E+00 -1.91049882E+01  0.00000000E+00  9.55249411E+00
  9.55249411E+00 -1.91049882E+01  0.00000000E+00  9.55249411E+00  9.55249411E+00
 -1.91049882E+01  0.00000000E+00  9.55249411E+00  9.55249411E+00 -1.91049882E+01
  0.00000000E+00  9.55249411E+00  9.55249411E+00 -1.91049882E+01  0.00000000E+00
  9.55249411E+00  9.55249411E+00 -1.91049882E+01  0.00000000E+00  9.55249411E+00
  9.55249411E+00 -1.91049882E+01  0.00000000E+00  9.55249411E+00  9.55249411E+00
 -1.91049882E+01  0.00000000E+00  9.55249411E+00  9.55249411E+00 -1.91049882E+01
  0.00000000E+00  9.55249411E+00  9.55249411E+00 -1.91049882E+01  0.00000000E+00
  9.55249411E+00  9.55249411E+00 -1.91049882E+01  0.00000000E+00  9.55249411E+00
  9.55249411E+00 -1.91049882E+01  0.00000000E+00  9.55249411E+00  9.55249411E+00
 -1.91049882E+01  0.00000000E+00  9.55249411E+00  9.55249411E+00 -1.91049882E+01
  0.00000000E+00  9.55249411E+00  9.55249411E+00 -1.91049882E+01  0.00000000E+00
  9.55249411E+00  9.55249411E+00 -1.91049882E+01  0.00000000E+00  9.55249411E+00
  9.55249411E+00 -1.91049882E+01  0.00000000E+00  9.55249411E+00  9.55249411E+00
 -1.91049882E+01  0.00000000E+00  9.55249411E+00  9.55249411E+00 -1.91049882E+01
  0.00000000E+00  9.55249411E+00  9.55249411E+00 -1.91049882E+01  0.00000000E+00
  9.55249411E+00  9.55249411E+00 -1.91049882E+01  0.00000000E+00  9.55249411E+00
  9.55249411E+00 -1.91049882E+01  0.00000000E+00  9.55249411E+00  9.55249411E+00
 -1.91049882E+01  0.00000000E+00  9.55249411E+00  9.55249411E+00 -1.91049882E+01
  0.00000000E+00  9.55249411E+00  9.55249411E+00 -1.91049882E+01  0.00000000E+00
  9.55249411E+00  9.55249411E+00 -1.91049882E+01  0.00000000E+00  9.55249411E+00
  9.55249411E+00 -1.91049882E+01  0.00000000E+00  9.55249411E+00  9.55249411E+00
 -1.91049882E+01  0.00000000E+00  9.55249411E+00  9.55249411E+00 -1.91049882E+01
  0.00000000E+00  9.55249411E+00  9.55249411E+00 -1.91049882E+01  0.00000000E+00
  9.55249411E+00  9.55249411E+00 -1.91049882E+01  0.00000000E+00  9.55249411E+00
  9.55249411E+00 -1.91049882E+01  0.00000000E+00  9.55249411E+00  9.55249411E+00
 -1.91049882E+01  0.00000000E+00  9.55249411E+00  9.55249411E+00 -1.91049882E+01
  0.00000000E+00  9.55249411E+00  9.55249411E+00 -1.91049882E+01  0.00000000E+00
  9.55249411E+00  9.55249411E+00 -1.91049882E+01  0.00000000E+00  9.55249411E+00
  9.55249411E+00 -1.91049882E+01  0.00000000E+00  9.55249411E+00  9.55249411E+00
 -1.91049882E+01  0.00000000E+00  9.55249411E+00  9.55249411E+00 -1.91049882E+01
  0.00000000E+00  9.55249411E+00  9.55249411E+00 -1.91049882E+01  0.00000000E+00
  9.55249411E+00  9.55249411E+00 -1.91049882E+01  0.00000000E+00  9.55249411E+00
  9.55249411E+00 -1.91049882E+01  0.00000000E+00  9.55249411E+00  9.55249411E+00
 -1.91049882E+01  0.00000000E+00  9.55249411E+00  9.55249411E+00 -1.91049882E+01
  0.00000000E+00  9.55249411E+00  9.55249411E+00 -1.91049882E+01  0.00000000E+00
  9.55249411E+00  9.55249411E+00 -1.91049882E+01  0.00000000E+00  9.55249411E+00
  9.55249411E+00 -1.91049882E+01  0.00000000E+00  9.55249411E+00  9.55249411E+00
 -1.91049882E+01  0.00000000E+00  9.55249411E+00  9.55249411E+00 -1.91049882E+01
  0.00000000E+00  9.55249411E+00  9.55249411E+00 -1.91049882E+01  0.00000000E+00
  9.55249411E+00  9.55249411E+00 -1.91049882E+01  0.00000000E+00  9.55249411E+00
  9.55249411E+00 -1.91049882E+01  0.00000000E+00  9.55249411E+00  9.55249411E+00
 -1.91049882E+01  0.00000000E+00  9.55249411E+00  9.55249411E+00 -1.91049882E+01
  0.00000000E+00  9.55249411E+00  9.55249411E+00 -1.91049882E+01  0.00000000E+00
  9.55249411E+00  9.55249411E+00 -1.91049882E+01  0.00000000E+00  9.55249411E+00
  9.55249411E+00 -1.91049882E+01  0.00000000E+00  9.55249411E+00  9.55249411E+00
 -1.91049882E+01  0.00000000E+00  9.55249411E+00  9.55249411E+00 -1.91049882E+01
  0.00000000E+00  9.55249411E+00  9.55249411E+00 -1.91049882E+01  0.00000000E+00
  9.55249411E+00  9.55249411E+00 -1.91049882E+01  0.00000000E+00  9.55249411E+00
  9.55249411E+00 -1.91049882E+01  0.00000000E+00  9.55249411E+00  9.55249411E+00
 -1.91049882E+01  0.00000000E+00  9.55249411E+00  9.55249411E+00 -1.91049882E+01
  0.00000000E+00  9.55249411E+00  9.55249411E+00 -1.91049882E+01  0.00000000E+00
  9.55249411E+00  9.55249411E+00 -1.91049882E+01  0.00000000E+00  9.55249411E+00
  9.55249411E+00 -1.91049882E+01  0.00000000E+00  9.55249411E+00  9.55249411E+00
 -1.91049882E+01  0.00000000E+00  9.55249411E+00  9.55249411E+00 -1.91049882E+01
  0.00000000E+00  9.55249411E+00  9.55249411E+00 -1.91049882E+01  0.00000000E+00
  9.55249411E+00  9.55249411E+00 -1.91049882E+01  0.00000000E+00  9.55249411E+00
  9.55249411E+00 -1.91049882E+01  0.00000000E+00  9.55249411E+00  9.55249411E+00
 -1.91049882E+01  0.00000000E+00  9.55249411E+00  9.55249411E+00 -1.91049882E+01
  0.00000000E+00  9.55249411E+00  9.55249411E+00 -1.91049882E+01  0.00000000E+00
  9.55249411E+00  9.55249411E+00 -1.91049882E+01  0.00000000E+00  9.55249411E+00
  9.55249411E+00 -1.91049882E+01  0.00000000E+00  9.55249411E+00  9.55249411E+00
 -1.91049882E+01  0.00000000E+00  9.55249411E+00  9.55249411E+00 -1.91049882E+01
  0.00000000E+00  9.55249411E+00  9.55249411E+00 -1.91049882E+01  0.00000000E+00
  9.55249411E+00  9.55249411E+00 -1.91049882E+01  0.00000000E+00  9.55249411E+00
  9.55249411E+00 -1.91049882E+01  0.00000000E+00  9.55249411E+00  9.55249411E+00
 -1.91049882E+01  0.00000000E+00  9.55249411E+00  9.55249411E+00 -1.91049882E+01
  0.00000000E+00  9.55249411E+00  9.55249411E+00 -1.91049882E+01  0.00000000E+00
  9.55249411E+00  9.55249411E+00 -1.91049882E+01  0.00000000E+00  9.55249411E+00
  9.55249411E+00 -1.91049882E+01  0.00000000E+00  9.55249411E+00  9.55249411E+00
 -1.91049882E+01  0.00000000E+00  9.55249411E+00  9.55249411E+00 -1.91049882E+01
  0.00000000E+00  9.55249411E+00  9.55249411E+00 -1.91049882E+01  0.00000000E+00
  9.55249411E+00  9.55249411E+00 -1.91049882E+01  0.00000000E+00  9.55249411E+00
  9.55249411E+00 -1.91049882E+01  0.00000000E+00  9.55249411E+00  9.55249411E+00
 -1.91049882E+01  0.00000000E+00  9.55249411E+00  9.55249411E+00 -1.91049882E+01
  0.00000000E+00  9.55249411E+00  9.55249411E+00 -1.91049882E+01  0.00000000E+00
  9.55249411E+00  9.55249411E+00 -1.91049882E+01  0.00000000E+00  9.55249411E+00
  9.55249411E+00 -1.91049882E+01  0.00000000E+00  9.55249411E+00  9.55249411E+00
 -1.91049882E+01  0.00000000E+00  9.55249411E+00  9.55249411E+00 -1.91049882E+01
  0.00000000E+00  9.55249411E+00  9.55249411E+00 -1.91049882E+01  0.00000000E+00
  9.55249411E+00  9.55249411E+00 -1.91049882E+01  0.00000000E+00  9.55249411E+00
  9.55249411E+00 -1.91049882E+01  0.00000000E+00  9.55249411E+00  9.55249411E+00
 -1.91049882E+01  0.00000000E+00  9.55249411E+00  9.55249411E+00 -1.91049882E+01
  0.00000000E+00  9.55249411E+00  9.55249411E+00 -1.91049882E+01  0.00000000E+00
  9.55249411E+00  9.55249411E+00 -1.91049882E+01  0.00000000E+00  9.55249411E+00
  9.55249411E+00 -1.91049882E+01  0.00000000E+00  9.55249411E+00  9.55249411E+00
 -1.91049882E+01  0.00000000E+00  9.55249411E+00  9.55249411E+00 -1.91049882E+01
  0.00000000E+00  9.55249411E+00  9.55249411E+00 -1.91049882E+01  0.00000000E+00
  9.55249411E+00  9.55249411E+00 -1.91049882E+01  0.00000000E+00  9.55249411E+00
  9.55249411E+00 -1.91049882E+01  0.00000000E+00  9.55249411E+00  9.55249411E+00
 -1.91049882E+01  0.00000000E+00  9.55249411E+00  9.55249411E+00 -1.91049882E+01
  0.00000000E+00  9.55249411E+00  9.55249411E+00 -1.91049882E+01  0.00000000E+00
  9.55249411E+00  9.55249411E+00 -1.91049882E+01  0.00000000E+00  9.55249411E+00
  9.55249411E+00 -1.91049882E+01  0.00000000E+00  9.55249411E+00  9.55249411E+00
 -1.91049882E+01  0.00000000E+00  9.55249411E+00  9.55249411E+00 -1.91049882E+01
  0.00000000E+00  9.55249411E+00  9.55249411E+00 -1.91049882E+01  0.00000000E+00
  9.55249411E+00  9.55249411E+00 -1.91049882E+01  0.00000000E+00  9.55249411E+00
  9.55249411E+00 -1.91049882E+01  0.00000000E+00  9.55249411E+00  9.55249411E+00
 -1.91049882E+01  0.00000000E+00  9.55249411E+00  9.55249411E+00 -1.91049882E+01
  0.00000000E+00  9.55249411E+00  9.55249411E+00 -1.91049882E+01  0.00000000E+00
  9.55249411E+00  9.55249411E+00 -1.91049882E+01  0.00000000E+00  9.55249411E+00
  9.55249411E+00 -1.91049882E+01  0.00000000E+00  9.55249411E+00  9.55249411E+00
 -1.91049882E+01  0.00000000E+00  9.55249411E+00  9.55249411E+00 -1.91049882E+01
  0.00000000E+00  9.55249411E+00  9.55249411E+00 -1.91049882E+01  0.00000000E+00
  9.55249411E+00  9.55249411E+00 -1.91049882E+01  0.00000000E+00  9.55249411E+00
  9.55249411E+00 -1.91049882E+01  0.00000000E+00  9.55249411E+00  9.55249411E+00
 -1.91049882E+01  0.00000000E+00  9.55249411E+00  9.55249411E+00 -1.91049882E+01
  0.00000000E+00  9.55249411E+00  9.55249411E+00 -1.91049882E+01  0.00000000E+00
  9.55249411E+00  9.55249411E+00 -1.91049882E+01  0.00000000E+00  9.55249411E+00
  9.55249411E+00 -1.91049882E+01  0.00000000E+00  9.55249411E+00  9.55249411E+00
 -1.91049882E+01  0.00000000E+00  9.55249411E+00  9.55249411E+00 -1.91049882E+01
  0.00000000E+00  9.55249411E+00  9.55249411E+00 -1.91049882E+01  0.00000000E+00
  9.55249411E+00  9.55249411E+00 -1.91049882E+01  0.00000000E+00  9.55249411E+00
  9.55249411E+00 -1.91049882E+01  0.00000000E+00  9.55249411E+00  9.55249411E+00
 -1.91049882E+01  0.00000000E+00  9.55249411E+00  9.55249411E+00 -1.91049882E+01
  0.00000000E+00  9.55249411E+00  9.55249411E+00 -1.91049882E+01  0.00000000E+00
  9.55249411E+00  9.55249411E+00 -1.91049882E+01  0.00000000E+00  9.55249411E+00
  9.55249411E+00 -1.91049882E+01  0.00000000E+00  9.55249411E+00  9.55249411E+00
 -1.91049882E+01  0.00000000E+00  9.55249411E+00  9.55249411E+00 -1.91049882E+01
  0.00000000E+00  9.55249411E+00  9.55249411E+00 -1.91049882E+01  0.00000000E+00
  9.55249411E+00  9.55249411E+00 -1.91049882E+01  0.00000000E+00  9.55249411E+00
  9.55249411E+00 -1.91049882E+01  0.00000000E+00  9.55249411E+00  9.55249411E+00
 -1.91049882E+01  0.00000000E+00  9.55249411E+00  9.55249411E+00 -1.91049882E+01
  0.00000000E+00  9.55249411E+00  9.55249411E+00 -1.91049882E+01  0.00000000E+00
  9.55249411E+00  9.55249411E+00 -1.91049882E+01  0.00000000E+00  9.55249411E+00
  9.55249411E+00 -1.91049882E+01  0.00000000E+00  9.55249411E+00  9.55249411E+00
 -1.91049882E+01  0.00000000E+00  9.55249411E+00  9.55249411E+00 -1.91049882E+01
  0.00000000E+00  9.55249411E+00  9.55249411E+00 -1.91049882E+01  0.00000000E+00
  9.55249411E+00  9.55249411E+00 -1.91049882E+01  0.00000000E+00  9.55249411E+00
  9.55249411E+00 -1.91049882E+01  0.00000000E+00  9.55249411E+00  9.55249411E+00
 -1.91049882E+01  0.00000000E+00  9.55249411E+00  9.55249411E+00 -1.91049882E+01
  0.00000000E+00  9.55249411E+00  9.55249411E+00 -1.91049882E+01  0.00000000E+00
  9.55249411E+00  9.55249411E+00 -1.91049882E+01  0.00000000E+00  9.55249411E+00
  9.55249411E+00 -1.91049882E+01  0.00000000E+00  9.55249411E+00  9.55249411E+00
 -1.91049882E+01  0.00000000E+00  9.55249411E+00  9.55249411E+00 -1.91049882E+01
  0.00000000E+00  9.55249411E+00  9.55249411E+00 -1.91049882E+01  0.00000000E+00
  9.55249411E+00  9.55249411E+00 -1.91049882E+01  0.00000000E+00  9.55249411E+00
  9.55249411E+00 -1.91049882E+01  0.00000000E+00  9.55249411E+00  9.55249411E+00
 -1.91049882E+01  0.00000000E+00  9.55249411E+00  9.55249411E+00 -1.91049882E+01
  0.00000000E+00  9.55249411E+00  9.55249411E+00 -1.91049882E+01  0.00000000E+00
  9.55249411E+00  9.55249411E+00 -1.91049882E+01  0.00000000E+00  9.55249411E+00
  9.55249411E+00 -1.91049882E+01  0.00000000E+00  9.55249411E+00  9.55249411E+00
 -1.91049882E+01  0.00000000E+00  9.55249411E+00  9.55249411E+00 -1.91049882E+01
  0.00000000E+00  9.55249411E+00  9.55249411E+00 -1.91049882E+01  0.00000000E+00
  9.55249411E+00  9.55249411E+00 -1.91049882E+01  0.00000000E+00  9.55249411E+00
  9.55249411E+00 -1.91049882E+01  0.00000000E+00  9.55249411E+00  9.55249411E+00
 -1.91049882E+01  0.00000000E+00  9.55249411E+00  9.55249411E+00 -1.91049882E+01
  0.00000000E+00  9.55249411E+00  9.55249411E+00 -1.91049882E+01  0.00000000E+00
  9.55249411E+00  9.55249411E+00 -1.91049882E+01  0.00000000E+00  9.55249411E+00
  9.55249411E+00 -1.91049882E+01  0.00000000E+00  9.55249411E+00  9.55249411E+00
 -1.91049882E+01  0.00000000E+00  9.55249411E+00  9.55249411E+00 -1.91049882E+01
  0.00000000E+00  9.55249411E+00  9.55249411E+00 -1.91049882E+01  0.00000000E+00
  9.55249411E+00  9.55249411E+00 -1.91049882E+01  0.00000000E+00  9.55249411E+00
  9.55249411E+00 -1.91049882E+01  0.00000000E+00  9.55249411E+00  9.55249411E+00
 -1.91049882E+01  0.00000000E+00  9.55249411E+00  9.55249411E+00 -1.91049882E+01
  0.00000000E+00  9.55249411E+00  9.55249411E+00 -1.91049882E+01  0.00000000E+00
  9.55249411E+00  9.55249411E+00 -1.91049882E+01  0.00000000E+00  9.55249411E+00
  9.55249411E+00 -1.91049882E+01  0.00000000E+00  9.55249411E+00  9.55249411E+00
 -1.91049882E+01  0.00000000E+00  9.55249411E+00  9.55249411E+00 -1.91049882E+01
  0.00000000E+00  9.55249411E+00  9.55249411E+00 -1.91049882E+01  0.00000000E+00
  9.55249411E+00  9.55249411E+00 -1.91049882E+01  0.00000000E+00  9.55249411E+00
  9.55249411E+00 -1.91049882E+01  0.00000000E+00  9.55249411E+00  9.55249411E+00
 -1.91049882E+01  0.00000000E+00  9.55249411E+00  9.55249411E+00 -1.91049882E+01
  0.00000000E+00  9.55249411E+00  9.55249411E+00 -1.91049882E+01  0.00000000E+00
  9.55249411E+00  9.55249411E+00 -1.91049882E+01  0.00000000E+00  9.55249411E+00
  9.55249411E+00 -1.91049882E+01  0.00000000E+00  9.55249411E+00  9.55249411E+00
 -1.91049882E+01  0.00000000E+00  9.55249411E+00  9.55249411E+00 -1.91049882E+01
  0.00000000E+00  9.55249411E+00  9.55249411E+00 -1.91049882E+01  0.00000000E+00
  9.55249411E+00  9.55249411E+00 -1.91049882E+01  0.00000000E+00  9.55249411E+00
  9.55249411E+00 -1.91049882E+01  0.00000000E+00  9.55249411E+00  9.55249411E+00
 -1.91049882E+01  0.00000000E+00  9.55249411E+00  9.55249411E+00 -1.91049882E+01
  0.00000000E+00  9.55249411E+00  9.55249411E+00 -1.91049882E+01  0.00000000E+00
  9.55249411E+00  9.55249411E+00 -1.91049882E+01  0.00000000E+00  9.55249411E+00
  9.55249411E+00 -1.91049882E+01  0.00000000E+00  9.55249411E+00  9.55249411E+00
 -1.91049882E+01  0.00000000E+00  9.55249411E+00  9.55249411E+00 -1.91049882E+01
  0.00000000E+00  9.55249411E+00  9.55249411E+00 -1.91049882E+01  0.00000000E+00
  9.55249411E+00  9.55249411E+00 -1.91049882E+01  0.00000000E+00  9.55249411E+00
  9.55249411E+00 -1.91049882E+01  0.00000000E+00  9.55249411E+00  9.55249411E+00
 -1.91049882E+01  0.00000000E+00  9.55249411E+00  9.55249411E+00 -1.91049882E+01
  0.00000000E+00  9.55249411E+00  9.55249411E+00 -1.91049882E+01  0.00000000E+00
  9.55249411E+00  9.55249411E+00 -1.91049882E+01  0.00000000E+00  9.55249411E+00
  9.55249411E+00 -1.91049882E+01  0.00000000E+00  9.55249411E+00  9.55249411E+00
 -1.91049882E+01  0.00000000E+00  9.55249411E+00  9.55249411E+00 -1.91049882E+01
  0.00000000E+00  9.55249411E+00  9.55249411E+00 -1.91049882E+01  0.00000000E+00
  9.55249411E+00  9.55249411E+00 -1.91049882E+01  0.00000000E+00  9.55249411E+00
  9.55249411E+00 -1.91049882E+01  0.00000000E+00  9.55249411E+00  9.55249411E+00
 -1.91049882E+01  0.00000000E+00  9.55249411E+00  9.55249411E+00 -1.91049882E+01
  0.00000000E+00  9.55249411E+00  9.55249411E+00 -1.91049882E+01  0.00000000E+00
  9.55249411E+00  9.55249411E+00 -1.91049882E+01  0.00000000E+00  9.55249411E+00
  9.55249411E+00 -1.91049882E+01  0.00000000E+00  9.55249411E+00  9.55249411E+00
 -1.91049882E+01  0.00000000E+00  9.55249411E+00  9.55249411E+00 -1.91049882E+01
  0.00000000E+00  9.55249411E+00  9.55249411E+00 -1.91049882E+01  0.00000000E+00
  9.55249411E+00  9.55249411E+00 -1.91049882E+01  0.00000000E+00  9.55249411E+00
  9.55249411E+00 -1.91049882E+01  0.00000000E+00  9.55249411E+00  9.55249411E+00
 -1.91049882E+01  0.00000000E+00  9.55249411E+00  9.55249411E+00 -1.91049882E+01
  0.00000000E+00  9.55249411E+00  9.55249411E+00 -1.91049882E+01  0.00000000E+00
  9.55249411E+00  9.55249411E+00 -1.91049882E+01  0.00000000E+00  9.55249411E+00
  9.55249411E+00 -1.91049882E+01  0.00000000E+00  9.55249411E+00  9.55249411E+00
 -1.91049882E+01  0.00000000E+00  9.55249411E+00  9.55249411E+00 -1.91049882E+01
  0.00000000E+00  9.55249411E+00  9.55249411E+00 -1.91049882E+01  0.00000000E+00
  9.55249411E+00  9.55249411E+00 -1.91049882E+01  0.00000000E+00  9.55249411E+00
  9.55249411E+00 -1.91049882E+01  0.00000000E+00  9.55249411E+00  9.55249411E+00
 -1.91049882E+01  0.00000000E+00  9.55249411E+00  9.55249411E+00 -1.91049882E+01
  0.00000000E+00  9.55249411E+00  9.55249411E+00 -1.91049882E+01  0.00000000E+00
  9.55249411E+00  9.55249411E+00 -1.91049882E+01  0.00000000E+00  9.55249411E+00
  9.55249411E+00 -1.91049882E+01  0.00000000E+00  9.55249411E+00  9.55249411E+00
 -1.91049882E+01  0.00000000E+00  9.55249411E+00  9.55249411E+00 -1.91049882E+01
  0.00000000E+00  9.55249411E+00  9.55249411E+00 -1.91049882E+01  0.00000000E+00
  9.55249411E+00  9.55249411E+00 -1.91049882E+01  0.00000000E+00  9.55249411E+00
  9.55249411E+00 -1.91049882E+01  0.00000000E+00  9.55249411E+00  9.55249411E+00
 -1.91049882E+01  0.00000000E+00  9.55249411E+00  9.55249411E+00 -1.91049882E+01
  0.00000000E+00  9.55249411E+00  9.55249411E+00 -1.91049882E+01  0.00000000E+00
  9.55249411E+00  9.55249411E+00 -1.91049882E+01  0.00000000E+00  9.55249411E+00
  9.55249411E+00 -1.91049882E+01  0.00000000E+00  9.55249411E+00  9.55249411E+00
 -1.91049882E+01  0.00000000E+00  9.55249411E+00  9.55249411E+00 -1.91049882E+01
  0.00000000E+00  9.55249411E+00  9.55249411E+00 -1.91049882E+01  0.00000000E+00
  9.55249411E+00  9.55249411E+00 -1.91049882E+01  0.00000000E+00  9.55249411E+00
  9.55249411E+00 -1.91049882E+01  0.00000000E+00  9.55249411E+00  9.55249411E+00
 -1.91049882E+01  0.00000000E+00  9.55249411E+00  9.55249411E+00 -1.91049882E+01
  0.00000000E+00  9.55249411E+00  9.55249411E+00 -1.91049882E+01  0.00000000E+00
  9.55249411E+00  9.55249411E+00 -1.91049882E+01  0.00000000E+00  9.55249411E+00
  9.55249411E+00 -1.91049882E+01  0.00000000E+00  9.55249411E+00  9.55249411E+00
 -1.91049882E+01  0.00000000E+00  9.55249411E+00  9.55249411E+00 -1.91049882E+01
  0.00000000E+00  9.55249411E+00  9.55249411E+00 -1.91049882E+01  0.00000000E+00
  9.55249411E+00  9.55249411E+00 -1.91049882E+01  0.00000000E+00  9.55249411E+00
  9.55249411E+00 -1.91049882E+01  0.00000000E+00  9.55249411E+00  9.55249411E+00
 -1.91049882E+01  0.00000000E+00  9.55249411E+00  9.55249411E+00 -1.91049882E+01
  0.00000000E+00  9.55249411E+00  9.55249411E+00 -1.91049882E+01  0.00000000E+00
  9.55249411E+00  9.55249411E+00 -1.91049882E+01  0.00000000E+00  9.55249411E+00
  9.55249411E+00 -1.91049882E+01  0.00000000E+00  9.55249411E+00  9.55249411E+00
 -1.91049882E+01  0.00000000E+00  9.55249411E+00  9.55249411E+00 -1.91049882E+01
  0.00000000E+00  9.55249411E+00  9.55249411E+00 -1.91049882E+01  0.00000000E+00
  9.55249411E+00  9.55249411E+00 -1.91049882E+01  0.00000000E+00  9.55249411E+00
  9.55249411E+00 -1.91049882E+01  0.00000000E+00  9.55249411E+00  9.55249411E+00
 -1.91049882E+01  0.00000000E+00  9.55249411E+00  9.55249411E+00 -1.91049882E+01
  0.00000000E+00  9.55249411E+00  9.55249411E+00 -1.91049882E+01  0.00000000E+00
  9.55249411E+00  9.55249411E+00 -1.91049882E+01  0.00000000E+00  9.55249411E+00
  9.55249411E+00 -1.91049882E+01  0.00000000E+00  9.55249411E+00  9.55249411E+00
 -1.91049882E+01  0.00000000E+00  9.55249411E+00  9.55249411E+00 -1.91049882E+01
  0.00000000E+00  9.55249411E+00  9.55249411E+00 -1.91049882E+01  0.00000000E+00
  9.55249411E+00  9.55249411E+00 -1.91049882E+01  0.00000000E+00  9.55249411E+00
  9.55249411E+00 -1.91049882E+01  0.00000000E+00  9.55249411E+00  9.55249411E+00
 -1.91049882E+01  0.00000000E+00  9.55249411E+00  9.55249411E+00 -1.91049882E+01
  0.00000000E+00  9.55249411E+00  9.55249411E+00 -1.91049882E+01  0.00000000E+00
  9.55249411E+00  9.55249411E+00 -1.91049882E+01  0.00000000E+00  9.55249411E+00
  9.55249411E+00 -1.91049882E+01  0.00000000E+00  9.55249411E+00  9.55249411E+00
 -1.91049882E+01  0.00000000E+00  9.55249411E+00  9.55249411E+00 -1.91049882E+01
  0.00000000E+00  9.55249411E+00  9.55249411E+00 -1.91049882E+01  0.00000000E+00
  9.55249411E+00  9.55249411E+00 -1.91049882E+01  0.00000000E+00  9.55249411E+00
  9.55249411E+00 -1.91049882E+01  0.00000000E+00  9.55249411E+00  9.55249411E+00
 -1.91049882E+01  0.00000000E+00  9.55249411E+00  9.55249411E+00 -1.91049882E+01
  0.00000000E+00  9.55249411E+00  9.55249411E+00 -1.91049882E+01  0.00000000E+00
  9.55249411E+00  9.55249411E+00 -1.91049882E+01  0.00000000E+00  9.55249411E+00
  9.55249411E+00 -1.91049882E+01  0.00000000E+00  9.55249411E+00  9.55249411E+00
 -1.91049882E+01  0.00000000E+00  9.55249411E+00  9.55249411E+00 -1.91049882E+01
  0.00000000E+00  9.55249411E+00  9.55249411E+00 -1.91049882E+01  0.00000000E+00
  9.55249411E+00  9.55249411E+00 -1.91049882E+01  0.00000000E+00  9.55249411E+00
  9.55249411E+00 -1.91049882E+01  0.00000000E+00  9.55249411E+00  9.55249411E+00
 -1.91049882E+01  0.00000000E+00  9.55249411E+00  9.55249411E+00 -1.91049882E+01
  0.00000000E+00  9.55249411E+00  9.55249411E+00 -1.91049882E+01  0.00000000E+00
  9.55249411E+00  9.55249411E+00 -1.91049882E+01  0.00000000E+00  9.55249411E+00
  9.55249411E+00 -1.91049882E+01  0.00000000E+00  9.55249411E+00  9.55249411E+00
 -1.91049882E+01  0.00000000E+00  9.55249411E+00  9.55249411E+00 -1.91049882E+01
  0.00000000E+00  9.55249411E+00  9.55249411E+00 -1.91049882E+01  0.00000000E+00
  9.55249411E+00  9.55249411E+00 -1.91049882E+01  0.00000000E+00  9.55249411E+00
  9.55249411E+00 -1.91049882E+01  0.00000000E+00  9.55249411E+00  9.55249411E+00
 -1.91049882E+01  0.00000000E+00  9.55249411E+00  9.55249411E+00 -1.91049882E+01
  0.00000000E+00  9.55249411E+00  9.55249411E+00 -1.91049882E+01  0.00000000E+00
  9.55249411E+00  9.55249411E+00 -1.91049882E+01  0.00000000E+00  9.55249411E+00
  9.55249411E+00 -1.91049882E+01  0.00000000E+00  9.55249411E+00  9.55249411E+00
 -1.91049882E+01  0.00000000E+00  9.55249411E+00  9.55249411E+00 -1.91049882E+01
  0.00000000E+00  9.55249411E+00  9.55249411E+00 -1.91049882E+01  0.00000000E+00
  9.55249411E+00  9.55249411E+00 -1.91049882E+01  0.00000000E+00  9.55249411E+00
  9.55249411E+00 -1.91049882E+01  0.00000000E+00  9.55249411E+00  9.55249411E+00
 -1.91049882E+01  0.00000000E+00  9.55249411E+00  9.55249411E+00 -1.91049882E+01
  0.00000000E+00  9.55249411E+00  9.55249411E+00 -1.91049882E+01  0.00000000E+00
  9.55249411E+00  9.55249411E+00 -1.91049882E+01  0.00000000E+00  9.55249411E+00
  9.55249411E+00 -1.91049882E+01  0.00000000E+00  9.55249411E+00  9.55249411E+00
 -1.91049882E+01  0.00000000E+00  9.55249411E+00  9.55249411E+00 -1.91049882E+01
  0.00000000E+00  9.55249411E+00  9.55249411E+00 -1.91049882E+01  0.00000000E+00
  9.55249411E+00  9.55249411E+00 -1.91049882E+01  0.00000000E+00  9.55249411E+00
  9.55249411E+00 -1.91049882E+01  0.00000000E+00  9.55249411E+00  9.55249411E+00
 -1.91049882E+01  0.00000000E+00  9.55249411E+00  9.55249411E+00 -1.91049882E+01
  0.00000000E+00  9.55249411E+00  9.55249411E+00 -1.91049882E+01  0.00000000E+00
  9.55249411E+00  9.55249411E+00 -1.91049882E+01  0.00000000E+00  9.55249411E+00
  9.55249411E+00 -1.91049882E+01  0.00000000E+00  9.55249411E+00  9.55249411E+00
 -1.91049882E+01  0.00000000E+00  9.55249411E+00  9.55249411E+00 -1.91049882E+01
  0.00000000E+00  9.55249411E+00  9.55249411E+00 -1.91049882E+01  0.00000000E+00
  9.55249411E+00  9.55249411E+00 -1.91049882E+01  0.00000000E+00  9.55249411E+00
  9.55249411E+00 -1.91049882E+01  0.00000000E+00  9.55249411E+00  9.55249411E+00
 -1.91049882E+01  0.00000000E+00  9.55249411E+00  9.55249411E+00 -1.91049882E+01
  0.00000000E+00  9.55249411E+00  9.55249411E+00 -1.91049882E+01  0.00000000E+00
  9.55249411E+00  9.55249411E+00 -1.91049882E+01  0.00000000E+00  9.55249411E+00
  9.55249411E+00 -1.91049882E+01  0.00000000E+00  9.55249411E+00  9.55249411E+00
 -1.91049882E+01  0.00000000E+00  9.55249411E+00  9.55249411E+00 -1.91049882E+01
  0.00000000E+00  9.55249411E+00  9.55249411E+00 -1.91049882E+01  0.00000000E+00
  9.55249411E+00  9.55249411E+00 -1.91049882E+01  0.00000000E+00  9.55249411E+00
  9.55249411E+00 -1.91049882E+01  0.00000000E+00  9.55249411E+00  9.55249411E+00
 -1.91049882E+01  0.00000000E+00  9.55249411E+00  9.55249411E+00 -1.91049882E+01
  0.00000000E+00  9.55249411E+00  9.55249411E+00 -1.91049882E+01  0.00000000E+00
  9.55249411E+00  9.55249411E+00 -1.91049882E+01  0.00000000E+00  9.55249411E+00
  9.55249411E+00 -1.91049882E+01  0.00000000E+00  9.55249411E+00  9.55249411E+00
 -1.91049882E+01  0.00000000E+00  9.55249411E+00  9.55249411E+00 -1.91049882E+01
  0.00000000E+00  9.55249411E+00  9.55249411E+00 -1.91049882E+01  0.00000000E+00
  9.55249411E+00  9.55249411E+00 -1.91049882E+01  0.00000000E+00  9.55249411E+00
  9.55249411E+00 -1.91049882E+01  0.00000000E+00  9.55249411E+00  9.55249411E+00
 -1.91049882E+01  0.00000000E+00  9.55249411E+00  9.55249411E+00 -1.91049882E+01
  0.00000000E+00  9.55249411E+00  9.55249411E+00 -1.91049882E+01  0.00000000E+00
  9.55249411E+00  9.55249411E+00 -1.91049882E+01  0.00000000E+00  9.55249411E+00
  9.55249411E+00 -1.91049882E+01  0.00000000E+00  9.55249411E+00  9.55249411E+00
 -1.91049882E+01  0.00000000E+00  9.55249411E+00  9.55249411E+00 -1.91049882E+01
  0.00000000E+00  9.55249411E+00  9.55249411E+00 -1.91049882E+01  0.00000000E+00
  9.55249411E+00  9.55249411E+00 -1.91049882E+01  0.00000000E+00  9.55249411E+00
  9.55249411E+00 -1.91049882E+01  0.00000000E+00  9.55249411E+00  9.55249411E+00
 -1.91049882E+01  0.00000000E+00  9.55249411E+00  9.55249411E+00 -1.91049882E+01
  0.00000000E+00  9.55249411E+00  9.55249411E+00 -1.91049882E+01  0.00000000E+00
  9.55249411E+00  9.55249411E+00 -1.91049882E+01  0.00000000E+00  9.55249411E+00
  9.55249411E+00 -1.91049882E+01  0.00000000E+00  9.55249411E+00  9.55249411E+00
 -1.91049882E+01  0.00000000E+00  9.55249411E+00  9.55249411E+00 -1.91049882E+01
  0.00000000E+00  9.55249411E+00  9.55249411E+00 -1.91049882E+01  0.00000000E+00
  9.55249411E+00  9.55249411E+00 -1.91049882E+01  0.00000000E+00  9.55249411E+00
  9.55249411E+00 -1.91049882E+01  0.00000000E+00  9.55249411E+00  9.55249411E+00
 -1.91049882E+01  0.00000000E+00  9.55249411E+00  9.55249411E+00 -1.91049882E+01
  0.00000000E+00  9.55249411E+00  9.55249411E+00 -1.91049882E+01  0.00000000E+00
  9.55249411E+00  9.55249411E+00 -1.91049882E+01  0.00000000E+00  9.55249411E+00
  9.55249411E+00 -1.91049882E+01  0.00000000E+00  9.55249411E+00  9.55249411E+00
 -1.91049882E+01  0.00000000E+00  9.55249411E+00  9.55249411E+00 -1.91049882E+01
  0.00000000E+00  9.55249411E+00  9.55249411E+00 -1.91049882E+01  0.00000000E+00
  9.55249411E+00  9.55249411E+00 -1.91049882E+01  0.00000000E+00  9.55249411E+00
  9.55249411E+00 -1.91049882E+01  0.00000000E+00  9.55249411E+00  9.55249411E+00
 -1.91049882E+01  0.00000000E+00  9.55249411E+00  9.55249411E+00 -1.91049882E+01
  0.00000000E+00  9.55249411E+00  9.55249411E+00 -1.91049882E+01  0.00000000E+00
  9.55249411E+00  9.55249411E+00 -1.91049882E+01  0.00000000E+00  9.55249411E+00
  9.55249411E+00 -1.91049882E+01  0.00000000E+00  9.55249411E+00  9.55249411E+00
 -1.91049882E+01  0.00000000E+00  9.55249411E+00  9.55249411E+00 -1.91049882E+01
  0.00000000E+00  9.55249411E+00  9.55249411E+00 -1.91049882E+01  0.00000000E+00
  9.55249411E+00  9.55249411E+00 -1.91049882E+01  0.00000000E+00  9.55249411E+00
  9.55249411E+00 -1.91049882E+01  0.00000000E+00  9.55249411E+00  9.55249411E+00
 -1.91049882E+01  0.00000000E+00  9.55249411E+00  9.55249411E+00 -1.91049882E+01
  0.00000000E+00  9.55249411E+00  9.55249411E+00 -1.91049882E+01  0.00000000E+00
  9.55249411E+00  9.55249411E+00 -1.91049882E+01  0.00000000E+00  9.55249411E+00
  9.55249411E+00 -1.91049882E+01  0.00000000E+00  9.55249411E+00  9.55249411E+00
 -1.91049882E+01  0.00000000E+00  9.55249411E+00  9.55249411E+00 -1.91049882E+01
  0.00000000E+00  9.55249411E+00  9.55249411E+00 -1.91049882E+01  0.00000000E+00
  9.55249411E+00  9.55249411E+00 -1.91049882E+01  0.00000000E+00  9.55249411E+00
  9.55249411E+00 -1.91049882E+01  0.00000000E+00  9.55249411E+00  9.55249411E+00
 -1.91049882E+01  0.00000000E+00  9.55249411E+00  9.55249411E+00 -1.91049882E+01
  0.00000000E+00  9.55249411E+00  9.55249411E+00 -1.91049882E+01  0.00000000E+00
  9.55249411E+00  9.55249411E+00 -1.91049882E+01  0.00000000E+00  9.55249411E+00
  9.55249411E+00 -1.91049882E+01  0.00000000E+00  9.55249411E+00  9.55249411E+00
 -1.91049882E+01  0.00000000E+00  9.55249411E+00  9.55249411E+00 -1.91049882E+01
  0.00000000E+00  9.55249411E+00  9.55249411E+00 -1.91049882E+01  0.00000000E+00
  9.55249411E+00  9.55249411E+00 -1.91049882E+01  0.00000000E+00  9.55249411E+00
  9.55249411E+00 -1.91049882E+01  0.00000000E+00  9.55249411E+00  9.55249411E+00
 -1.91049882E+01  0.00000000E+00  9.55249411E+00  9.55249411E+00 -1.91049882E+01
  0.00000000E+00  9.55249411E+00  9.55249411E+00 -1.91049882E+01  0.00000000E+00
  9.55249411E+00  9.55249411E+00 -1.91049882E+01  0.00000000E+00  9.55249411E+00
  9.55249411E+00 -1.91049882E+01  0.00000000E+00  9.55249411E+00  9.55249411E+00
 -1.91049882E+01  0.00000000E+00  9.55249411E+00  9.55249411E+00 -1.91049882E+01
  0.00000000E+00  9.55249411E+00  9.55249411E+00 -1.91049882E+01  0.00000000E+00
  9.55249411E+00  9.55249411E+00 -1.91049882E+01  0.00000000E+00  9.55249411E+00
  9.55249411E+00 -1.91049882E+01  0.00000000E+00  9.55249411E+00  9.55249411E+00
 -1.91049882E+01  0.00000000E+00  9.55249411E+00  9.55249411E+00 -1.91049882E+01
  0.00000000E+00  9.55249411E+00  9.55249411E+00 -1.91049882E+01  0.00000000E+00
  9.55249411E+00  9.55249411E+00 -1.91049882E+01  0.00000000E+00  9.55249411E+00
  9.55249411E+00 -1.91049882E+01  0.00000000E+00  9.55249411E+00  9.55249411E+00
 -1.91049882E+01  0.00000000E+00  9.55249411E+00  9.55249411E+00 -1.91049882E+01
  0.00000000E+00  9.55249411E+00  9.55249411E+00 -1.91049882E+01  0.00000000E+00
  9.55249411E+00  9.55249411E+00 -1.91049882E+01  0.00000000E+00  9.55249411E+00
  9.55249411E+00 -1.91049882E+01  0.00000000E+00  9.55249411E+00  9.55249411E+00
 -1.91049882E+01  0.00000000E+00  9.55249411E+00  9.55249411E+00 -1.91049882E+01
  0.00000000E+00  9.55249411E+00  9.55249411E+00 -1.91049882E+01  0.00000000E+00
  9.55249411E+00  9.55249411E+00 -1.91049882E+01  0.00000000E+00  9.55249411E+00
  9.55249411E+00 -1.91049882E+01  0.00000000E+00  9.55249411E+00  9.55249411E+00
 -1.91049882E+01  0.00000000E+00  9.55249411E+00  9.55249411E+00 -1.91049882E+01
  0.00000000E+00  9.55249411E+00  9.55249411E+00 -1.91049882E+01  0.00000000E+00
  9.55249411E+00  9.55249411E+00 -1.91049882E+01  0.00000000E+00  9.55249411E+00
  9.55249411E+00 -1.91049882E+01  0.00000000E+00  9.55249411E+00  9.55249411E+00
 -1.91049882E+01  0.00000000E+00  9.55249411E+00  9.55249411E+00 -1.91049882E+01
  0.00000000E+00  9.55249411E+00  9.55249411E+00 -1.91049882E+01  0.00000000E+00
  9.55249411E+00  9.55249411E+00 -1.91049882E+01  0.00000000E+00  9.55249411E+00
  9.55249411E+00 -1.91049882E+01  0.00000000E+00  9.55249411E+00  9.55249411E+00
 -1.91049882E+01  0.00000000E+00  9.55249411E+00  9.55249411E+00 -1.91049882E+01
  0.00000000E+00  9.55249411E+00  9.55249411E+00 -1.91049882E+01  0.00000000E+00
  9.55249411E+00  9.55249411E+00 -1.91049882E+01  0.00000000E+00  9.55249411E+00
  9.55249411E+00 -1.91049882E+01  0.00000000E+00  9.55249411E+00  9.55249411E+00
 -1.91049882E+01  0.00000000E+00  9.55249411E+00  9.55249411E+00 -1.91049882E+01
  0.00000000E+00  9.55249411E+00  9.55249411E+00 -1.91049882E+01  0.00000000E+00
  9.55249411E+00  9.55249411E+00 -1.91049882E+01  0.00000000E+00  9.55249411E+00
  9.55249411E+00 -1.91049882E+01  0.00000000E+00  9.55249411E+00  9.55249411E+00
 -1.91049882E+01  0.00000000E+00  9.55249411E+00  9.55249411E+00 -1.91049882E+01
  0.00000000E+00  9.55249411E+00  9.55249411E+00 -1.91049882E+01  0.00000000E+00
  9.55249411E+00  9.55249411E+00 -1.91049882E+01  0.00000000E+00  9.55249411E+00
  9.55249411E+00 -1.91049882E+01  0.00000000E+00  9.55249411E+00  9.55249411E+00
 -1.91049882E+01  0.00000000E+00  9.55249411E+00  9.55249411E+00 -1.91049882E+01
  0.00000000E+00  9.55249411E+00  9.55249411E+00 -1.91049882E+01  0.00000000E+00
  9.55249411E+00  9.55249411E+00 -1.91049882E+01  0.00000000E+00  9.55249411E+00
  9.55249411E+00 -1.91049882E+01  0.00000000E+00  9.55249411E+00  9.55249411E+00
 -1.91049882E+01  0.00000000E+00  9.55249411E+00  9.55249411E+00 -1.91049882E+01
  0.00000000E+00  9.55249411E+00  9.55249411E+00 -1.91049882E+01  0.00000000E+00
  9.55249411E+00  9.55249411E+00 -1.91049882E+01  0.00000000E+00  9.55249411E+00
  9.55249411E+00 -1.91049882E+01  0.00000000E+00  9.55249411E+00  9.55249411E+00
 -1.91049882E+01  0.00000000E+00  9.55249411E+00  9.55249411E+00 -1.91049882E+01
  0.00000000E+00  9.55249411E+00  9.55249411E+00 -1.91049882E+01  0.00000000E+00
  9.55249411E+00  9.55249411E+00 -1.91049882E+01  0.00000000E+00  9.55249411E+00
  9.55249411E+00 -1.91049882E+01  0.00000000E+00  9.55249411E+00  9.55249411E+00
 -1.91049882E+01  0.00000000E+00  9.55249411E+00  9.55249411E+00 -1.91049882E+01
  0.00000000E+00  9.55249411E+00  9.55249411E+00 -1.91049882E+01  0.00000000E+00
  9.55249411E+00  9.55249411E+00 -1.91049882E+01  0.00000000E+00  9.55249411E+00
  9.55249411E+00 -1.91049882E+01  0.00000000E+00  9.55249411E+00  9.55249411E+00
 -1.91049882E+01  0.00000000E+00  9.55249411E+00  9.55249411E+00 -1.91049882E+01
  0.00000000E+00  9.55249411E+00  9.55249411E+00 -1.91049882E+01  0.00000000E+00
  9.55249411E+00  9.55249411E+00 -1.91049882E+01  0.00000000E+00  9.55249411E+00
  9.55249411E+00 -1.91049882E+01  0.00000000E+00  9.55249411E+00  9.55249411E+00
 -1.91049882E+01  0.00000000E+00  9.55249411E+00  9.55249411E+00 -1.91049882E+01
  0.00000000E+00  9.55249411E+00  9.55249411E+00 -1.91049882E+01  0.00000000E+00
  9.55249411E+00  9.55249411E+00 -1.91049882E+01  0.00000000E+00  9.55249411E+00
  9.55249411E+00 -1.91049882E+01  0.00000000E+00  9.55249411E+00  9.55249411E+00
 -1.91049882E+01  0.00000000E+00  9.55249411E+00  9.55249411E+00 -1.91049882E+01
  0.00000000E+00  9.55249411E+00  9.55249411E+00 -1.91049882E+01  0.00000000E+00
  9.55249411E+00  9.55249411E+00 -1.91049882E+01  0.00000000E+00  9.55249411E+00
  9.55249411E+00 -1.91049882E+01  0.00000000E+00  9.55249411E+00  9.55249411E+00
 -1.91049882E+01  0.00000000E+00  9.55249411E+00  9.55249411E+00 -1.91049882E+01
  0.00000000E+00  9.55249411E+00  9.55249411E+00 -1.91049882E+01  0.00000000E+00
  9.55249411E+00  9.55249411E+00 -1.91049882E+01  0.00000000E+00  9.55249411E+00
  9.55249411E+00 -1.91049882E+01  0.00000000E+00  9.55249411E+00  9.55249411E+00
 -1.91049882E+01  0.00000000E+00  9.55249411E+00  9.55249411E+00 -1.91049882E+01
  0.00000000E+00  9.55249411E+00  9.55249411E+00 -1.91049882E+01  0.00000000E+00
  9.55249411E+00  9.55249411E+00 -1.91049882E+01  0.00000000E+00  9.55249411E+00
  9.55249411E+00 -1.91049882E+01  0.00000000E+00  9.55249411E+00  9.55249411E+00
 -1.91049882E+01  0.00000000E+00  9.55249411E+00  9.55249411E+00 -1.91049882E+01
  0.00000000E+00  9.55249411E+00  9.55249411E+00 -1.91049882E+01  0.00000000E+00
  9.55249411E+00  9.55249411E+00 -1.91049882E+01  0.00000000E+00  9.55249411E+00
  9.55249411E+00 -1.91049882E+01  0.00000000E+00  9.55249411E+00  9.55249411E+00
 -1.91049882E+01  0.00000000E+00  9.55249411E+00  9.55249411E+00 -1.91049882E+01
  0.00000000E+00  9.55249411E+00  9.55249411E+00 -1.91049882E+01  0.00000000E+00
  9.55249411E+00  9.55249411E+00 -1.91049882E+01  0.00000000E+00  9.55249411E+00
  9.55249411E+00 -1.91049882E+01  0.00000000E+00  9.55249411E+00  9.55249411E+00
 -1.91049882E+01  0.00000000E+00  9.55249411E+00  9.55249411E+00 -1.91049882E+01
  0.00000000E+00  9.55249411E+00  9.55249411E+00 -1.91049882E+01  0.00000000E+00
  9.55249411E+00  9.55249411E+00 -1.91049882E+01  0.00000000E+00  9.55249411E+00
  9.55249411E+00 -1.91049882E+01  0.00000000E+00  9.55249411E+00  9.55249411E+00
 -1.91049882E+01  0.00000000E+00  9.55249411E+00  9.55249411E+00 -1.91049882E+01
  0.00000000E+00  9.55249411E+00  9.55249411E+00 -1.91049882E+01  0.00000000E+00
  9.55249411E+00  9.55249411E+00 -1.91049882E+01  0.00000000E+00  9.55249411E+00
  9.55249411E+00 -1.91049882E+01  0.00000000E+00  9.55249411E+00  9.55249411E+00
 -1.91049882E+01  0.00000000E+00  9.55249411E+00  9.55249411E+00 -1.91049882E+01
  0.00000000E+00  9.55249411E+00  9.55249411E+00 -1.91049882E+01  0.00000000E+00
  9.55249411E+00  9.55249411E+00 -1.91049882E+01  0.00000000E+00  9.55249411E+00
  9.55249411E+00 -1.91049882E+01  0.00000000E+00  9.55249411E+00  9.55249411E+00
 -1.91049882E+01  0.00000000E+00  9.55249411E+00  9.55249411E+00 -1.91049882E+01
  0.00000000E+00  9.55249411E+00  9.55249411E+00 -1.91049882E+01  0.00000000E+00
  9.55249411E+00  9.55249411E+00 -1.91049882E+01  0.00000000E+00  9.55249411E+00
  9.55249411E+00 -1.91049882E+01  0.00000000E+00  9.55249411E+00  9.55249411E+00
 -1.91049882E+01  0.00000000E+00  9.55249411E+00  9.55249411E+00 -1.91049882E+01
  0.00000000E+00  9.55249411E+00  9.55249411E+00 -1.91049882E+01  0.00000000E+00
  9.55249411E+00  9.55249411E+00 -1.91049882E+01  0.00000000E+00  9.55249411E+00
  9.55249411E+00 -1.91049882E+01  0.00000000E+00  9.55249411E+00  9.55249411E+00
 -1.91049882E+01  0.00000000E+00  9.55249411E+00  9.55249411E+00 -1.91049882E+01
  0.00000000E+00  9.55249411E+00  9.55249411E+00 -1.91049882E+01  0.00000000E+00
  9.55249411E+00  9.55249411E+00 -1.91049882E+01  0.00000000E+00  9.55249411E+00
  9.55249411E+00 -1.91049882E+01  0.00000000E+00  9.55249411E+00  9.55249411E+00
 -1.91049882E+01  0.00000000E+00  9.55249411E+00  9.55249411E+00 -1.91049882E+01
  0.00000000E+00  9.55249411E+00  9.55249411E+00 -1.91049882E+01  0.00000000E+00
  9.55249411E+00  9.55249411E+00 -1.91049882E+01  0.00000000E+00  9.55249411E+00
  9.55249411E+00 -1.91049882E+01  0.00000000E+00  9.55249411E+00  9.55249411E+00
 -1.91049882E+01  0.00000000E+00  9.55249411E+00  9.55249411E+00 -1.91049882E+01
  0.00000000E+00  9.55249411E+00  9.55249411E+00 -1.91049882E+01  0.00000000E+00
  9.55249411E+00  9.55249411E+00 -1.91049882E+01  0.00000000E+00  9.55249411E+00
  9.55249411E+00 -1.91049882E+01  0.00000000E+00  9.55249411E+00  9.55249411E+00
 -1.91049882E+01  0.00000000E+00  9.55249411E+00  9.55249411E+00 -1.91049882E+01
  0.00000000E+00  9.55249411E+00  9.55249411E+00 -1.91049882E+01  0.00000000E+00
  9.55249411E+00  9.55249411E+00 -1.91049882E+01  0.00000000E+00  9.55249411E+00
  9.55249411E+00 -1.91049882E+01  0.00000000E+00  9.55249411E+00  9.55249411E+00
 -1.91049882E+01  0.00000000E+00  9.55249411E+00  9.55249411E+00 -1.91049882E+01
  0.00000000E+00  9.55249411E+00  9.55249411E+00 -1.91049882E+01  0.00000000E+00
  9.55249411E+00  9.55249411E+00 -1.91049882E+01  0.00000000E+00  9.55249411E+00
  9.55249411E+00 -1.91049882E+01  0.00000000E+00  9.55249411E+00  9.55249411E+00
 -1.91049882E+01  0.00000000E+00  9.55249411E+00  9.55249411E+00 -1.91049882E+01
  0.00000000E+00  9.55249411E+00  9.55249411E+00 -1.91049882E+01  0.00000000E+00
  9.55249411E+00  9.55249411E+00 -1.91049882E+01  0.00000000E+00  9.55249411E+00
  9.55249411E+00 -1.91049882E+01  0.00000000E+00  9.55249411E+00  9.55249411E+00
 -1.91049882E+01  0.00000000E+00  9.55249411E+00  9.55249411E+00 -1.91049882E+01
  0.00000000E+00  9.55249411E+00  9.55249411E+00 -1.91049882E+01  0.00000000E+00
  9.55249411E+00  9.55249411E+00 -1.91049882E+01  0.00000000E+00  9.55249411E+00
  9.55249411E+00 -1.91049882E+01  0.00000000E+00  9.55249411E+00  9.55249411E+00
 -1.91049882E+01  0.00000000E+00  9.55249411E+00  9.55249411E+00 -1.91049882E+01
  0.00000000E+00  9.55249411E+00  9.55249411E+00 -1.91049882E+01  0.00000000E+00
  9.55249411E+00  9.55249411E+00 -1.91049882E+01  0.00000000E+00  9.55249411E+00
  9.55249411E+00 -1.91049882E+01  0.00000000E+00  9.55249411E+00  9.55249411E+00
 -1.91049882E+01  0.00000000E+00  9.55249411E+00  9.55249411E+00 -1.91049882E+01
  0.00000000E+00  9.55249411E+00  9.55249411E+00 -1.91049882E+01  0.00000000E+00
  9.55249411E+00  9.55249411E+00 -1.91049882E+01  0.00000000E+00  9.55249411E+00
  9.55249411E+00 -1.91049882E+01  0.00000000E+00  9.55249411E+00  9.55249411E+00
 -1.91049882E+01  0.00000000E+00  9.55249411E+00  9.55249411E+00 -1.91049882E+01
  0.00000000E+00  9.55249411E+00  9.55249411E+00 -1.91049882E+01  0.00000000E+00
  9.55249411E+00  9.55249411E+00 -1.91049882E+01  0.00000000E+00  9.55249411E+00
  9.55249411E+00 -1.91049882E+01  0.00000000E+00  9.55249411E+00  9.55249411E+00
 -1.91049882E+01  0.00000000E+00  9.55249411E+00  9.55249411E+00 -1.91049882E+01
  0.00000000E+00  9.55249411E+00  9.55249411E+00 -1.91049882E+01  0.00000000E+00
  9.55249411E+00  9.55249411E+00 -1.91049882E+01  0.00000000E+00  9.55249411E+00
  9.55249411E+00 -1.91049882E+01  0.00000000E+00  9.55249411E+00  9.55249411E+00
 -1.91049882E+01  0.00000000E+00  9.55249411E+00  9.55249411E+00 -1.91049882E+01
  0.00000000E+00  9.55249411E+00  9.55249411E+00 -1.91049882E+01  0.00000000E+00
  9.55249411E+00  9.55249411E+00 -1.91049882E+01  0.00000000E+00  9.55249411E+00
  9.55249411E+00 -1.91049882E+01  0.00000000E+00  9.55249411E+00  9.55249411E+00
 -1.91049882E+01  0.00000000E+00  9.55249411E+00  9.55249411E+00 -1.91049882E+01
  0.00000000E+00  9.55249411E+00  9.55249411E+00 -1.91049882E+01  0.00000000E+00
  9.55249411E+00  9.55249411E+00 -1.91049882E+01  0.00000000E+00  9.55249411E+00
  9.55249411E+00 -1.91049882E+01  0.00000000E+00  9.55249411E+00  9.55249411E+00
 -1.91049882E+01  0.00000000E+00  9.55249411E+00  9.55249411E+00 -1.91049882E+01
  0.00000000E+00  9.55249411E+00  9.55249411E+00 -1.91049882E+01  0.00000000E+00
  9.55249411E+00  9.55249411E+00 -1.91049882E+01  0.00000000E+00  9.55249411E+00
  9.55249411E+00 -1.91049882E+01  0.00000000E+00  9.55249411E+00  9.55249411E+00
 -1.91049882E+01  0.00000000E+00  9.55249411E+00  9.55249411E+00 -1.91049882E+01
  0.00000000E+00  9.55249411E+00  9.55249411E+00 -1.91049882E+01  0.00000000E+00
  9.55249411E+00  9.55249411E+00 -1.91049882E+01  0.00000000E+00  9.55249411E+00
  9.55249411E+00 -1.91049882E+01  0.00000000E+00  9.55249411E+00  9.55249411E+00
 -1.91049882E+01  0.00000000E+00  9.55249411E+00  9.55249411E+00 -1.91049882E+01
  0.00000000E+00  9.55249411E+00  9.55249411E+00 -1.91049882E+01  0.00000000E+00
  9.55249411E+00  9.55249411E+00 -1.91049882E+01  0.00000000E+00  9.55249411E+00
  9.55249411E+00 -1.91049882E+01  0.00000000E+00  9.55249411E+00  9.55249411E+00
 -1.91049882E+01  0.00000000E+00  9.55249411E+00  9.55249411E+00 -1.91049882E+01
  0.00000000E+00  9.55249411E+00  9.55249411E+00 -1.91049882E+01  0.00000000E+00
  9.55249411E+00  9.55249411E+00 -1.91049882E+01  0.00000000E+00  9.55249411E+00
  9.55249411E+00 -1.91049882E+01  0.00000000E+00  9.55249411E+00  9.55249411E+00
 -1.91049882E+01  0.00000000E+00  9.55249411E+00  9.55249411E+00 -1.91049882E+01
  0.00000000E+00  9.55249411E+00  9.55249411E+00 -1.91049882E+01  0.00000000E+00
  9.55249411E+00  9.55249411E+00 -1.91049882E+01  0.00000000E+00  9.55249411E+00
  9.55249411E+00 -1.91049882E+01  0.00000000E+00  9.55249411E+00  9.55249411E+00
 -1.91049882E+01  0.00000000E+00  9.55249411E+00  9.55249411E+00 -1.91049882E+01
  0.00000000E+00  9.55249411E+00  9.55249411E+00 -1.91049882E+01  0.00000000E+00
  9.55249411E+00  9.55249411E+00 -1.91049882E+01  0.00000000E+00  9.55249411E+00
  9.55249411E+00 -1.91049882E+01  0.00000000E+00  9.55249411E+00  9.55249411E+00
 -1.91049882E+01  0.00000000E+00  9.55249411E+00  9.55249411E+00 -1.91049882E+01
  0.00000000E+00  9.55249411E+00  9.55249411E+00 -1.91049882E+01  0.00000000E+00
  9.55249411E+00  9.55249411E+00 -1.91049882E+01  0.00000000E+00  9.55249411E+00
  9.55249411E+00 -1.91049882E+01  0.00000000E+00  9.55249411E+00  9.55249411E+00
 -1.91049882E+01  0.00000000E+00  9.55249411E+00  9.55249411E+00 -1.91049882E+01
  0.00000000E+00  9.55249411E+00  9.55249411E+00 -1.91049882E+01  0.00000000E+00
  9.55249411E+00  9.55249411E+00 -1.91049882E+01  0.00000000E+00  9.55249411E+00
  9.55249411E+00 -1.91049882E+01  0.00000000E+00  9.55249411E+00  9.55249411E+00
 -1.91049882E+01  0.00000000E+00  9.55249411E+00  9.55249411E+00 -1.91049882E+01
  0.00000000E+00  9.55249411E+00  9.55249411E+00 -1.91049882E+01  0.00000000E+00
  9.55249411E+00  9.55249411E+00 -1.91049882E+01  0.00000000E+00  9.55249411E+00
  9.55249411E+00 -1.91049882E+01  0.00000000E+00  9.55249411E+00  9.55249411E+00
 -1.91049882E+01  0.00000000E+00  9.55249411E+00  9.55249411E+00 -1.91049882E+01
  0.00000000E+00  9.55249411E+00  9.55249411E+00 -1.91049882E+01  0.00000000E+00
  9.55249411E+00  9.55249411E+00 -1.91049882E+01  0.00000000E+00  9.55249411E+00
  9.55249411E+00 -1.91049882E+01  0.00000000E+00  9.55249411E+00  9.55249411E+00
 -1.91049882E+01  0.00000000E+00  9.55249411E+00  9.55249411E+00 -1.91049882E+01
  0.00000000E+00  9.55249411E+00  9.55249411E+00 -1.91049882E+01  0.00000000E+00
  9.55249411E+00  9.55249411E+00 -1.91049882E+01  0.00000000E+00  9.55249411E+00
  9.55249411E+00 -1.91049882E+01  0.00000000E+00  9.55249411E+00  9.55249411E+00
 -1.91049882E+01  0.00000000E+00  9.55249411E+00  9.55249411E+00 -1.91049882E+01
  0.00000000E+00  9.55249411E+00  9.55249411E+00 -1.91049882E+01  0.00000000E+00
  9.55249411E+00  9.55249411E+00 -1.91049882E+01  0.00000000E+00  9.55249411E+00
  9.55249411E+00 -1.91049882E+01  0.00000000E+00  9.55249411E+00  9.55249411E+00
 -1.91049882E+01  0.00000000E+00  9.55249411E+00  9.55249411E+00 -1.91049882E+01
  0.00000000E+00  9.55249411E+00  9.55249411E+00 -1.91049882E+01  0.00000000E+00
  9.55249411E+00  9.55249411E+00 -1.91049882E+01  0.00000000E+00  9.55249411E+00
  9.55249411E+00 -1.91049882E+01  0.00000000E+00  9.55249411E+00  9.55249411E+00
 -1.91049882E+01  0.00000000E+00  9.55249411E+00  9.55249411E+00 -1.91049882E+01
  0.00000000E+00  9.55249411E+00  9.55249411E+00 -1.91049882E+01  0.00000000E+00
  9.55249411E+00  9.55249411E+00 -1.91049882E+01  0.00000000E+00  9.55249411E+00
  9.55249411E+00 -1.91049882E+01  0.00000000E+00  9.55249411E+00  9.55249411E+00
 -1.91049882E+01  0.00000000E+00  9.55249411E+00  9.55249411E+00 -1.91049882E+01
  0.00000000E+00  9.55249411E+00  9.55249411E+00 -1.91049882E+01  0.00000000E+00
  9.55249411E+00  9.55249411E+00 -1.91049882E+01  0.00000000E+00  9.55249411E+00
  9.55249411E+00 -1.91049882E+01  0.00000000E+00  9.55249411E+00  9.55249411E+00
 -1.91049882E+01  0.00000000E+00  9.55249411E+00  9.55249411E+00 -1.91049882E+01
  0.00000000E+00  9.55249411E+00  9.55249411E+00 -1.91049882E+01  0.00000000E+00
  9.55249411E+00  9.55249411E+00 -1.91049882E+01  0.00000000E+00  9.55249411E+00
  9.55249411E+00 -1.91049882E+01  0.00000000E+00  9.55249411E+00  9.55249411E+00
 -1.91049882E+01  0.00000000E+00  9.55249411E+00  9.55249411E+00 -1.91049882E+01
  0.00000000E+00  9.55249411E+00  9.55249411E+00 -1.91049882E+01  0.00000000E+00
  9.55249411E+00  9.55249411E+00 -1.91049882E+01  0.00000000E+00  9.55249411E+00
  9.55249411E+00 -1.91049882E+01  0.00000000E+00  9.55249411E+00  9.55249411E+00
 -1.91049882E+01  0.00000000E+00  9.55249411E+00  9.55249411E+00 -1.91049882E+01
  0.00000000E+00  9.55249411E+00  9.55249411E+00 -1.91049882E+01  0.00000000E+00
  9.55249411E+00  9.55249411E+00 -1.91049882E+01  0.00000000E+00  9.55249411E+00
  9.55249411E+00 -1.91049882E+01  0.00000000E+00  9.55249411E+00  9.55249411E+00
 -1.91049882E+01  0.00000000E+00  9.55249411E+00  9.55249411E+00 -1.91049882E+01
  0.00000000E+00  9.55249411E+00  9.55249411E+00 -1.91049882E+01  0.00000000E+00
  9.55249411E+00  9.55249411E+00 -1.91049882E+01  0.00000000E+00  9.55249411E+00
  9.55249411E+00 -1.91049882E+01  0.00000000E+00  9.55249411E+00  9.55249411E+00
 -1.91049882E+01  0.00000000E+00  9.55249411E+00  9.55249411E+00 -1.91049882E+01
  0.00000000E+00  9.55249411E+00  9.55249411E+00 -1.91049882E+01  0.00000000E+00
  9.55249411E+00  9.55249411E+00 -1.91049882E+01  0.00000000E+00  9.55249411E+00
  9.55249411E+00 -1.91049882E+01  0.00000000E+00  9.55249411E+00  9.55249411E+00
 -1.91049882E+01  0.00000000E+00  9.55249411E+00  9.55249411E+00 -1.91049882E+01
  0.00000000E+00  9.55249411E+00  9.55249411E+00 -1.91049882E+01  0.00000000E+00
  9.55249411E+00  9.55249411E+00 -1.91049882E+01  0.00000000E+00  9.55249411E+00
  9.55249411E+00 -1.91049882E+01  0.00000000E+00  9.55249411E+00  9.55249411E+00
 -1.91049882E+01  0.00000000E+00  9.55249411E+00  9.55249411E+00 -1.91049882E+01
  0.00000000E+00  9.55249411E+00  9.55249411E+00 -1.91049882E+01  0.00000000E+00
  9.55249411E+00  9.55249411E+00 -1.91049882E+01  0.00000000E+00  9.55249411E+00
  9.55249411E+00 -1.91049882E+01  0.00000000E+00  9.55249411E+00  9.55249411E+00
 -1.91049882E+01  0.00000000E+00  9.55249411E+00  9.55249411E+00 -1.91049882E+01
  0.00000000E+00  9.55249411E+00  9.55249411E+00 -1.91049882E+01  0.00000000E+00
  9.55249411E+00  9.55249411E+00 -1.91049882E+01  0.00000000E+00  9.55249411E+00
  9.55249411E+00 -1.91049882E+01  0.00000000E+00  9.55249411E+00  9.55249411E+00
 -1.91049882E+01  0.00000000E+00  9.55249411E+00  9.55249411E+00 -1.91049882E+01
  0.00000000E+00  9.55249411E+00  9.55249411E+00 -1.91049882E+01  0.00000000E+00
  9.55249411E+00  9.55249411E+00 -1.91049882E+01  0.00000000E+00  9.55249411E+00
  9.55249411E+00 -1.91049882E+01  0.00000000E+00  9.55249411E+00  9.55249411E+00
 -1.91049882E+01  0.00000000E+00  9.55249411E+00  9.55249411E+00 -1.91049882E+01
  0.00000000E+00  9.55249411E+00  9.55249411E+00 -1.91049882E+01  0.00000000E+00
  9.55249411E+00  9.55249411E+00 -1.91049882E+01  0.00000000E+00  9.55249411E+00
  9.55249411E+00 -1.91049882E+01  0.00000000E+00  9.55249411E+00  9.55249411E+00
 -1.91049882E+01  0.00000000E+00  9.55249411E+00  9.55249411E+00 -1.91049882E+01
  0.00000000E+00  9.55249411E+00  9.55249411E+00 -1.91049882E+01  0.00000000E+00
  9.55249411E+00  9.55249411E+00 -1.91049882E+01  0.00000000E+00  9.55249411E+00
  9.55249411E+00 -1.91049882E+01  0.00000000E+00  9.55249411E+00  9.55249411E+00
 -1.91049882E+01  0.00000000E+00  9.55249411E+00  9.55249411E+00 -1.91049882E+01
  0.00000000E+00  9.55249411E+00  9.55249411E+00 -1.91049882E+01  0.00000000E+00
  9.55249411E+00  9.55249411E+00 -1.91049882E+01  0.00000000E+00  9.55249411E+00
  9.55249411E+00 -1.91049882E+01  0.00000000E+00  9.55249411E+00  9.55249411E+00
 -1.91049882E+01  0.00000000E+00  9.55249411E+00  9.55249411E+00 -1.91049882E+01
  0.00000000E+00  9.55249411E+00  9.55249411E+00 -1.91049882E+01  0.00000000E+00
  9.55249411E+00  9.55249411E+00 -1.91049882E+01  0.00000000E+00  9.55249411E+00
  9.55249411E+00 -1.91049882E+01  0.00000000E+00  9.55249411E+00  9.55249411E+00
 -1.91049882E+01  0.00000000E+00  9.55249411E+00  9.55249411E+00 -1.91049882E+01
  0.00000000E+00  9.55249411E+00  9.55249411E+00 -1.91049882E+01  0.00000000E+00
  9.55249411E+00  9.55249411E+00 -1.91049882E+01  0.00000000E+00  9.55249411E+00
  9.55249411E+00 -1.91049882E+01  0.00000000E+00  9.55249411E+00  9.55249411E+00
 -1.91049882E+01  0.00000000E+00  9.55249411E+00  9.55249411E+00 -1.91049882E+01
  0.00000000E+00  9.55249411E+00  9.55249411E+00 -1.91049882E+01  0.00000000E+00
  9.55249411E+00  9.55249411E+00 -1.91049882E+01  0.00000000E+00  9.55249411E+00
  9.55249411E+00 -1.91049882E+01  0.00000000E+00  9.55249411E+00  9.55249411E+00
 -1.91049882E+01  0.00000000E+00  9.55249411E+00  9.55249411E+00 -1.91049882E+01
  0.00000000E+00  9.55249411E+00  9.55249411E+00 -1.91049882E+01  0.00000000E+00
  9.55249411E+00  9.55249411E+00 -1.91049882E+01  0.00000000E+00  9.55249411E+00
  9.55249411E+00 -1.91049882E+01  0.00000000E+00  9.55249411E+00  9.55249411E+00
 -1.91049882E+01  0.00000000E+00  9.55249411E+00  9.55249411E+00 -1.91049882E+01
  0.00000000E+00  9.55249411E+00  9.55249411E+00 -1.91049882E+01  0.00000000E+00
  9.55249411E+00  9.55249411E+00 -1.91049882E+01  0.00000000E+00  9.55249411E+00
  9.55249411E+00 -1.91049882E+01  0.00000000E+00  9.55249411E+00  9.55249411E+00
 -1.91049882E+01  0.00000000E+00  9.55249411E+00  9.55249411E+00 -1.91049882E+01
  0.00000000E+00  9.55249411E+00  9.55249411E+00 -1.91049882E+01  0.00000000E+00
  9.55249411E+00  9.55249411E+00 -1.91049882E+01  0.00000000E+00  9.55249411E+00
  9.55249411E+00 -1.91049882E+01  0.00000000E+00  9.55249411E+00  9.55249411E+00
 -1.91049882E+01  0.00000000E+00  9.55249411E+00  9.55249411E+00 -1.91049882E+01
  0.00000000E+00  9.55249411E+00  9.55249411E+00 -1.91049882E+01  0.00000000E+00
  9.55249411E+00  9.55249411E+00 -1.91049882E+01  0.00000000E+00  9.55249411E+00
  9.55249411E+00 -1.91049882E+01  0.00000000E+00  9.55249411E+00  9.55249411E+00
 -1.91049882E+01  0.00000000E+00  9.55249411E+00  9.55249411E+00 -1.91049882E+01
  0.00000000E+00  9.55249411E+00  9.55249411E+00 -1.91049882E+01  0.00000000E+00
  9.55249411E+00  9.55249411E+00 -1.91049882E+01  0.00000000E+00  9.55249411E+00
  9.55249411E+00 -1.91049882E+01  0.00000000E+00  9.55249411E+00  9.55249411E+00
 -1.91049882E+01  0.00000000E+00  9.55249411E+00  9.55249411E+00 -1.91049882E+01
  0.00000000E+00  9.55249411E+00  9.55249411E+00 -1.91049882E+01  0.00000000E+00
  9.55249411E+00  9.55249411E+00 -1.91049882E+01  0.00000000E+00  9.55249411E+00
  9.55249411E+00 -1.91049882E+01  0.00000000E+00  9.55249411E+00  9.55249411E+00
 -1.91049882E+01  0.00000000E+00  9.55249411E+00  9.55249411E+00 -1.91049882E+01
  0.00000000E+00  9.55249411E+00  9.55249411E+00 -1.91049882E+01  0.00000000E+00
  9.55249411E+00  9.55249411E+00 -1.91049882E+01  0.00000000E+00  9.55249411E+00
  9.55249411E+00 -1.91049882E+01  0.00000000E+00  9.55249411E+00  9.55249411E+00
 -1.91049882E+01  0.00000000E+00  9.55249411E+00  9.55249411E+00 -1.91049882E+01
  0.00000000E+00  9.55249411E+00  9.55249411E+00 -1.91049882E+01  0.00000000E+00
  9.55249411E+00  9.55249411E+00 -1.91049882E+01  0.00000000E+00  9.55249411E+00
  9.55249411E+00 -1.91049882E+01  0.00000000E+00  9.55249411E+00  9.55249411E+00
 -1.91049882E+01  0.00000000E+00  9.55249411E+00  9.55249411E+00 -1.91049882E+01
  0.00000000E+00  9.55249411E+00  9.55249411E+00 -1.91049882E+01  0.00000000E+00
  9.55249411E+00  9.55249411E+00 -1.91049882E+01  0.00000000E+00  9.55249411E+00
  9.55249411E+00 -1.91049882E+01  0.00000000E+00  9.55249411E+00  9.55249411E+00
 -1.91049882E+01  0.00000000E+00  9.55249411E+00  9.55249411E+00 -1.91049882E+01
  0.00000000E+00  9.55249411E+00  9.55249411E+00 -1.91049882E+01  0.00000000E+00
  9.55249411E+00  9.55249411E+00 -1.91049882E+01  0.00000000E+00  9.55249411E+00
  9.55249411E+00 -1.91049882E+01  0.00000000E+00  9.55249411E+00  9.55249411E+00
 -1.91049882E+01  0.00000000E+00  9.55249411E+00  9.55249411E+00 -1.91049882E+01
  0.00000000E+00  9.55249411E+00  9.55249411E+00 -1.91049882E+01  0.00000000E+00
  9.55249411E+00  9.55249411E+00 -1.91049882E+01  0.00000000E+00  9.55249411E+00
  9.55249411E+00 -1.91049882E+01  0.00000000E+00  9.55249411E+00  9.55249411E+00
 -1.91049882E+01  0.00000000E+00  9.55249411E+00  9.55249411E+00 -1.91049882E+01
  0.00000000E+00  9.55249411E+00  9.55249411E+00 -1.91049882E+01  0.00000000E+00
  9.55249411E+00  9.55249411E+00 -1.91049882E+01  0.00000000E+00  9.55249411E+00
  9.55249411E+00 -1.91049882E+01  0.00000000E+00  9.55249411E+00  9.55249411E+00
 -1.91049882E+01  0.00000000E+00  9.55249411E+00  9.55249411E+00 -1.91049882E+01
  0.00000000E+00  9.55249411E+00  9.55249411E+00 -1.91049882E+01  0.00000000E+00
  9.55249411E+00  9.55249411E+00 -1.91049882E+01  0.00000000E+00  9.55249411E+00
  9.55249411E+00 -1.91049882E+01  0.00000000E+00  9.55249411E+00  9.55249411E+00
 -1.91049882E+01  0.00000000E+00  9.55249411E+00  9.55249411E+00 -1.91049882E+01
  0.00000000E+00  9.55249411E+00  9.55249411E+00 -1.91049882E+01  0.00000000E+00
  9.55249411E+00  9.55249411E+00 -1.91049882E+01  0.00000000E+00  9.55249411E+00
  9.55249411E+00 -1.91049882E+01  0.00000000E+00  9.55249411E+00  9.55249411E+00
 -1.91049882E+01  0.00000000E+00  9.55249411E+00  9.55249411E+00 -1.91049882E+01
  0.00000000E+00  9.55249411E+00  9.55249411E+00 -1.91049882E+01  0.00000000E+00
  9.55249411E+00  9.55249411E+00 -1.91049882E+01  0.00000000E+00  9.55249411E+00
  9.55249411E+00 -1.91049882E+01  0.00000000E+00  9.55249411E+00  9.55249411E+00
 -1.91049882E+01  0.00000000E+00  9.55249411E+00  9.55249411E+00 -1.91049882E+01
  0.00000000E+00  9.55249411E+00  9.55249411E+00 -1.91049882E+01  0.00000000E+00
  9.55249411E+00  9.55249411E+00 -1.91049882E+01  0.00000000E+00  9.55249411E+00
  9.55249411E+00 -1.91049882E+01  0.00000000E+00  9.55249411E+00  9.55249411E+00
 -1.91049882E+01  0.00000000E+00  9.55249411E+00  9.55249411E+00 -1.91049882E+01
  0.00000000E+00  9.55249411E+00  9.55249411E+00 -1.91049882E+01  0.00000000E+00
  9.55249411E+00  9.55249411E+00 -1.91049882E+01  0.00000000E+00  9.55249411E+00
  9.55249411E+00 -1.91049882E+01  0.00000000E+00  9.55249411E+00  9.55249411E+00
 -1.91049882E+01  0.00000000E+00  9.55249411E+00  9.55249411E+00 -1.91049882E+01
  0.00000000E+00  9.55249411E+00  9.55249411E+00 -1.91049882E+01  0.00000000E+00
  9.55249411E+00  9.55249411E+00 -1.91049882E+01  0.00000000E+00  9.55249411E+00
  9.55249411E+00 -1.91049882E+01  0.00000000E+00  9.55249411E+00  9.55249411E+00
 -1.91049882E+01  0.00000000E+00  9.55249411E+00  9.55249411E+00 -1.91049882E+01
  0.00000000E+00  9.55249411E+00  9.55249411E+00 -1.91049882E+01  0.00000000E+00
  9.55249411E+00  9.55249411E+00 -1.91049882E+01  0.00000000E+00  9.55249411E+00
  9.55249411E+00 -1.91049882E+01  0.00000000E+00  9.55249411E+00  9.55249411E+00
 -1.91049882E+01  0.00000000E+00  9.55249411E+00  9.55249411E+00 -1.91049882E+01
  0.00000000E+00  9.55249411E+00  9.55249411E+00 -1.91049882E+01  0.00000000E+00
  9.55249411E+00  9.55249411E+00 -1.91049882E+01  0.00000000E+00  9.55249411E+00
  9.55249411E+00 -1.91049882E+01  0.00000000E+00  9.55249411E+00  9.55249411E+00
 -1.91049882E+01  0.00000000E+00  9.55249411E+00  9.55249411E+00 -1.91049882E+01
  0.00000000E+00  9.55249411E+00  9.55249411E+00 -1.91049882E+01  0.00000000E+00
  9.55249411E+00  9.55249411E+00 -1.91049882E+01  0.00000000E+00  9.55249411E+00
  9.55249411E+00 -1.91049882E+01  0.00000000E+00  9.55249411E+00  9.55249411E+00
 -1.91049882E+01  0.00000000E+00  9.55249411E+00  9.55249411E+00 -1.91049882E+01
  0.00000000E+00  9.55249411E+00  9.55249411E+00 -1.91049882E+01  0.00000000E+00
  9.55249411E+00  9.55249411E+00 -1.91049882E+01  0.00000000E+00  9.55249411E+00
  9.55249411E+00 -1.91049882E+01  0.00000000E+00  9.55249411E+00  9.55249411E+00
 -1.91049882E+01  0.00000000E+00  9.55249411E+00  9.55249411E+00 -1.91049882E+01
  0.00000000E+00  9.55249411E+00  9.55249411E+00 -1.91049882E+01  0.00000000E+00
  9.55249411E+00  9.55249411E+00 -1.91049882E+01  0.00000000E+00  9.55249411E+00
  9.55249411E+00 -1.91049882E+01  0.00000000E+00  9.55249411E+00  9.55249411E+00
 -1.91049882E+01  0.00000000E+00  9.55249411E+00  9.55249411E+00 -1.91049882E+01
  0.00000000E+00  9.55249411E+00  9.55249411E+00 -1.91049882E+01  0.00000000E+00
  9.55249411E+00  9.55249411E+00 -1.91049882E+01  0.00000000E+00  9.55249411E+00
  9.55249411E+00 -1.91049882E+01  0.00000000E+00  9.55249411E+00  9.55249411E+00
 -1.91049882E+01  0.00000000E+00  9.55249411E+00  9.55249411E+00 -1.91049882E+01
  0.00000000E+00  9.55249411E+00  9.55249411E+00 -1.91049882E+01  0.00000000E+00
  9.55249411E+00  9.55249411E+00 -1.91049882E+01  0.00000000E+00  9.55249411E+00
  9.55249411E+00 -1.91049882E+01  0.00000000E+00  9.55249411E+00  9.55249411E+00
 -1.91049882E+01  0.00000000E+00  9.55249411E+00  9.55249411E+00 -1.91049882E+01
  0.00000000E+00  9.55249411E+00  9.55249411E+00 -1.91049882E+01  0.00000000E+00
  9.55249411E+00  9.55249411E+00 -1.91049882E+01  0.00000000E+00  9.55249411E+00
  9.55249411E+00 -1.91049882E+01  0.00000000E+00  9.55249411E+00  9.55249411E+00
 -1.91049882E+01  0.00000000E+00  9.55249411E+00  9.55249411E+00 -1.91049882E+01
  0.00000000E+00  9.55249411E+00  9.55249411E+00 -1.91049882E+01  0.00000000E+00
  9.55249411E+00  9.55249411E+00 -1.91049882E+01  0.00000000E+00  9.55249411E+00
  9.55249411E+00 -1.91049882E+01  0.00000000E+00  9.55249411E+00  9.55249411E+00
 -1.91049882E+01  0.00000000E+00  9.55249411E+00  9.55249411E+00 -1.91049882E+01
  0.00000000E+00  9.55249411E+00  9.55249411E+00 -1.91049882E+01  0.00000000E+00
  9.55249411E+00  9.55249411E+00 -1.91049882E+01  0.00000000E+00  9.55249411E+00
  9.55249411E+00 -1.91049882E+01  0.00000000E+00  9.55249411E+00  9.55249411E+00
 -1.91049882E+01  0.00000000E+00  9.55249411E+00  9.55249411E+00 -1.91049882E+01
  0.00000000E+00  9.55249411E+00  9.55249411E+00 -1.91049882E+01  0.00000000E+00
  9.55249411E+00  9.55249411E+00 -1.91049882E+01  0.00000000E+00  9.55249411E+00
  9.55249411E+00 -1.91049882E+01  0.00000000E+00  9.55249411E+00  9.55249411E+00
 -1.91049882E+01  0.00000000E+00  9.55249411E+00  9.55249411E+00 -1.91049882E+01
  0.00000000E+00  9.55249411E+00  9.55249411E+00 -1.91049882E+01  0.00000000E+00
  9.55249411E+00  9.55249411E+00 -1.91049882E+01  0.00000000E+00  9.55249411E+00
  9.55249411E+00 -1.91049882E+01  0.00000000E+00  9.55249411E+00  9.55249411E+00
 -1.91049882E+01  0.00000000E+00  9.55249411E+00  9.55249411E+00 -1.91049882E+01
  0.00000000E+00  9.55249411E+00  9.55249411E+00 -1.91049882E+01  0.00000000E+00
  9.55249411E+00  9.55249411E+00 -1.91049882E+01  0.00000000E+00  9.55249411E+00
  9.55249411E+00 -1.91049882E+01  0.00000000E+00  9.55249411E+00  9.55249411E+00
 -1.91049882E+01  0.00000000E+00  9.55249411E+00  9.55249411E+00 -1.91049882E+01
  0.00000000E+00  9.55249411E+00  9.55249411E+00 -1.91049882E+01  0.00000000E+00
  9.55249411E+00  9.55249411E+00 -1.91049882E+01  0.00000000E+00  9.55249411E+00
  9.55249411E+00 -1.91049882E+01  0.00000000E+00  9.55249411E+00  9.55249411E+00
 -1.91049882E+01  0.00000000E+00  9.55249411E+00  9.55249411E+00 -1.91049882E+01
  0.00000000E+00  9.55249411E+00  9.55249411E+00 -1.91049882E+01  0.00000000E+00
  9.55249411E+00  9.55249411E+00 -1.91049882E+01  0.00000000E+00  9.55249411E+00
  9.55249411E+00 -1.91049882E+01  0.00000000E+00  9.55249411E+00  9.55249411E+00
 -1.91049882E+01  0.00000000E+00  9.55249411E+00  9.55249411E+00 -1.91049882E+01
  0.00000000E+00  9.55249411E+00  9.55249411E+00 -1.91049882E+01  0.00000000E+00
  9.55249411E+00  9.55249411E+00 -1.91049882E+01  0.00000000E+00  9.55249411E+00
  9.55249411E+00 -1.91049882E+01  0.00000000E+00  9.55249411E+00  9.55249411E+00
 -1.91049882E+01  0.00000000E+00  9.55249411E+00  9.55249411E+00 -1.91049882E+01
  0.00000000E+00  9.55249411E+00  9.55249411E+00 -1.91049882E+01  0.00000000E+00
  9.55249411E+00  9.55249411E+00 -1.91049882E+01  0.00000000E+00  9.55249411E+00
  9.55249411E+00 -1.91049882E+01  0.00000000E+00  9.55249411E+00  9.55249411E+00
 -1.91049882E+01  0.00000000E+00  9.55249411E+00  9.55249411E+00 -1.91049882E+01
  0.00000000E+00  9.55249411E+00  9.55249411E+00 -1.91049882E+01  0.00000000E+00
  9.55249411E+00  9.55249411E+00 -1.91049882E+01  0.00000000E+00  9.55249411E+00
  9.55249411E+00 -1.91049882E+01  0.00000000E+00  9.55249411E+00  9.55249411E+00
 -1.91049882E+01  0.00000000E+00  9.55249411E+00  9.55249411E+00 -1.91049882E+01
  0.00000000E+00  9.55249411E+00  9.55249411E+00 -1.91049882E+01  0.00000000E+00
  9.55249411E+00  9.55249411E+00 -1.91049882E+01  0.00000000E+00  9.55249411E+00
  9.55249411E+00 -1.91049882E+01  0.00000000E+00  9.55249411E+00  9.55249411E+00
 -1.91049882E+01  0.00000000E+00  9.55249411E+00  9.55249411E+00 -1.91049882E+01
  0.00000000E+00  9.55249411E+00  9.55249411E+00 -1.91049882E+01  0.00000000E+00
  9.55249411E+00  9.55249411E+00 -1.91049882E+01  0.00000000E+00  9.55249411E+00
  9.55249411E+00 -1.91049882E+01  0.00000000E+00  9.55249411E+00  9.55249411E+00
 -1.91049882E+01  0.00000000E+00  9.55249411E+00  9.55249411E+00 -1.91049882E+01
  0.00000000E+00  9.55249411E+00  9.55249411E+00 -1.91049882E+01  0.00000000E+00
  9.55249411E+00  9.55249411E+00 -1.91049882E+01  0.00000000E+00  9.55249411E+00
  9.55249411E+00 -1.91049882E+01  0.00000000E+00  9.55249411E+00  9.55249411E+00
 -1.91049882E+01  0.00000000E+00  9.55249411E+00  9.55249411E+00 -1.91049882E+01
  0.00000000E+00  9.55249411E+00  9.55249411E+00 -1.91049882E+01  0.00000000E+00
  9.55249411E+00  9.55249411E+00 -1.91049882E+01  0.00000000E+00  9.55249411E+00
  9.55249411E+00 -1.91049882E+01  0.00000000E+00  9.55249411E+00  9.55249411E+00
 -1.91049882E+01  0.00000000E+00  9.55249411E+00  9.55249411E+00 -1.91049882E+01
  0.00000000E+00  9.55249411E+00  9.55249411E+00 -1.91049882E+01  0.00000000E+00
  9.55249411E+00  9.55249411E+00 -1.91049882E+01  0.00000000E+00  9.55249411E+00
  9.55249411E+00 -1.91049882E+01  0.00000000E+00  9.55249411E+00  9.55249411E+00
 -1.91049882E+01  0.00000000E+00  9.55249411E+00  9.55249411E+00 -1.91049882E+01
  0.00000000E+00  9.55249411E+00  9.55249411E+00 -1.91049882E+01  0.00000000E+00
  9.55249411E+00  9.55249411E+00 -1.91049882E+01  0.00000000E+00  9.55249411E+00
  9.55249411E+00 -1.91049882E+01  0.00000000E+00  9.55249411E+00  9.55249411E+00
 -1.91049882E+01  0.00000000E+00  9.55249411E+00  9.55249411E+00 -1.91049882E+01
  0.00000000E+00  9.55249411E+00  9.55249411E+00 -1.91049882E+01  0.00000000E+00
  9.55249411E+00  9.55249411E+00 -1.91049882E+01  0.00000000E+00  9.55249411E+00
  9.55249411E+00 -1.91049882E+01  0.00000000E+00  9.55249411E+00  9.55249411E+00
 -1.91049882E+01  0.00000000E+00  9.55249411E+00  9.55249411E+00 -1.91049882E+01
  0.00000000E+00  9.55249411E+00  9.55249411E+00 -1.91049882E+01  0.00000000E+00
  9.55249411E+00  9.55249411E+00 -1.91049882E+01  0.00000000E+00  9.55249411E+00
  9.55249411E+00 -1.91049882E+01  0.00000000E+00  9.55249411E+00  9.55249411E+00
 -1.91049882E+01  0.00000000E+00  9.55249411E+00  9.55249411E+00 -1.91049882E+01
  0.00000000E+00  9.55249411E+00  9.55249411E+00 -1.91049882E+01  0.00000000E+00
  9.55249411E+00  9.55249411E+00 -1.91049882E+01  0.00000000E+00  9.55249411E+00
  9.55249411E+00 -1.91049882E+01  0.00000000E+00  9.55249411E+00  9.55249411E+00
 -1.91049882E+01  0.00000000E+00  9.55249411E+00  9.55249411E+00 -1.91049882E+01
  0.00000000E+00  9.55249411E+00  9.55249411E+00 -1.91049882E+01  0.00000000E+00
  9.55249411E+00  9.55249411E+00 -1.91049882E+01  0.00000000E+00  9.55249411E+00
  9.55249411E+00 -1.91049882E+01  0.00000000E+00  9.55249411E+00  9.55249411E+00
 -1.91049882E+01  0.00000000E+00  9.55249411E+00  9.55249411E+00 -1.91049882E+01
  0.00000000E+00  9.55249411E+00  9.55249411E+00 -1.91049882E+01  0.00000000E+00
  9.55249411E+00  9.55249411E+00 -1.91049882E+01  0.00000000E+00  9.55249411E+00
  9.55249411E+00 -1.91049882E+01  0.00000000E+00  9.55249411E+00  9.55249411E+00
 -1.91049882E+01  0.00000000E+00  9.55249411E+00  9.55249411E+00 -1.91049882E+01
  0.00000000E+00  9.55249411E+00  9.55249411E+00 -1.91049882E+01  0.00000000E+00
  9.55249411E+00  9.55249411E+00 -1.91049882E+01  0.00000000E+00  9.55249411E+00
  9.55249411E+00 -1.91049882E+01  0.00000000E+00  9.55249411E+00  9.55249411E+00
 -1.91049882E+01  0.00000000E+00  9.55249411E+00  9.55249411E+00 -1.91049882E+01
  0.00000000E+00  9.55249411E+00  9.55249411E+00 -1.91049882E+01  0.00000000E+00
  9.55249411E+00  9.55249411E+00 -1.91049882E+01  0.00000000E+00  9.55249411E+00
  9.55249411E+00 -1.91049882E+01  0.00000000E+00  9.55249411E+00  9.55249411E+00
 -1.91049882E+01  0.00000000E+00  9.55249411E+00  9.55249411E+00 -1.91049882E+01
  0.00000000E+00  9.55249411E+00  9.55249411E+00 -1.91049882E+01  0.00000000E+00
  9.55249411E+00  9.55249411E+00 -1.91049882E+01  0.00000000E+00  9.55249411E+00
  9.55249411E+00 -1.91049882E+01  0.00000000E+00  9.55249411E+00  9.55249411E+00
 -1.91049882E+01  0.00000000E+00  9.55249411E+00  9.55249411E+00 -1.91049882E+01
  0.00000000E+00  9.55249411E+00  9.55249411E+00 -1.91049882E+01  0.00000000E+00
  9.55249411E+00  9.55249411E+00 -1.91049882E+01  0.00000000E+00  9.55249411E+00
  9.55249411E+00 -1.91049882E+01  0.00000000E+00  9.55249411E+00  9.55249411E+00
 -1.91049882E+01  0.00000000E+00  9.55249411E+00  9.55249411E+00 -1.91049882E+01
  0.00000000E+00  9.55249411E+00  9.55249411E+00 -1.91049882E+01  0.00000000E+00
  9.55249411E+00  9.55249411E+00 -1.91049882E+01  0.00000000E+00  9.55249411E+00
  9.55249411E+00 -1.91049882E+01  0.00000000E+00  9.55249411E+00  9.55249411E+00
 -1.91049882E+01  0.00000000E+00  9.55249411E+00  9.55249411E+00 -1.91049882E+01
  0.00000000E+00  9.55249411E+00  9.55249411E+00 -1.91049882E+01  0.00000000E+00
  9.55249411E+00  9.55249411E+00 -1.91049882E+01  0.00000000E+00  9.55249411E+00
  9.55249411E+00 -1.91049882E+01  0.00000000E+00  9.55249411E+00  9.55249411E+00
 -1.91049882E+01  0.00000000E+00  9.55249411E+00  9.55249411E+00 -1.91049882E+01
  0.00000000E+00  9.55249411E+00  9.55249411E+00 -1.91049882E+01  0.00000000E+00
  9.55249411E+00  9.55249411E+00 -1.91049882E+01  0.00000000E+00  9.55249411E+00
  9.55249411E+00 -1.91049882E+01  0.00000000E+00  9.55249411E+00  9.55249411E+00
 -1.91049882E+01  0.00000000E+00  9.55249411E+00  9.55249411E+00 -1.91049882E+01
  0.00000000E+00  9.55249411E+00  9.55249411E+00 -1.91049882E+01  0.00000000E+00
  9.55249411E+00  9.55249411E+00 -1.91049882E+01  0.00000000E+00  9.55249411E+00
  9.55249411E+00 -1.91049882E+01  0.00000000E+00  9.55249411E+00  9.55249411E+00
 -1.91049882E+01  0.00000000E+00  9.55249411E+00  9.55249411E+00 -1.91049882E+01
  0.00000000E+00  9.55249411E+00  9.55249411E+00 -1.91049882E+01  0.00000000E+00
  9.55249411E+00  9.55249411E+00 -1.91049882E+01  0.00000000E+00  9.55249411E+00
  9.55249411E+00 -1.91049882E+01  0.00000000E+00  9.55249411E+00  9.55249411E+00
 -1.91049882E+01  0.00000000E+00  9.55249411E+00  9.55249411E+00 -1.91049882E+01
  0.00000000E+00  9.55249411E+00  9.55249411E+00 -1.91049882E+01  0.00000000E+00
  9.55249411E+00  9.55249411E+00 -1.91049882E+01  0.00000000E+00  9.55249411E+00
  9.55249411E+00 -1.91049882E+01  0.00000000E+00  9.55249411E+00  9.55249411E+00
 -1.91049882E+01  0.00000000E+00  9.55249411E+00  9.55249411E+00 -1.91049882E+01
  0.00000000E+00  9.55249411E+00  9.55249411E+00 -1.91049882E+01  0.00000000E+00
  9.55249411E+00  9.55249411E+00 -1.91049882E+01  0.00000000E+00  9.55249411E+00
  9.55249411E+00 -1.91049882E+01  0.00000000E+00  9.55249411E+00  9.55249411E+00
 -1.91049882E+01  0.00000000E+00  9.55249411E+00  9.55249411E+00 -1.91049882E+01
  0.00000000E+00  9.55249411E+00  9.55249411E+00 -1.91049882E+01  0.00000000E+00
  9.55249411E+00  9.55249411E+00 -1.91049882E+01  0.00000000E+00  9.55249411E+00
  9.55249411E+00 -1.91049882E+01  0.00000000E+00  9.55249411E+00  9.55249411E+00
 -1.91049882E+01  0.00000000E+00  9.55249411E+00  9.55249411E+00 -1.91049882E+01
  0.00000000E+00  9.55249411E+00  9.55249411E+00 -1.91049882E+01  0.00000000E+00
  9.55249411E+00  9.55249411E+00 -1.91049882E+01  0.00000000E+00  9.55249411E+00
  9.55249411E+00 -1.91049882E+01  0.00000000E+00  9.55249411E+00  9.55249411E+00
 -1.91049882E+01  0.00000000E+00  9.55249411E+00  9.55249411E+00 -1.91049882E+01
  0.00000000E+00  9.55249411E+00  9.55249411E+00 -1.91049882E+01  0.00000000E+00
  9.55249411E+00  9.55249411E+00 -1.91049882E+01  0.00000000E+00  9.55249411E+00
  9.55249411E+00 -1.91049882E+01  0.00000000E+00  9.55249411E+00  9.55249411E+00
 -1.91049882E+01  0.00000000E+00  9.55249411E+00  9.55249411E+00 -1.91049882E+01
  0.00000000E+00  9.55249411E+00  9.55249411E+00 -1.91049882E+01  0.00000000E+00
  9.55249411E+00  9.55249411E+00 -1.91049882E+01  0.00000000E+00  9.55249411E+00
  9.55249411E+00 -1.91049882E+01  0.00000000E+00  9.55249411E+00  9.55249411E+00
 -1.91049882E+01  0.00000000E+00  9.55249411E+00  9.55249411E+00 -1.91049882E+01
  0.00000000E+00  9.55249411E+00  9.55249411E+00 -1.91049882E+01  0.00000000E+00
  9.55249411E+00  9.55249411E+00 -1.91049882E+01  0.00000000E+00  9.55249411E+00
  9.55249411E+00 -1.91049882E+01  0.00000000E+00  9.55249411E+00  9.55249411E+00
 -1.91049882E+01  0.00000000E+00  9.55249411E+00  9.55249411E+00 -1.91049882E+01
  0.00000000E+00  9.55249411E+00  9.55249411E+00 -1.91049882E+01  0.00000000E+00
  9.55249411E+00  9.55249411E+00 -1.91049882E+01  0.00000000E+00  9.55249411E+00
  9.55249411E+00 -1.91049882E+01  0.00000000E+00  9.55249411E+00  9.55249411E+00
 -1.91049882E+01  0.00000000E+00  9.55249411E+00  9.55249411E+00 -1.91049882E+01
  0.00000000E+00  9.55249411E+00  9.55249411E+00 -1.91049882E+01  0.00000000E+00
  9.55249411E+00  9.55249411E+00 -1.91049882E+01  0.00000000E+00  9.55249411E+00
  9.55249411E+00 -1.91049882E+01  0.00000000E+00  9.55249411E+00  9.55249411E+00
 -1.91049882E+01  0.00000000E+00  9.55249411E+00  9.55249411E+00 -1.91049882E+01
  0.00000000E+00  9.55249411E+00  9.55249411E+00 -1.91049882E+01  0.00000000E+00
  9.55249411E+00  9.55249411E+00 -1.91049882E+01  0.00000000E+00  9.55249411E+00
  9.55249411E+00 -1.91049882E+01  0.00000000E+00  9.55249411E+00  9.55249411E+00
 -1.91049882E+01  0.00000000E+00  9.55249411E+00  9.55249411E+00 -1.91049882E+01
  0.00000000E+00  9.55249411E+00  9.55249411E+00 -1.91049882E+01  0.00000000E+00
  9.55249411E+00  9.55249411E+00 -1.91049882E+01  0.00000000E+00  9.55249411E+00
  9.55249411E+00 -1.91049882E+01  0.00000000E+00  9.55249411E+00  9.55249411E+00
 -1.91049882E+01  0.00000000E+00  9.55249411E+00  9.55249411E+00 -1.91049882E+01
  0.00000000E+00  9.55249411E+00  9.55249411E+00 -1.91049882E+01  0.00000000E+00
  9.55249411E+00  9.55249411E+00 -1.91049882E+01  0.00000000E+00  9.55249411E+00
  9.55249411E+00 -1.91049882E+01  0.00000000E+00  9.55249411E+00  9.55249411E+00
 -1.91049882E+01  0.00000000E+00  9.55249411E+00  9.55249411E+00 -1.91049882E+01
  0.00000000E+00  9.55249411E+00  9.55249411E+00 -1.91049882E+01  0.00000000E+00
  9.55249411E+00  9.55249411E+00 -1.91049882E+01  0.00000000E+00  9.55249411E+00
  9.55249411E+00 -1.91049882E+01  0.00000000E+00  9.55249411E+00  9.55249411E+00
 -1.91049882E+01  0.00000000E+00  9.55249411E+00  9.55249411E+00 -1.91049882E+01
  0.00000000E+00  9.55249411E+00  9.55249411E+00 -1.91049882E+01  0.00000000E+00
  9.55249411E+00  9.55249411E+00 -1.91049882E+01  0.00000000E+00  9.55249411E+00
  9.55249411E+00 -1.91049882E+01  0.00000000E+00  9.55249411E+00  9.55249411E+00
 -1.91049882E+01  0.00000000E+00  9.55249411E+00  9.55249411E+00 -1.91049882E+01
  0.00000000E+00  9.55249411E+00  9.55249411E+00 -1.91049882E+01  0.00000000E+00
  9.55249411E+00  9.55249411E+00 -1.91049882E+01  0.00000000E+00  9.55249411E+00
  9.55249411E+00 -1.91049882E+01  0.00000000E+00  9.55249411E+00  9.55249411E+00
 -1.91049882E+01  0.00000000E+00  9.55249411E+00  9.55249411E+00 -1.91049882E+01
  0.00000000E+00  9.55249411E+00  9.55249411E+00 -1.91049882E+01  0.00000000E+00
  9.55249411E+00  9.55249411E+00 -1.91049882E+01  0.00000000E+00  9.55249411E+00
  9.55249411E+00 -1.91049882E+01  0.00000000E+00  9.55249411E+00  9.55249411E+00
 -1.91049882E+01  0.00000000E+00  9.55249411E+00  9.55249411E+00 -1.91049882E+01
  0.00000000E+00  9.55249411E+00  9.55249411E+00 -1.91049882E+01  0.00000000E+00
  9.55249411E+00  9.55249411E+00 -1.91049882E+01  0.00000000E+00  9.55249411E+00
  9.55249411E+00 -1.91049882E+01  0.00000000E+00  9.55249411E+00  9.55249411E+00
 -1.91049882E+01  0.00000000E+00  9.55249411E+00  9.55249411E+00 -1.91049882E+01
  0.00000000E+00  9.55249411E+00  9.55249411E+00 -1.91049882E+01  0.00000000E+00
  9.55249411E+00  9.55249411E+00 -1.91049882E+01  0.00000000E+00  9.55249411E+00
  9.55249411E+00 -1.91049882E+01  0.00000000E+00  9.55249411E+00  9.55249411E+00
 -1.91049882E+01  0.00000000E+00  9.55249411E+00  9.55249411E+00 -1.91049882E+01
  0.00000000E+00  9.55249411E+00  9.55249411E+00 -1.91049882E+01  0.00000000E+00
  9.55249411E+00  9.55249411E+00 -1.91049882E+01  0.00000000E+00  9.55249411E+00
  9.55249411E+00 -1.91049882E+01  0.00000000E+00  9.55249411E+00  9.55249411E+00
 -1.91049882E+01  0.00000000E+00  9.55249411E+00  9.55249411E+00 -1.91049882E+01
  0.00000000E+00  9.55249411E+00  9.55249411E+00 -1.91049882E+01  0.00000000E+00
  9.55249411E+00  9.55249411E+00 -1.91049882E+01  0.00000000E+00  9.55249411E+00
  9.55249411E+00 -1.91049882E+01  0.00000000E+00  9.55249411E+00  9.55249411E+00
 -1.91049882E+01  0.00000000E+00  9.55249411E+00  9.55249411E+00 -1.91049882E+01
  0.00000000E+00  9.55249411E+00  9.55249411E+00 -1.91049882E+01  0.00000000E+00
  9.55249411E+00  9.55249411E+00 -1.91049882E+01  0.00000000E+00  9.55249411E+00
  9.55249411E+00 -1.91049882E+01  0.00000000E+00  9.55249411E+00  9.55249411E+00
 -1.91049882E+01  0.00000000E+00  9.55249411E+00  9.55249411E+00 -1.91049882E+01
  0.00000000E+00  9.55249411E+00  9.55249411E+00 -1.91049882E+01  0.00000000E+00
  9.55249411E+00  9.55249411E+00 -1.91049882E+01  0.00000000E+00  9.55249411E+00
  9.55249411E+00 -1.91049882E+01  0.00000000E+00  9.55249411E+00  9.55249411E+00
 -1.91049882E+01  0.00000000E+00  9.55249411E+00  9.55249411E+00 -1.91049882E+01
  0.00000000E+00  9.55249411E+00  9.55249411E+00 -1.91049882E+01  0.00000000E+00
  9.55249411E+00  9.55249411E+00 -1.91049882E+01  0.00000000E+00  9.55249411E+00
  9.55249411E+00 -1.91049882E+01  0.00000000E+00  9.55249411E+00  9.55249411E+00
 -1.91049882E+01  0.00000000E+00  9.55249411E+00  9.55249411E+00 -1.91049882E+01
  0.00000000E+00  9.55249411E+00  9.55249411E+00 -1.91049882E+01  0.00000000E+00
  9.55249411E+00  9.55249411E+00 -1.91049882E+01  0.00000000E+00  9.55249411E+00
  9.55249411E+00 -1.91049882E+01  0.00000000E+00  9.55249411E+00  9.55249411E+00
 -1.91049882E+01  0.00000000E+00  9.55249411E+00  9.55249411E+00 -1.91049882E+01
  0.00000000E+00  9.55249411E+00  9.55249411E+00 -1.91049882E+01  0.00000000E+00
  9.55249411E+00  9.55249411E+00 -1.91049882E+01  0.00000000E+00  9.55249411E+00
  9.55249411E+00 -1.91049882E+01  0.00000000E+00  9.55249411E+00  9.55249411E+00
 -1.91049882E+01  0.00000000E+00  9.55249411E+00  9.55249411E+00 -1.91049882E+01
  0.00000000E+00  9.55249411E+00  9.55249411E+00 -1.91049882E+01  0.00000000E+00
  9.55249411E+00  9.55249411E+00 -1.91049882E+01  0.00000000E+00  9.55249411E+00
  9.55249411E+00 -1.91049882E+01  0.00000000E+00  9.55249411E+00  9.55249411E+00
 -1.91049882E+01  0.00000000E+00  9.55249411E+00  9.55249411E+00 -1.91049882E+01
  0.00000000E+00  9.55249411E+00  9.55249411E+00 -1.91049882E+01  0.00000000E+00
  9.55249411E+00  9.55249411E+00 -1.91049882E+01  0.00000000E+00  9.55249411E+00
  9.55249411E+00 -1.91049882E+01  0.00000000E+00  9.55249411E+00  9.55249411E+00
 -1.91049882E+01  0.00000000E+00  9.55249411E+00  9.55249411E+00 -1.91049882E+01
  0.00000000E+00  9.55249411E+00  9.55249411E+00 -1.91049882E+01  0.00000000E+00
  9.55249411E+00  9.55249411E+00 -1.91049882E+01  0.00000000E+00  9.55249411E+00
  9.55249411E+00 -1.91049882E+01  0.00000000E+00  9.55249411E+00  9.55249411E+00
 -1.91049882E+01  0.00000000E+00  9.55249411E+00  9.55249411E+00 -1.91049882E+01
  0.00000000E+00  9.55249411E+00  9.55249411E+00 -1.91049882E+01  0.00000000E+00
  9.55249411E+00  9.55249411E+00 -1.91049882E+01  0.00000000E+00  9.55249411E+00
  9.55249411E+00 -1.91049882E+01  0.00000000E+00  9.55249411E+00  9.55249411E+00
 -1.91049882E+01  0.00000000E+00  9.55249411E+00  9.55249411E+00 -1.91049882E+01
  0.00000000E+00  9.55249411E+00  9.55249411E+00 -1.91049882E+01  0.00000000E+00
  9.55249411E+00  9.55249411E+00 -1.91049882E+01  0.00000000E+00  9.55249411E+00
  9.55249411E+00 -1.91049882E+01  0.00000000E+00  9.55249411E+00  9.55249411E+00
 -1.91049882E+01  0.00000000E+00  9.55249411E+00  9.55249411E+00 -1.91049882E+01
  0.00000000E+00  9.55249411E+00  9.55249411E+00 -1.91049882E+01  0.00000000E+00
  9.55249411E+00  9.55249411E+00 -1.91049882E+01  0.00000000E+00  9.55249411E+00
  9.55249411E+00 -1.91049882E+01  0.00000000E+00  9.55249411E+00  9.55249411E+00
 -1.91049882E+01  0.00000000E+00  9.55249411E+00  9.55249411E+00 -1.91049882E+01
  0.00000000E+00  9.55249411E+00  9.55249411E+00 -1.91049882E+01  0.00000000E+00
  9.55249411E+00  9.55249411E+00 -1.91049882E+01  0.00000000E+00  9.55249411E+00
  9.55249411E+00 -1.91049882E+01  0.00000000E+00  9.55249411E+00  9.55249411E+00
 -1.91049882E+01  0.00000000E+00  9.55249411E+00  9.55249411E+00 -1.91049882E+01
  0.00000000E+00  9.55249411E+00  9.55249411E+00 -1.91049882E+01  0.00000000E+00
  9.55249411E+00  9.55249411E+00 -1.91049882E+01  0.00000000E+00  9.55249411E+00
  9.55249411E+00 -1.91049882E+01  0.00000000E+00  9.55249411E+00  9.55249411E+00
 -1.91049882E+01  0.00000000E+00  9.55249411E+00  9.55249411E+00 -1.91049882E+01
  0.00000000E+00  9.55249411E+00  9.55249411E+00 -1.91049882E+01  0.00000000E+00
  9.55249411E+00  9.55249411E+00 -1.91049882E+01  0.00000000E+00  9.55249411E+00
  9.55249411E+00 -1.91049882E+01  0.00000000E+00  9.55249411E+00  9.55249411E+00
 -1.91049882E+01  0.00000000E+00  9.55249411E+00  9.55249411E+00 -1.91049882E+01
  0.00000000E+00  9.55249411E+00  9.55249411E+00 -1.91049882E+01  0.00000000E+00
  9.55249411E+00  9.55249411E+00 -1.91049882E+01  0.00000000E+00  9.55249411E+00
  9.55249411E+00 -1.91049882E+01  0.00000000E+00  9.55249411E+00  9.55249411E+00
 -1.91049882E+01  0.00000000E+00  9.55249411E+00  9.55249411E+00 -1.91049882E+01
  0.00000000E+00  9.55249411E+00  9.55249411E+00 -1.91049882E+01  0.00000000E+00
  9.55249411E+00  9.55249411E+00 -1.91049882E+01  0.00000000E+00  9.55249411E+00
  9.55249411E+00 -1.91049882E+01  0.00000000E+00  9.55249411E+00  9.55249411E+00
 -1.91049882E+01  0.00000000E+00  9.55249411E+00  9.55249411E+00 -1.91049882E+01
  0.00000000E+00  9.55249411E+00  9.55249411E+00 -1.91049882E+01  0.00000000E+00
  9.55249411E+00  9.55249411E+00 -1.91049882E+01  0.00000000E+00  9.55249411E+00
  9.55249411E+00 -1.91049882E+01  0.00000000E+00  9.55249411E+00  9.55249411E+00
 -1.91049882E+01  0.00000000E+00  9.55249411E+00  9.55249411E+00 -1.91049882E+01
  0.00000000E+00  9.55249411E+00  9.55249411E+00 -1.91049882E+01  0.00000000E+00
  9.55249411E+00  9.55249411E+00 -1.91049882E+01  0.00000000E+00  9.55249411E+00
  9.55249411E+00 -1.91049882E+01  0.00000000E+00  9.55249411E+00  9.55249411E+00
 -1.91049882E+01  0.00000000E+00  9.55249411E+00  9.55249411E+00 -1.91049882E+01
  0.00000000E+00  9.55249411E+00  9.55249411E+00 -1.91049882E+01  0.00000000E+00
  9.55249411E+00  9.55249411E+00 -1.91049882E+01  0.00000000E+00  9.55249411E+00
  9.55249411E+00 -1.91049882E+01  0.00000000E+00  9.55249411E+00  9.55249411E+00
 -1.91049882E+01  0.00000000E+00  9.55249411E+00  9.55249411E+00 -1.91049882E+01
  0.00000000E+00  9.55249411E+00  9.55249411E+00 -1.91049882E+01  0.00000000E+00
  9.55249411E+00  9.55249411E+00 -1.91049882E+01  0.00000000E+00  9.55249411E+00
  9.55249411E+00 -1.91049882E+01  0.00000000E+00  9.55249411E+00  9.55249411E+00
 -1.91049882E+01  0.00000000E+00  9.55249411E+00  9.55249411E+00 -1.91049882E+01
  0.00000000E+00  9.55249411E+00  9.55249411E+00 -1.91049882E+01  0.00000000E+00
  9.55249411E+00  9.55249411E+00 -1.91049882E+01  0.00000000E+00  9.55249411E+00
  9.55249411E+00 -1.91049882E+01  0.00000000E+00  9.55249411E+00  9.55249411E+00
 -1.91049882E+01  0.00000000E+00  9.55249411E+00  9.55249411E+00 -1.91049882E+01
  0.00000000E+00  9.55249411E+00  9.55249411E+00 -1.91049882E+01  0.00000000E+00
  9.55249411E+00  9.55249411E+00 -1.91049882E+01  0.00000000E+00  9.55249411E+00
  9.55249411E+00 -1.91049882E+01  0.00000000E+00  9.55249411E+00  9.55249411E+00
 -1.91049882E+01  0.00000000E+00  9.55249411E+00  9.55249411E+00 -1.91049882E+01
  0.00000000E+00  9.55249411E+00  9.55249411E+00 -1.91049882E+01  0.00000000E+00
  9.55249411E+00  9.55249411E+00 -1.91049882E+01  0.00000000E+00  9.55249411E+00
  9.55249411E+00 -1.91049882E+01  0.00000000E+00  9.55249411E+00  9.55249411E+00
 -1.91049882E+01  0.00000000E+00  9.55249411E+00  9.55249411E+00 -1.91049882E+01
  0.00000000E+00  9.55249411E+00  9.55249411E+00 -1.91049882E+01  0.00000000E+00
  9.55249411E+00  9.55249411E+00 -1.91049882E+01  0.00000000E+00  9.55249411E+00
  9.55249411E+00 -1.91049882E+01  0.00000000E+00  9.55249411E+00  9.55249411E+00
 -1.91049882E+01  0.00000000E+00  9.55249411E+00  9.55249411E+00 -1.91049882E+01
  0.00000000E+00  9.55249411E+00  9.55249411E+00 -1.91049882E+01  0.00000000E+00
  9.55249411E+00  9.55249411E+00 -1.91049882E+01  0.00000000E+00  9.55249411E+00
  9.55249411E+00 -1.91049882E+01  0.00000000E+00  9.55249411E+00  9.55249411E+00
 -1.91049882E+01  0.00000000E+00  9.55249411E+00  9.55249411E+00 -1.91049882E+01
  0.00000000E+00  9.55249411E+00  9.55249411E+00 -1.91049882E+01  0.00000000E+00
  9.55249411E+00  9.55249411E+00 -1.91049882E+01  0.00000000E+00  9.55249411E+00
  9.55249411E+00 -1.91049882E+01  0.00000000E+00  9.55249411E+00  9.55249411E+00
 -1.91049882E+01  0.00000000E+00  9.55249411E+00  9.55249411E+00 -1.91049882E+01
  0.00000000E+00  9.55249411E+00  9.55249411E+00 -1.91049882E+01  0.00000000E+00
  9.55249411E+00  9.55249411E+00 -1.91049882E+01  0.00000000E+00  9.55249411E+00
  9.55249411E+00 -1.91049882E+01  0.00000000E+00  9.55249411E+00  9.55249411E+00
 -1.91049882E+01  0.00000000E+00  9.55249411E+00  9.55249411E+00 -1.91049882E+01
  0.00000000E+00  9.55249411E+00  9.55249411E+00 -1.91049882E+01  0.00000000E+00
  9.55249411E+00  9.55249411E+00 -1.91049882E+01  0.00000000E+00  9.55249411E+00
  9.55249411E+00 -1.91049882E+01  0.00000000E+00  9.55249411E+00  9.55249411E+00
 -1.91049882E+01  0.00000000E+00  9.55249411E+00  9.55249411E+00 -1.91049882E+01
  0.00000000E+00  9.55249411E+00  9.55249411E+00 -1.91049882E+01  0.00000000E+00
  9.55249411E+00  9.55249411E+00 -1.91049882E+01  0.00000000E+00  9.55249411E+00
  9.55249411E+00 -1.91049882E+01  0.00000000E+00  9.55249411E+00  9.55249411E+00
 -1.91049882E+01  0.00000000E+00  9.55249411E+00  9.55249411E+00 -1.91049882E+01
  0.00000000E+00  9.55249411E+00  9.55249411E+00 -1.91049882E+01  0.00000000E+00
  9.55249411E+00  9.55249411E+00 -1.91049882E+01  0.00000000E+00  9.55249411E+00
  9.55249411E+00 -1.91049882E+01  0.00000000E+00  9.55249411E+00  9.55249411E+00
 -1.91049882E+01  0.00000000E+00  9.55249411E+00  9.55249411E+00 -1.91049882E+01
  0.00000000E+00  9.55249411E+00  9.55249411E+00 -1.91049882E+01  0.00000000E+00
  9.55249411E+00  9.55249411E+00 -1.91049882E+01  0.00000000E+00  9.55249411E+00
  9.55249411E+00 -1.91049882E+01  0.00000000E+00  9.55249411E+00  9.55249411E+00
 -1.91049882E+01  0.00000000E+00  9.55249411E+00  9.55249411E+00 -1.91049882E+01
  0.00000000E+00  9.55249411E+00  9.55249411E+00 -1.91049882E+01  0.00000000E+00
  9.55249411E+00  9.55249411E+00 -1.91049882E+01  0.00000000E+00  9.55249411E+00
  9.55249411E+00 -1.91049882E+01  0.00000000E+00  9.55249411E+00  9.55249411E+00
 -1.91049882E+01  0.00000000E+00  9.55249411E+00  9.55249411E+00 -1.91049882E+01
  0.00000000E+00  9.55249411E+00  9.55249411E+00 -1.91049882E+01  0.00000000E+00
  9.55249411E+00  9.55249411E+00 -1.91049882E+01  0.00000000E+00  9.55249411E+00
  9.55249411E+00 -1.91049882E+01  0.00000000E+00  9.55249411E+00  9.55249411E+00
 -1.91049882E+01  0.00000000E+00  9.55249411E+00  9.55249411E+00 -1.91049882E+01
  0.00000000E+00  9.55249411E+00  9.55249411E+00 -1.91049882E+01  0.00000000E+00
  9.55249411E+00  9.55249411E+00 -1.91049882E+01  0.00000000E+00  9.55249411E+00
  9.55249411E+00 -1.91049882E+01  0.00000000E+00  9.55249411E+00  9.55249411E+00
 -1.91049882E+01  0.00000000E+00  9.55249411E+00  9.55249411E+00 -1.91049882E+01
  0.00000000E+00  9.55249411E+00  9.55249411E+00 -1.91049882E+01  0.00000000E+00
  9.55249411E+00  9.55249411E+00 -1.91049882E+01  0.00000000E+00  9.55249411E+00
  9.55249411E+00 -1.91049882E+01  0.00000000E+00  9.55249411E+00  9.55249411E+00
 -1.91049882E+01  0.00000000E+00  9.55249411E+00  9.55249411E+00 -1.91049882E+01
  0.00000000E+00  9.55249411E+00  9.55249411E+00 -1.91049882E+01  0.00000000E+00
  9.55249411E+00  9.55249411E+00 -1.91049882E+01  0.00000000E+00  9.55249411E+00
  9.55249411E+00 -1.91049882E+01  0.00000000E+00  9.55249411E+00  9.55249411E+00
 -1.91049882E+01  0.00000000E+00  9.55249411E+00  9.55249411E+00 -1.91049882E+01
  0.00000000E+00  9.55249411E+00  9.55249411E+00 -1.91049882E+01  0.00000000E+00
  9.55249411E+00  9.55249411E+00 -1.91049882E+01  0.00000000E+00  9.55249411E+00
  9.55249411E+00 -1.91049882E+01  0.00000000E+00  9.55249411E+00  9.55249411E+00
 -1.91049882E+01  0.00000000E+00  9.55249411E+00  9.55249411E+00 -1.91049882E+01
  0.00000000E+00  9.55249411E+00  9.55249411E+00 -1.91049882E+01  0.00000000E+00
  9.55249411E+00  9.55249411E+00 -1.91049882E+01  0.00000000E+00  9.55249411E+00
  9.55249411E+00 -1.91049882E+01  0.00000000E+00  9.55249411E+00  9.55249411E+00
 -1.91049882E+01  0.00000000E+00  9.55249411E+00  9.55249411E+00 -1.91049882E+01
  0.00000000E+00  9.55249411E+00  9.55249411E+00 -1.91049882E+01  0.00000000E+00
  9.55249411E+00  9.55249411E+00 -1.91049882E+01  0.00000000E+00  9.55249411E+00
  9.55249411E+00 -1.91049882E+01  0.00000000E+00  9.55249411E+00  9.55249411E+00
 -1.91049882E+01  0.00000000E+00  9.55249411E+00  9.55249411E+00 -1.91049882E+01
  0.00000000E+00  9.55249411E+00  9.55249411E+00 -1.91049882E+01  0.00000000E+00
  9.55249411E+00  9.55249411E+00 -1.91049882E+01  0.00000000E+00  9.55249411E+00
  9.55249411E+00 -1.91049882E+01  0.00000000E+00  9.55249411E+00  9.55249411E+00
 -1.91049882E+01  0.00000000E+00  9.55249411E+00  9.55249411E+00 -1.91049882E+01
  0.00000000E+00  9.55249411E+00  9.55249411E+00 -1.91049882E+01  0.00000000E+00
  9.55249411E+00  9.55249411E+00 -1.91049882E+01  0.00000000E+00  9.55249411E+00
  9.55249411E+00 -1.91049882E+01  0.00000000E+00  9.55249411E+00  9.55249411E+00
 -1.91049882E+01  0.00000000E+00  9.55249411E+00  9.55249411E+00 -1.91049882E+01
  0.00000000E+00  9.55249411E+00  9.55249411E+00 -1.91049882E+01  0.00000000E+00
  9.55249411E+00  9.55249411E+00 -1.91049882E+01  0.00000000E+00  9.55249411E+00
  9.55249411E+00 -1.91049882E+01  0.00000000E+00  9.55249411E+00  9.55249411E+00
 -1.91049882E+01  0.00000000E+00  9.55249411E+00  9.55249411E+00 -1.91049882E+01
  0.00000000E+00  9.55249411E+00  9.55249411E+00 -1.91049882E+01  0.00000000E+00
  9.55249411E+00  9.55249411E+00 -1.91049882E+01  0.00000000E+00  9.55249411E+00
  9.55249411E+00 -1.91049882E+01  0.00000000E+00  9.55249411E+00  9.55249411E+00
 -1.91049882E+01  0.00000000E+00  9.55249411E+00  9.55249411E+00 -1.91049882E+01
  0.00000000E+00  9.55249411E+00  9.55249411E+00 -1.91049882E+01  0.00000000E+00
  9.55249411E+00  9.55249411E+00 -1.91049882E+01  0.00000000E+00  9.55249411E+00
  9.55249411E+00 -1.91049882E+01  0.00000000E+00  9.55249411E+00  9.55249411E+00
 -1.91049882E+01  0.00000000E+00  9.55249411E+00  9.55249411E+00 -1.91049882E+01
  0.00000000E+00  9.55249411E+00  9.55249411E+00 -1.91049882E+01  0.00000000E+00
  9.55249411E+00  9.55249411E+00 -1.91049882E+01  0.00000000E+00  9.55249411E+00
  9.55249411E+00 -1.91049882E+01  0.00000000E+00  9.55249411E+00  9.55249411E+00
 -1.91049882E+01  0.00000000E+00  9.55249411E+00  9.55249411E+00 -1.91049882E+01
  0.00000000E+00  9.55249411E+00  9.55249411E+00 -1.91049882E+01  0.00000000E+00
  9.55249411E+00  9.55249411E+00 -1.91049882E+01  0.00000000E+00  9.55249411E+00
  9.55249411E+00 -1.91049882E+01  0.00000000E+00  9.55249411E+00  9.55249411E+00
 -1.91049882E+01  0.00000000E+00  9.55249411E+00  9.55249411E+00 -1.91049882E+01
  0.00000000E+00  9.55249411E+00  9.55249411E+00 -1.91049882E+01  0.00000000E+00
  9.55249411E+00  9.55249411E+00 -1.91049882E+01  0.00000000E+00  9.55249411E+00
  9.55249411E+00 -1.91049882E+01  0.00000000E+00  9.55249411E+00  9.55249411E+00
 -1.91049882E+01  0.00000000E+00  9.55249411E+00  9.55249411E+00 -1.91049882E+01
  0.00000000E+00  9.55249411E+00  9.55249411E+00 -1.91049882E+01  0.00000000E+00
  9.55249411E+00  9.55249411E+00 -1.91049882E+01  0.00000000E+00  9.55249411E+00
  9.55249411E+00 -1.91049882E+01  0.00000000E+00  9.55249411E+00  9.55249411E+00
 -1.91049882E+01  0.00000000E+00  9.55249411E+00  9.55249411E+00 -1.91049882E+01
  0.00000000E+00  9.55249411E+00  9.55249411E+00 -1.91049882E+01  0.00000000E+00
  9.55249411E+00  9.55249411E+00 -1.91049882E+01  0.00000000E+00  9.55249411E+00
  9.55249411E+00 -1.91049882E+01  0.00000000E+00  9.55249411E+00  9.55249411E+00
 -1.91049882E+01  0.00000000E+00  9.55249411E+00  9.55249411E+00 -1.91049882E+01
  0.00000000E+00  9.55249411E+00  9.55249411E+00 -1.91049882E+01  0.00000000E+00
  9.55249411E+00  9.55249411E+00 -1.91049882E+01  0.00000000E+00  9.55249411E+00
  9.55249411E+00 -1.91049882E+01  0.00000000E+00  9.55249411E+00  9.55249411E+00
 -1.91049882E+01  0.00000000E+00  9.55249411E+00  9.55249411E+00 -1.91049882E+01
  0.00000000E+00  9.55249411E+00  9.55249411E+00 -1.91049882E+01  0.00000000E+00
  9.55249411E+00  9.55249411E+00 -1.91049882E+01  0.00000000E+00  9.55249411E+00
  9.55249411E+00 -1.91049882E+01  0.00000000E+00  9.55249411E+00  9.55249411E+00
 -1.91049882E+01  0.00000000E+00  9.55249411E+00  9.55249411E+00 -1.91049882E+01
  0.00000000E+00  9.55249411E+00  9.55249411E+00 -1.91049882E+01  0.00000000E+00
  9.55249411E+00  9.55249411E+00 -1.91049882E+01  0.00000000E+00  9.55249411E+00
  9.55249411E+00 -1.91049882E+01  0.00000000E+00  9.55249411E+00  9.55249411E+00
 -1.91049882E+01  0.00000000E+00  9.55249411E+00  9.55249411E+00 -1.91049882E+01
  0.00000000E+00  9.55249411E+00  9.55249411E+00 -1.91049882E+01  0.00000000E+00
  9.55249411E+00  9.55249411E+00 -1.91049882E+01  0.00000000E+00  9.55249411E+00
  9.55249411E+00 -1.91049882E+01  0.00000000E+00  9.55249411E+00  9.55249411E+00
 -1.91049882E+01  0.00000000E+00  9.55249411E+00  9.55249411E+00 -1.91049882E+01
  0.00000000E+00  9.55249411E+00  9.55249411E+00 -1.91049882E+01  0.00000000E+00
  9.55249411E+00  9.55249411E+00 -1.91049882E+01  0.00000000E+00  9.55249411E+00
  9.55249411E+00 -1.91049882E+01  0.00000000E+00  9.55249411E+00  9.55249411E+00
 -1.91049882E+01  0.00000000E+00  9.55249411E+00  9.55249411E+00 -1.91049882E+01
  0.00000000E+00  9.55249411E+00  9.55249411E+00 -1.91049882E+01  0.00000000E+00
  9.55249411E+00  9.55249411E+00 -1.91049882E+01  0.00000000E+00  9.55249411E+00
  9.55249411E+00 -1.91049882E+01  0.00000000E+00  9.55249411E+00  9.55249411E+00
 -1.91049882E+01  0.00000000E+00  9.55249411E+00  9.55249411E+00 -1.91049882E+01
  0.00000000E+00  9.55249411E+00  9.55249411E+00 -1.91049882E+01  0.00000000E+00
  9.55249411E+00  9.55249411E+00 -1.91049882E+01  0.00000000E+00  9.55249411E+00
  9.55249411E+00 -1.91049882E+01  0.00000000E+00  9.55249411E+00  9.55249411E+00
 -1.91049882E+01  0.00000000E+00  9.55249411E+00  9.55249411E+00 -1.91049882E+01
  0.00000000E+00  9.55249411E+00  9.55249411E+00 -1.91049882E+01  0.00000000E+00
  9.55249411E+00  9.55249411E+00 -1.91049882E+01  0.00000000E+00  9.55249411E+00
  9.55249411E+00 -1.91049882E+01  0.00000000E+00  9.55249411E+00  9.55249411E+00
 -1.91049882E+01  0.00000000E+00  9.55249411E+00  9.55249411E+00 -1.91049882E+01
  0.00000000E+00  9.55249411E+00  9.55249411E+00 -1.91049882E+01  0.00000000E+00
  9.55249411E+00  9.55249411E+00 -1.91049882E+01  0.00000000E+00  9.55249411E+00
  9.55249411E+00 -1.91049882E+01  0.00000000E+00  9.55249411E+00  9.55249411E+00
 -1.91049882E+01  0.00000000E+00  9.55249411E+00  9.55249411E+00 -1.91049882E+01
  0.00000000E+00  9.55249411E+00  9.55249411E+00 -1.91049882E+01  0.00000000E+00
  9.55249411E+00  9.55249411E+00 -1.91049882E+01  0.00000000E+00  9.55249411E+00
  9.55249411E+00 -1.91049882E+01  0.00000000E+00  9.55249411E+00  9.55249411E+00
 -1.91049882E+01  0.00000000E+00  9.55249411E+00  9.55249411E+00 -1.91049882E+01
  0.00000000E+00  9.55249411E+00  9.55249411E+00 -1.91049882E+01  0.00000000E+00
  9.55249411E+00  9.55249411E+00 -1.91049882E+01  0.00000000E+00  9.55249411E+00
  9.55249411E+00 -1.91049882E+01  0.00000000E+00  9.55249411E+00  9.55249411E+00
 -1.91049882E+01  0.00000000E+00  9.55249411E+00  9.55249411E+00 -1.91049882E+01
  0.00000000E+00  9.55249411E+00  9.55249411E+00 -1.91049882E+01  0.00000000E+00
  9.55249411E+00  9.55249411E+00 -1.91049882E+01  0.00000000E+00  9.55249411E+00
  9.55249411E+00 -1.91049882E+01  0.00000000E+00  9.55249411E+00  9.55249411E+00
 -1.91049882E+01  0.00000000E+00  9.55249411E+00  9.55249411E+00 -1.91049882E+01
  0.00000000E+00  9.55249411E+00  9.55249411E+00 -1.91049882E+01  0.00000000E+00
  9.55249411E+00  9.55249411E+00 -1.91049882E+01  0.00000000E+00  9.55249411E+00
  9.55249411E+00 -1.91049882E+01  0.00000000E+00  9.55249411E+00  9.55249411E+00
 -1.91049882E+01  0.00000000E+00  9.55249411E+00  9.55249411E+00 -1.91049882E+01
  0.00000000E+00  9.55249411E+00  9.55249411E+00 -1.91049882E+01  0.00000000E+00
  9.55249411E+00  9.55249411E+00 -1.91049882E+01  0.00000000E+00  9.55249411E+00
  9.55249411E+00 -1.91049882E+01  0.00000000E+00  9.55249411E+00  9.55249411E+00
 -1.91049882E+01  0.00000000E+00  9.55249411E+00  9.55249411E+00 -1.91049882E+01
  0.00000000E+00  9.55249411E+00  9.55249411E+00 -1.91049882E+01  0.00000000E+00
  9.55249411E+00  9.55249411E+00 -1.91049882E+01  0.00000000E+00  9.55249411E+00
  9.55249411E+00 -1.91049882E+01  0.00000000E+00  9.55249411E+00  9.55249411E+00
 -1.91049882E+01  0.00000000E+00  9.55249411E+00  9.55249411E+00 -1.91049882E+01
  0.00000000E+00  9.55249411E+00  9.55249411E+00 -1.91049882E+01  0.00000000E+00
  9.55249411E+00  9.55249411E+00 -1.91049882E+01  0.00000000E+00  9.55249411E+00
  9.55249411E+00 -1.91049882E+01  0.00000000E+00  9.55249411E+00  9.55249411E+00
 -1.91049882E+01  0.00000000E+00  9.55249411E+00  9.55249411E+00 -1.91049882E+01
  0.00000000E+00  9.55249411E+00  9.55249411E+00 -1.91049882E+01  0.00000000E+00
  9.55249411E+00  9.55249411E+00 -1.91049882E+01  0.00000000E+00  9.55249411E+00
  9.55249411E+00 -1.91049882E+01  0.00000000E+00  9.55249411E+00  9.55249411E+00
 -1.91049882E+01  0.00000000E+00  9.55249411E+00  9.55249411E+00 -1.91049882E+01
  0.00000000E+00  9.55249411E+00  9.55249411E+00 -1.91049882E+01  0.00000000E+00
  9.55249411E+00  9.55249411E+00 -1.91049882E+01  0.00000000E+00  9.55249411E+00
  9.55249411E+00 -1.91049882E+01  0.00000000E+00  9.55249411E+00  9.55249411E+00
 -1.91049882E+01  0.00000000E+00  9.55249411E+00  9.55249411E+00 -1.91049882E+01
  0.00000000E+00  9.55249411E+00  9.55249411E+00 -1.91049882E+01  0.00000000E+00
  9.55249411E+00  9.55249411E+00 -1.91049882E+01  0.00000000E+00  9.55249411E+00
  9.55249411E+00 -1.91049882E+01  0.00000000E+00  9.55249411E+00  9.55249411E+00
 -1.91049882E+01  0.00000000E+00  9.55249411E+00  9.55249411E+00 -1.91049882E+01
  0.00000000E+00  9.55249411E+00  9.55249411E+00 -1.91049882E+01  0.00000000E+00
  9.55249411E+00  9.55249411E+00 -1.91049882E+01  0.00000000E+00  9.55249411E+00
  9.55249411E+00 -1.91049882E+01  0.00000000E+00  9.55249411E+00  9.55249411E+00
 -1.91049882E+01  0.00000000E+00  9.55249411E+00  9.55249411E+00 -1.91049882E+01
  0.00000000E+00  9.55249411E+00  9.55249411E+00 -1.91049882E+01  0.00000000E+00
  9.55249411E+00  9.55249411E+00 -1.91049882E+01  0.00000000E+00  9.55249411E+00
  9.55249411E+00 -1.91049882E+01  0.00000000E+00  9.55249411E+00  9.55249411E+00
 -1.91049882E+01  0.00000000E+00  9.55249411E+00  9.55249411E+00 -1.91049882E+01
  0.00000000E+00  9.55249411E+00  9.55249411E+00 -1.91049882E+01  0.00000000E+00
  9.55249411E+00  9.55249411E+00 -1.91049882E+01  0.00000000E+00  9.55249411E+00
  9.55249411E+00 -1.91049882E+01  0.00000000E+00  9.55249411E+00  9.55249411E+00
 -1.91049882E+01  0.00000000E+00  9.55249411E+00  9.55249411E+00 -1.91049882E+01
  0.00000000E+00  9.55249411E+00  9.55249411E+00 -1.91049882E+01  0.00000000E+00
  9.55249411E+00  9.55249411E+00 -1.91049882E+01  0.00000000E+00  9.55249411E+00
  9.55249411E+00 -1.91049882E+01  0.00000000E+00  9.55249411E+00  9.55249411E+00
 -1.91049882E+01  0.00000000E+00  9.55249411E+00  9.55249411E+00 -1.91049882E+01
  0.00000000E+00  9.55249411E+00  9.55249411E+00 -1.91049882E+01  0.00000000E+00
  9.55249411E+00  9.55249411E+00 -1.91049882E+01  0.00000000E+00  9.55249411E+00
  9.55249411E+00 -1.91049882E+01  0.00000000E+00  9.55249411E+00  9.55249411E+00
 -1.91049882E+01  0.00000000E+00  9.55249411E+00  9.55249411E+00 -1.91049882E+01
  0.00000000E+00  9.55249411E+00  9.55249411E+00 -1.91049882E+01  0.00000000E+00
  9.55249411E+00  9.55249411E+00 -1.91049882E+01  0.00000000E+00  9.55249411E+00
  9.55249411E+00 -1.91049882E+01  0.00000000E+00  9.55249411E+00  9.55249411E+00
 -1.91049882E+01  0.00000000E+00  9.55249411E+00  9.55249411E+00 -1.91049882E+01
  0.00000000E+00  9.55249411E+00  9.55249411E+00 -1.91049882E+01  0.00000000E+00
  9.55249411E+00  9.55249411E+00 -1.91049882E+01  0.00000000E+00  9.55249411E+00
  9.55249411E+00 -1.91049882E+01  0.00000000E+00  9.55249411E+00  9.55249411E+00
 -1.91049882E+01  0.00000000E+00  9.55249411E+00  9.55249411E+00 -1.91049882E+01
  0.00000000E+00  9.55249411E+00  9.55249411E+00 -1.91049882E+01  0.00000000E+00
  9.55249411E+00  9.55249411E+00 -1.91049882E+01  0.00000000E+00  9.55249411E+00
  9.55249411E+00 -1.91049882E+01  0.00000000E+00  9.55249411E+00  9.55249411E+00
 -1.91049882E+01  0.00000000E+00  9.55249411E+00  9.55249411E+00 -1.91049882E+01
  0.00000000E+00  9.55249411E+00  9.55249411E+00 -1.91049882E+01  0.00000000E+00
  9.55249411E+00  9.55249411E+00 -1.91049882E+01  0.00000000E+00  9.55249411E+00
  9.55249411E+00 -1.91049882E+01  0.00000000E+00  9.55249411E+00  9.55249411E+00
 -1.91049882E+01  0.00000000E+00  9.55249411E+00  9.55249411E+00 -1.91049882E+01
  0.00000000E+00  9.55249411E+00  9.55249411E+00 -1.91049882E+01  0.00000000E+00
  9.55249411E+00  9.55249411E+00 -1.91049882E+01  0.00000000E+00  9.55249411E+00
  9.55249411E+00 -1.91049882E+01  0.00000000E+00  9.55249411E+00  9.55249411E+00
 -1.91049882E+01  0.00000000E+00  9.55249411E+00  9.55249411E+00 -1.91049882E+01
  0.00000000E+00  9.55249411E+00  9.55249411E+00 -1.91049882E+01  0.00000000E+00
  9.55249411E+00  9.55249411E+00 -1.91049882E+01  0.00000000E+00  9.55249411E+00
  9.55249411E+00 -1.91049882E+01  0.00000000E+00  9.55249411E+00  9.55249411E+00
 -1.91049882E+01  0.00000000E+00  9.55249411E+00  9.55249411E+00 -1.91049882E+01
  0.00000000E+00  9.55249411E+00  9.55249411E+00 -1.91049882E+01  0.00000000E+00
  9.55249411E+00  9.55249411E+00 -1.91049882E+01  0.00000000E+00  9.55249411E+00
  9.55249411E+00 -1.91049882E+01  0.00000000E+00  9.55249411E+00  9.55249411E+00
 -1.91049882E+01  0.00000000E+00  9.55249411E+00  9.55249411E+00 -1.91049882E+01
  0.00000000E+00  9.55249411E+00  9.55249411E+00 -1.91049882E+01  0.00000000E+00
  9.55249411E+00  9.55249411E+00 -1.91049882E+01  0.00000000E+00  9.55249411E+00
  9.55249411E+00 -1.91049882E+01  0.00000000E+00  9.55249411E+00  9.55249411E+00
 -1.91049882E+01  0.00000000E+00  9.55249411E+00  9.55249411E+00 -1.91049882E+01
  0.00000000E+00  9.55249411E+00  9.55249411E+00 -1.91049882E+01  0.00000000E+00
  9.55249411E+00  9.55249411E+00 -1.91049882E+01  0.00000000E+00  9.55249411E+00
  9.55249411E+00 -1.91049882E+01  0.00000000E+00  9.55249411E+00  9.55249411E+00
 -1.91049882E+01  0.00000000E+00  9.55249411E+00  9.55249411E+00 -1.91049882E+01
  0.00000000E+00  9.55249411E+00  9.55249411E+00 -1.91049882E+01  0.00000000E+00
  9.55249411E+00  9.55249411E+00 -1.91049882E+01  0.00000000E+00  9.55249411E+00
  9.55249411E+00 -1.91049882E+01  0.00000000E+00  9.55249411E+00  9.55249411E+00
 -1.91049882E+01  0.00000000E+00  9.55249411E+00  9.55249411E+00 -1.91049882E+01
  0.00000000E+00  9.55249411E+00  9.55249411E+00 -1.91049882E+01  0.00000000E+00
  9.55249411E+00  9.55249411E+00 -1.91049882E+01  0.00000000E+00  9.55249411E+00
  9.55249411E+00 -1.91049882E+01  0.00000000E+00  9.55249411E+00  9.55249411E+00
 -1.91049882E+01  0.00000000E+00  9.55249411E+00  9.55249411E+00 -1.91049882E+01
  0.00000000E+00  9.55249411E+00  9.55249411E+00 -1.91049882E+01  0.00000000E+00
  9.55249411E+00  9.55249411E+00 -1.91049882E+01  0.00000000E+00  9.55249411E+00
  9.55249411E+00 -1.91049882E+01  0.00000000E+00  9.55249411E+00  9.55249411E+00
 -1.91049882E+01  0.00000000E+00  9.55249411E+00  9.55249411E+00 -1.91049882E+01
  0.00000000E+00  9.55249411E+00  9.55249411E+00 -1.91049882E+01  0.00000000E+00
  9.55249411E+00  9.55249411E+00 -1.91049882E+01  0.00000000E+00  9.55249411E+00
  9.55249411E+00 -1.91049882E+01  0.00000000E+00  9.55249411E+00  9.55249411E+00
 -1.91049882E+01  0.00000000E+00  9.55249411E+00  9.55249411E+00 -1.91049882E+01
  0.00000000E+00  9.55249411E+00  9.55249411E+00 -1.91049882E+01  0.00000000E+00
  9.55249411E+00  9.55249411E+00 -1.91049882E+01  0.00000000E+00  9.55249411E+00
  9.55249411E+00 -1.91049882E+01  0.00000000E+00  9.55249411E+00  9.55249411E+00
 -1.91049882E+01  0.00000000E+00  9.55249411E+00  9.55249411E+00 -1.91049882E+01
  0.00000000E+00  9.55249411E+00  9.55249411E+00 -1.91049882E+01  0.00000000E+00
  9.55249411E+00  9.55249411E+00 -1.91049882E+01  0.00000000E+00  9.55249411E+00
  9.55249411E+00 -1.91049882E+01  0.00000000E+00  9.55249411E+00  9.55249411E+00
 -1.91049882E+01  0.00000000E+00  9.55249411E+00  9.55249411E+00 -1.91049882E+01
  0.00000000E+00  9.55249411E+00  9.55249411E+00 -1.91049882E+01  0.00000000E+00
  9.55249411E+00  9.55249411E+00 -1.91049882E+01  0.00000000E+00  9.55249411E+00
  9.55249411E+00 -1.91049882E+01  0.00000000E+00  9.55249411E+00  9.55249411E+00
 -1.91049882E+01  0.00000000E+00  9.55249411E+00  9.55249411E+00 -1.91049882E+01
  0.00000000E+00  9.55249411E+00  9.55249411E+00 -1.91049882E+01  0.00000000E+00
  9.55249411E+00  9.55249411E+00 -1.91049882E+01  0.00000000E+00  9.55249411E+00
  9.55249411E+00 -1.91049882E+01  0.00000000E+00  9.55249411E+00  9.55249411E+00
 -1.91049882E+01  0.00000000E+00  9.55249411E+00  9.55249411E+00 -1.91049882E+01
  0.00000000E+00  9.55249411E+00  9.55249411E+00 -1.91049882E+01  0.00000000E+00
  9.55249411E+00  9.55249411E+00 -1.91049882E+01  0.00000000E+00  9.55249411E+00
  9.55249411E+00 -1.91049882E+01  0.00000000E+00  9.55249411E+00  9.55249411E+00
 -1.91049882E+01  0.00000000E+00  9.55249411E+00  9.55249411E+00 -1.91049882E+01
  0.00000000E+00  9.55249411E+00  9.55249411E+00 -1.91049882E+01  0.00000000E+00
  9.55249411E+00  9.55249411E+00 -1.91049882E+01  0.00000000E+00  9.55249411E+00
  9.55249411E+00 -1.91049882E+01  0.00000000E+00  9.55249411E+00  9.55249411E+00
 -1.91049882E+01  0.00000000E+00  9.55249411E+00  9.55249411E+00 -1.91049882E+01
  0.00000000E+00  9.55249411E+00  9.55249411E+00 -1.91049882E+01  0.00000000E+00
  9.55249411E+00  9.55249411E+00 -1.91049882E+01  0.00000000E+00  9.55249411E+00
  9.55249411E+00 -1.91049882E+01  0.00000000E+00  9.55249411E+00  9.55249411E+00
 -1.91049882E+01  0.00000000E+00  9.55249411E+00  9.55249411E+00 -1.91049882E+01
  0.00000000E+00  9.55249411E+00  9.55249411E+00 -1.91049882E+01  0.00000000E+00
  9.55249411E+00  9.55249411E+00 -1.91049882E+01  0.00000000E+00  9.55249411E+00
  9.55249411E+00 -1.91049882E+01  0.00000000E+00  9.55249411E+00  9.55249411E+00
 -1.91049882E+01  0.00000000E+00  9.55249411E+00  9.55249411E+00 -1.91049882E+01
  0.00000000E+00  9.55249411E+00  9.55249411E+00 -1.91049882E+01  0.00000000E+00
  9.55249411E+00  9.55249411E+00 -1.91049882E+01  0.00000000E+00  9.55249411E+00
  9.55249411E+00 -1.91049882E+01  0.00000000E+00  9.55249411E+00  9.55249411E+00
 -1.91049882E+01  0.00000000E+00  9.55249411E+00  9.55249411E+00 -1.91049882E+01
  0.00000000E+00  9.55249411E+00  9.55249411E+00 -1.91049882E+01  0.00000000E+00
  9.55249411E+00  9.55249411E+00 -1.91049882E+01  0.00000000E+00  9.55249411E+00
  9.55249411E+00 -1.91049882E+01  0.00000000E+00  9.55249411E+00  9.55249411E+00
 -1.91049882E+01  0.00000000E+00  9.55249411E+00  9.55249411E+00 -1.91049882E+01
  0.00000000E+00  9.55249411E+00  9.55249411E+00 -1.91049882E+01  0.00000000E+00
  9.55249411E+00  9.55249411E+00 -1.91049882E+01  0.00000000E+00  9.55249411E+00
  9.55249411E+00 -1.91049882E+01  0.00000000E+00  9.55249411E+00  9.55249411E+00
 -1.91049882E+01  0.00000000E+00  9.55249411E+00  9.55249411E+00 -1.91049882E+01
  0.00000000E+00  9.55249411E+00  9.55249411E+00 -1.91049882E+01  0.00000000E+00
  9.55249411E+00  9.55249411E+00 -1.91049882E+01  0.00000000E+00  9.55249411E+00
  9.55249411E+00 -1.91049882E+01  0.00000000E+00  9.55249411E+00  9.55249411E+00
 -1.91049882E+01  0.00000000E+00  9.55249411E+00  9.55249411E+00 -1.91049882E+01
  0.00000000E+00  9.55249411E+00  9.55249411E+00 -1.91049882E+01  0.00000000E+00
  9.55249411E+00  9.55249411E+00 -1.91049882E+01  0.00000000E+00  9.55249411E+00
  9.55249411E+00 -1.91049882E+01  0.00000000E+00  9.55249411E+00  9.55249411E+00
 -1.91049882E+01  0.00000000E+00  9.55249411E+00  9.55249411E+00 -1.91049882E+01
  0.00000000E+00  9.55249411E+00  9.55249411E+00 -1.91049882E+01  0.00000000E+00
  9.55249411E+00  9.55249411E+00 -1.91049882E+01  0.00000000E+00  9.55249411E+00
  9.55249411E+00 -1.91049882E+01  0.00000000E+00  9.55249411E+00  9.55249411E+00
 -1.91049882E+01  0.00000000E+00  9.55249411E+00  9.55249411E+00 -1.91049882E+01
  0.00000000E+00  9.55249411E+00  9.55249411E+00 -1.91049882E+01  0.00000000E+00
  9.55249411E+00  9.55249411E+00 -1.91049882E+01  0.00000000E+00  9.55249411E+00
  9.55249411E+00 -1.91049882E+01  0.00000000E+00  9.55249411E+00  9.55249411E+00
 -1.91049882E+01  0.00000000E+00  9.55249411E+00  9.55249411E+00 -1.91049882E+01
  0.00000000E+00  9.55249411E+00  9.55249411E+00 -1.91049882E+01  0.00000000E+00
  9.55249411E+00  9.55249411E+00 -1.91049882E+01  0.00000000E+00  9.55249411E+00
  9.55249411E+00 -1.91049882E+01  0.00000000E+00  9.55249411E+00  9.55249411E+00
 -1.91049882E+01  0.00000000E+00  9.55249411E+00  9.55249411E+00 -1.91049882E+01
  0.00000000E+00  9.55249411E+00  9.55249411E+00 -1.91049882E+01  0.00000000E+00
  9.55249411E+00  9.55249411E+00 -1.91049882E+01  0.00000000E+00  9.55249411E+00
  9.55249411E+00 -1.91049882E+01  0.00000000E+00  9.55249411E+00  9.55249411E+00
 -1.91049882E+01  0.00000000E+00  9.55249411E+00  9.55249411E+00 -1.91049882E+01
  0.00000000E+00  9.55249411E+00  9.55249411E+00 -1.91049882E+01  0.00000000E+00
  9.55249411E+00  9.55249411E+00 -1.91049882E+01  0.00000000E+00  9.55249411E+00
  9.55249411E+00 -1.91049882E+01  0.00000000E+00  9.55249411E+00  9.55249411E+00
 -1.91049882E+01  0.00000000E+00  9.55249411E+00  9.55249411E+00 -1.91049882E+01
  0.00000000E+00  9.55249411E+00  9.55249411E+00 -1.91049882E+01  0.00000000E+00
  9.55249411E+00  9.55249411E+00 -1.91049882E+01  0.00000000E+00  9.55249411E+00
  9.55249411E+00 -1.91049882E+01  0.00000000E+00  9.55249411E+00  9.55249411E+00
 -1.91049882E+01  0.00000000E+00  9.55249411E+00  9.55249411E+00 -1.91049882E+01
  0.00000000E+00  9.55249411E+00  9.55249411E+00 -1.91049882E+01  0.00000000E+00
  9.55249411E+00  9.55249411E+00 -1.91049882E+01  0.00000000E+00  9.55249411E+00
  9.55249411E+00 -1.91049882E+01  0.00000000E+00  9.55249411E+00  9.55249411E+00
 -1.91049882E+01  0.00000000E+00  9.55249411E+00  9.55249411E+00 -1.91049882E+01
  0.00000000E+00  9.55249411E+00  9.55249411E+00 -1.91049882E+01  0.00000000E+00
  9.55249411E+00  9.55249411E+00 -1.91049882E+01  0.00000000E+00  9.55249411E+00
  9.55249411E+00 -1.91049882E+01  0.00000000E+00  9.55249411E+00  9.55249411E+00
 -1.91049882E+01  0.00000000E+00  9.55249411E+00  9.55249411E+00 -1.91049882E+01
  0.00000000E+00  9.55249411E+00  9.55249411E+00 -1.91049882E+01  0.00000000E+00
  9.55249411E+00  9.55249411E+00 -1.91049882E+01  0.00000000E+00  9.55249411E+00
  9.55249411E+00 -1.91049882E+01  0.00000000E+00  9.55249411E+00  9.55249411E+00
 -1.91049882E+01  0.00000000E+00  9.55249411E+00  9.55249411E+00 -1.91049882E+01
  0.00000000E+00  9.55249411E+00  9.55249411E+00 -1.91049882E+01  0.00000000E+00
  9.55249411E+00  9.55249411E+00 -1.91049882E+01  0.00000000E+00  9.55249411E+00
  9.55249411E+00 -1.91049882E+01  0.00000000E+00  9.55249411E+00  9.55249411E+00
 -1.91049882E+01  0.00000000E+00  9.55249411E+00  9.55249411E+00 -1.91049882E+01
  0.00000000E+00  9.55249411E+00  9.55249411E+00 -1.91049882E+01  0.00000000E+00
  9.55249411E+00  9.55249411E+00 -1.91049882E+01  0.00000000E+00  9.55249411E+00
  9.55249411E+00 -1.91049882E+01  0.00000000E+00  9.55249411E+00  9.55249411E+00
 -1.91049882E+01  0.00000000E+00  9.55249411E+00  9.55249411E+00 -1.91049882E+01
  0.00000000E+00  9.55249411E+00  9.55249411E+00 -1.91049882E+01  0.00000000E+00
  9.55249411E+00  9.55249411E+00 -1.91049882E+01  0.00000000E+00  9.55249411E+00
  9.55249411E+00 -1.91049882E+01  0.00000000E+00  9.55249411E+00  9.55249411E+00
 -1.91049882E+01  0.00000000E+00  9.55249411E+00  9.55249411E+00 -1.91049882E+01
  0.00000000E+00  9.55249411E+00  9.55249411E+00 -1.91049882E+01  0.00000000E+00
  9.55249411E+00  9.55249411E+00 -1.91049882E+01  0.00000000E+00  9.55249411E+00
  9.55249411E+00 -1.91049882E+01  0.00000000E+00  9.55249411E+00  9.55249411E+00
 -1.91049882E+01  0.00000000E+00  9.55249411E+00  9.55249411E+00 -1.91049882E+01
  0.00000000E+00  9.55249411E+00  9.55249411E+00 -1.91049882E+01  0.00000000E+00
  9.55249411E+00  9.55249411E+00 -1.91049882E+01  0.00000000E+00  9.55249411E+00
  9.55249411E+00 -1.91049882E+01  0.00000000E+00  9.55249411E+00  9.55249411E+00
 -1.91049882E+01  0.00000000E+00  9.55249411E+00  9.55249411E+00 -1.91049882E+01
  0.00000000E+00  9.55249411E+00  9.55249411E+00 -1.91049882E+01  0.00000000E+00
  9.55249411E+00  9.55249411E+00 -1.91049882E+01  0.00000000E+00  9.55249411E+00
  9.55249411E+00 -1.91049882E+01  0.00000000E+00  9.55249411E+00  9.55249411E+00
 -1.91049882E+01  0.00000000E+00  9.55249411E+00  9.55249411E+00 -1.91049882E+01
  0.00000000E+00  9.55249411E+00  9.55249411E+00 -1.91049882E+01  0.00000000E+00
  9.55249411E+00  9.55249411E+00 -1.91049882E+01  0.00000000E+00  9.55249411E+00
  9.55249411E+00 -1.91049882E+01  0.00000000E+00  9.55249411E+00  9.55249411E+00
 -1.91049882E+01  0.00000000E+00  9.55249411E+00  9.55249411E+00 -1.91049882E+01
  0.00000000E+00  9.55249411E+00  9.55249411E+00 -1.91049882E+01  0.00000000E+00
  9.55249411E+00  9.55249411E+00 -1.91049882E+01  0.00000000E+00  9.55249411E+00
  9.55249411E+00 -1.91049882E+01  0.00000000E+00  9.55249411E+00  9.55249411E+00
 -1.91049882E+01  0.00000000E+00  9.55249411E+00  9.55249411E+00 -1.91049882E+01
  0.00000000E+00  9.55249411E+00  9.55249411E+00 -1.91049882E+01  0.00000000E+00
  9.55249411E+00  9.55249411E+00 -1.91049882E+01  0.00000000E+00  9.55249411E+00
  9.55249411E+00 -1.91049882E+01  0.00000000E+00  9.55249411E+00  9.55249411E+00
 -1.91049882E+01  0.00000000E+00  9.55249411E+00  9.55249411E+00 -1.91049882E+01
  0.00000000E+00  9.55249411E+00  9.55249411E+00 -1.91049882E+01  0.00000000E+00
  9.55249411E+00  9.55249411E+00 -1.91049882E+01  0.00000000E+00  9.55249411E+00
  9.55249411E+00 -1.91049882E+01  0.00000000E+00  9.55249411E+00  9.55249411E+00
 -1.91049882E+01  0.00000000E+00  9.55249411E+00  9.55249411E+00 -1.91049882E+01
  0.00000000E+00  9.55249411E+00  9.55249411E+00 -1.91049882E+01  0.00000000E+00
  9.55249411E+00  9.55249411E+00 -1.91049882E+01  0.00000000E+00  9.55249411E+00
  9.55249411E+00 -1.91049882E+01  0.00000000E+00  9.55249411E+00  9.55249411E+00
 -1.91049882E+01  0.00000000E+00  9.55249411E+00  9.55249411E+00 -1.91049882E+01
  0.00000000E+00  9.55249411E+00  9.55249411E+00 -1.91049882E+01  0.00000000E+00
  9.55249411E+00  9.55249411E+00 -1.91049882E+01  0.00000000E+00  9.55249411E+00
  9.55249411E+00 -1.91049882E+01  0.00000000E+00  9.55249411E+00  9.55249411E+00
 -1.91049882E+01  0.00000000E+00  9.55249411E+00  9.55249411E+00 -1.91049882E+01
  0.00000000E+00  9.55249411E+00  9.55249411E+00 -1.91049882E+01  0.00000000E+00
  9.55249411E+00  9.55249411E+00 -1.91049882E+01  0.00000000E+00  9.55249411E+00
  9.55249411E+00 -1.91049882E+01  0.00000000E+00  9.55249411E+00  9.55249411E+00
 -1.91049882E+01  0.00000000E+00  9.55249411E+00  9.55249411E+00 -1.91049882E+01
  0.00000000E+00  9.55249411E+00  9.55249411E+00 -1.91049882E+01  0.00000000E+00
  9.55249411E+00  9.55249411E+00 -1.91049882E+01  0.00000000E+00  9.55249411E+00
  9.55249411E+00 -1.91049882E+01  0.00000000E+00  9.55249411E+00  9.55249411E+00
 -1.91049882E+01  0.00000000E+00  9.55249411E+00  9.55249411E+00 -1.91049882E+01
  0.00000000E+00  9.55249411E+00  9.55249411E+00 -1.91049882E+01  0.00000000E+00
  9.55249411E+00  9.55249411E+00 -1.91049882E+01  0.00000000E+00  9.55249411E+00
  9.55249411E+00 -1.91049882E+01  0.00000000E+00  9.55249411E+00  9.55249411E+00
 -1.91049882E+01  0.00000000E+00  9.55249411E+00  9.55249411E+00 -1.91049882E+01
  0.00000000E+00  9.55249411E+00  9.55249411E+00 -1.91049882E+01  0.00000000E+00
  9.55249411E+00  9.55249411E+00 -1.91049882E+01  0.00000000E+00  9.55249411E+00
  9.55249411E+00 -1.91049882E+01  0.00000000E+00  9.55249411E+00  9.55249411E+00
 -1.91049882E+01  0.00000000E+00  9.55249411E+00  9.55249411E+00 -1.91049882E+01
  0.00000000E+00  9.55249411E+00  9.55249411E+00 -1.91049882E+01  0.00000000E+00
  9.55249411E+00  9.55249411E+00 -1.91049882E+01  0.00000000E+00  9.55249411E+00
  9.55249411E+00 -1.91049882E+01  0.00000000E+00  9.55249411E+00  9.55249411E+00
 -1.91049882E+01  0.00000000E+00  9.55249411E+00  9.55249411E+00 -1.91049882E+01
  0.00000000E+00  9.55249411E+00  9.55249411E+00 -1.91049882E+01  0.00000000E+00
  9.55249411E+00  9.55249411E+00 -1.91049882E+01  0.00000000E+00  9.55249411E+00
  9.55249411E+00 -1.91049882E+01  0.00000000E+00  9.55249411E+00  9.55249411E+00
 -1.91049882E+01  0.00000000E+00  9.55249411E+00  9.55249411E+00 -1.91049882E+01
  0.00000000E+00  9.55249411E+00  9.55249411E+00 -1.91049882E+01  0.00000000E+00
  9.55249411E+00  9.55249411E+00 -1.91049882E+01  0.00000000E+00  9.55249411E+00
  9.55249411E+00 -1.91049882E+01  0.00000000E+00  9.55249411E+00  9.55249411E+00
 -1.91049882E+01  0.00000000E+00  9.55249411E+00  9.55249411E+00 -1.91049882E+01
  0.00000000E+00  9.55249411E+00  9.55249411E+00 -1.91049882E+01  0.00000000E+00
  9.55249411E+00  9.55249411E+00 -1.91049882E+01  0.00000000E+00  9.55249411E+00
  9.55249411E+00 -1.91049882E+01  0.00000000E+00  9.55249411E+00  9.55249411E+00
 -1.91049882E+01  0.00000000E+00  9.55249411E+00  9.55249411E+00 -1.91049882E+01
  0.00000000E+00  9.55249411E+00  9.55249411E+00 -1.91049882E+01  0.00000000E+00
  9.55249411E+00  9.55249411E+00 -1.91049882E+01  0.00000000E+00  9.55249411E+00
  9.55249411E+00 -1.91049882E+01  0.00000000E+00  9.55249411E+00  9.55249411E+00
 -1.91049882E+01  0.00000000E+00  9.55249411E+00  9.55249411E+00 -1.91049882E+01
  0.00000000E+00  9.55249411E+00  9.55249411E+00 -1.91049882E+01  0.00000000E+00
  9.55249411E+00  9.55249411E+00 -1.91049882E+01  0.00000000E+00  9.55249411E+00
  9.55249411E+00 -1.91049882E+01  0.00000000E+00  9.55249411E+00  9.55249411E+00
 -1.91049882E+01  0.00000000E+00  9.55249411E+00  9.55249411E+00 -1.91049882E+01
  0.00000000E+00  9.55249411E+00  9.55249411E+00 -1.91049882E+01  0.00000000E+00
  9.55249411E+00  9.55249411E+00 -1.91049882E+01  0.00000000E+00  9.55249411E+00
  9.55249411E+00 -1.91049882E+01  0.00000000E+00  9.55249411E+00  9.55249411E+00
 -1.91049882E+01  0.00000000E+00  9.55249411E+00  9.55249411E+00 -1.91049882E+01
  0.00000000E+00  9.55249411E+00  9.55249411E+00 -1.91049882E+01  0.00000000E+00
  9.55249411E+00  9.55249411E+00 -1.91049882E+01  0.00000000E+00  9.55249411E+00
  9.55249411E+00 -1.91049882E+01  0.00000000E+00  9.55249411E+00  9.55249411E+00
 -1.91049882E+01  0.00000000E+00  9.55249411E+00  9.55249411E+00 -1.91049882E+01
  0.00000000E+00  9.55249411E+00  9.55249411E+00 -1.91049882E+01  0.00000000E+00
  9.55249411E+00  9.55249411E+00 -1.91049882E+01  0.00000000E+00  9.55249411E+00
  9.55249411E+00 -1.91049882E+01  0.00000000E+00  9.55249411E+00  9.55249411E+00
 -1.91049882E+01  0.00000000E+00  9.55249411E+00  9.55249411E+00 -1.91049882E+01
  0.00000000E+00  9.55249411E+00  9.55249411E+00 -1.91049882E+01  0.00000000E+00
  9.55249411E+00  9.55249411E+00 -1.91049882E+01  0.00000000E+00  9.55249411E+00
  9.55249411E+00 -1.91049882E+01  0.00000000E+00  9.55249411E+00  9.55249411E+00
 -1.91049882E+01  0.00000000E+00  9.55249411E+00  9.55249411E+00 -1.91049882E+01
  0.00000000E+00  9.55249411E+00  9.55249411E+00 -1.91049882E+01  0.00000000E+00
  9.55249411E+00  9.55249411E+00 -1.91049882E+01  0.00000000E+00  9.55249411E+00
  9.55249411E+00 -1.91049882E+01  0.00000000E+00  9.55249411E+00  9.55249411E+00
 -1.91049882E+01  0.00000000E+00  9.55249411E+00  9.55249411E+00 -1.91049882E+01
  0.00000000E+00  9.55249411E+00  9.55249411E+00 -1.91049882E+01  0.00000000E+00
  9.55249411E+00  9.55249411E+00 -1.91049882E+01  0.00000000E+00  9.55249411E+00
  9.55249411E+00 -1.91049882E+01  0.00000000E+00  9.55249411E+00  9.55249411E+00
 -1.91049882E+01  0.00000000E+00  9.55249411E+00  9.55249411E+00 -1.91049882E+01
  0.00000000E+00  9.55249411E+00  9.55249411E+00 -1.91049882E+01  0.00000000E+00
  9.55249411E+00  9.55249411E+00 -1.91049882E+01  0.00000000E+00  9.55249411E+00
  9.55249411E+00 -1.91049882E+01  0.00000000E+00  9.55249411E+00  9.55249411E+00
 -1.91049882E+01  0.00000000E+00  9.55249411E+00  9.55249411E+00 -1.91049882E+01
  0.00000000E+00  9.55249411E+00  9.55249411E+00 -1.91049882E+01  0.00000000E+00
  9.55249411E+00  9.55249411E+00 -1.91049882E+01  0.00000000E+00  9.55249411E+00
  9.55249411E+00 -1.91049882E+01  0.00000000E+00  9.55249411E+00  9.55249411E+00
 -1.91049882E+01  0.00000000E+00  9.55249411E+00  9.55249411E+00 -1.91049882E+01
  0.00000000E+00  9.55249411E+00  9.55249411E+00 -1.91049882E+01  0.00000000E+00
  9.55249411E+00  9.55249411E+00 -1.91049882E+01  0.00000000E+00  9.55249411E+00
  9.55249411E+00 -1.91049882E+01  0.00000000E+00  9.55249411E+00  9.55249411E+00
 -1.91049882E+01  0.00000000E+00  9.55249411E+00  9.55249411E+00 -1.91049882E+01
  0.00000000E+00  9.55249411E+00  9.55249411E+00 -1.91049882E+01  0.00000000E+00
  9.55249411E+00  9.55249411E+00 -1.91049882E+01  0.00000000E+00  9.55249411E+00
  9.55249411E+00 -1.91049882E+01  0.00000000E+00  9.55249411E+00  9.55249411E+00
 -1.91049882E+01  0.00000000E+00  9.55249411E+00  9.55249411E+00 -1.91049882E+01
  0.00000000E+00  9.55249411E+00  9.55249411E+00 -1.91049882E+01  0.00000000E+00
  9.55249411E+00  9.55249411E+00 -1.91049882E+01  0.00000000E+00  9.55249411E+00
  9.55249411E+00 -1.91049882E+01  0.00000000E+00  9.55249411E+00  9.55249411E+00
 -1.91049882E+01  0.00000000E+00  9.55249411E+00  9.55249411E+00 -1.91049882E+01
  0.00000000E+00  9.55249411E+00  9.55249411E+00 -1.91049882E+01  0.00000000E+00
  9.55249411E+00  9.55249411E+00 -1.91049882E+01  0.00000000E+00  9.55249411E+00
  9.55249411E+00 -1.91049882E+01  0.00000000E+00  9.55249411E+00  9.55249411E+00
 -1.91049882E+01  0.00000000E+00  9.55249411E+00  9.55249411E+00 -1.91049882E+01
  0.00000000E+00  9.55249411E+00  9.55249411E+00 -1.91049882E+01  0.00000000E+00
  9.55249411E+00  9.55249411E+00 -1.91049882E+01  0.00000000E+00  9.55249411E+00
  9.55249411E+00 -1.91049882E+01  0.00000000E+00  9.55249411E+00  9.55249411E+00
 -1.91049882E+01  0.00000000E+00  9.55249411E+00  9.55249411E+00 -1.91049882E+01
  0.00000000E+00  9.55249411E+00  9.55249411E+00 -1.91049882E+01  0.00000000E+00
  9.55249411E+00  9.55249411E+00 -1.91049882E+01  0.00000000E+00  9.55249411E+00
  9.55249411E+00 -1.91049882E+01  0.00000000E+00  9.55249411E+00  9.55249411E+00
 -1.91049882E+01  0.00000000E+00  9.55249411E+00  9.55249411E+00 -1.91049882E+01
  0.00000000E+00  9.55249411E+00  9.55249411E+00 -1.91049882E+01  0.00000000E+00
  9.55249411E+00  9.55249411E+00 -1.91049882E+01  0.00000000E+00  9.55249411E+00
  9.55249411E+00 -1.91049882E+01  0.00000000E+00  9.55249411E+00  9.55249411E+00
 -1.91049882E+01  0.00000000E+00  9.55249411E+00  9.55249411E+00 -1.91049882E+01
  0.00000000E+00  9.55249411E+00  9.55249411E+00 -1.91049882E+01  0.00000000E+00
  9.55249411E+00  9.55249411E+00 -1.91049882E+01  0.00000000E+00  9.55249411E+00
  9.55249411E+00 -1.91049882E+01  0.00000000E+00  9.55249411E+00  9.55249411E+00
 -1.91049882E+01  0.00000000E+00  9.55249411E+00  9.55249411E+00 -1.91049882E+01
  0.00000000E+00  9.55249411E+00  9.55249411E+00 -1.91049882E+01  0.00000000E+00
  9.55249411E+00  9.55249411E+00 -1.91049882E+01  0.00000000E+00  9.55249411E+00
  9.55249411E+00 -1.91049882E+01  0.00000000E+00  9.55249411E+00  9.55249411E+00
 -1.91049882E+01  0.00000000E+00  9.55249411E+00  9.55249411E+00 -1.91049882E+01
  0.00000000E+00  9.55249411E+00  9.55249411E+00 -1.91049882E+01  0.00000000E+00
  9.55249411E+00  9.55249411E+00 -1.91049882E+01  0.00000000E+00  9.55249411E+00
  9.55249411E+00 -1.91049882E+01  0.00000000E+00  9.55249411E+00  9.55249411E+00
 -1.91049882E+01  0.00000000E+00  9.55249411E+00  9.55249411E+00 -1.91049882E+01
  0.00000000E+00  9.55249411E+00  9.55249411E+00 -1.91049882E+01  0.00000000E+00
  9.55249411E+00  9.55249411E+00 -1.91049882E+01  0.00000000E+00  9.55249411E+00
  9.55249411E+00 -1.91049882E+01  0.00000000E+00  9.55249411E+00  9.55249411E+00
 -1.91049882E+01  0.00000000E+00  9.55249411E+00  9.55249411E+00 -1.91049882E+01
  0.00000000E+00  9.55249411E+00  9.55249411E+00 -1.91049882E+01  0.00000000E+00
  9.55249411E+00  9.55249411E+00 -1.91049882E+01  0.00000000E+00  9.55249411E+00
  9.55249411E+00 -1.91049882E+01  0.00000000E+00  9.55249411E+00  9.55249411E+00
 -1.91049882E+01  0.00000000E+00  9.55249411E+00  9.55249411E+00 -1.91049882E+01
  0.00000000E+00  9.55249411E+00  9.55249411E+00 -1.91049882E+01  0.00000000E+00
  9.55249411E+00  9.55249411E+00 -1.91049882E+01  0.00000000E+00  9.55249411E+00
  9.55249411E+00 -1.91049882E+01  0.00000000E+00  9.55249411E+00  9.55249411E+00
 -1.91049882E+01  0.00000000E+00  9.55249411E+00  9.55249411E+00 -1.91049882E+01
  0.00000000E+00  9.55249411E+00  9.55249411E+00 -1.91049882E+01  0.00000000E+00
  9.55249411E+00  9.55249411E+00 -1.91049882E+01  0.00000000E+00  9.55249411E+00
  9.55249411E+00 -1.91049882E+01  0.00000000E+00  9.55249411E+00  9.55249411E+00
 -1.91049882E+01  0.00000000E+00  9.55249411E+00  9.55249411E+00 -1.91049882E+01
  0.00000000E+00  9.55249411E+00  9.55249411E+00 -1.91049882E+01  0.00000000E+00
  9.55249411E+00  9.55249411E+00 -1.91049882E+01  0.00000000E+00  9.55249411E+00
  9.55249411E+00 -1.91049882E+01  0.00000000E+00  9.55249411E+00  9.55249411E+00
 -1.91049882E+01  0.00000000E+00  9.55249411E+00  9.55249411E+00 -1.91049882E+01
  0.00000000E+00  9.55249411E+00  9.55249411E+00 -1.91049882E+01  0.00000000E+00
  9.55249411E+00  9.55249411E+00 -1.91049882E+01  0.00000000E+00  9.55249411E+00
  9.55249411E+00 -1.91049882E+01  0.00000000E+00  9.55249411E+00  9.55249411E+00
 -1.91049882E+01  0.00000000E+00  9.55249411E+00  9.55249411E+00 -1.91049882E+01
  0.00000000E+00  9.55249411E+00  9.55249411E+00 -1.91049882E+01  0.00000000E+00
  9.55249411E+00  9.55249411E+00 -1.91049882E+01  0.00000000E+00  9.55249411E+00
  9.55249411E+00 -1.91049882E+01  0.00000000E+00  9.55249411E+00  9.55249411E+00
 -1.91049882E+01  0.00000000E+00  9.55249411E+00  9.55249411E+00 -1.91049882E+01
  0.00000000E+00  9.55249411E+00  9.55249411E+00 -1.91049882E+01  0.00000000E+00
  9.55249411E+00  9.55249411E+00 -1.91049882E+01  0.00000000E+00  9.55249411E+00
  9.55249411E+00 -1.91049882E+01  0.00000000E+00  9.55249411E+00  9.55249411E+00
 -1.91049882E+01  0.00000000E+00  9.55249411E+00  9.55249411E+00 -1.91049882E+01
  0.00000000E+00  9.55249411E+00  9.55249411E+00 -1.91049882E+01  0.00000000E+00
  9.55249411E+00  9.55249411E+00 -1.91049882E+01  0.00000000E+00  9.55249411E+00
  9.55249411E+00 -1.91049882E+01  0.00000000E+00  9.55249411E+00  9.55249411E+00
 -1.91049882E+01  0.00000000E+00  9.55249411E+00  9.55249411E+00 -1.91049882E+01
  0.00000000E+00  9.55249411E+00  9.55249411E+00 -1.91049882E+01  0.00000000E+00
  9.55249411E+00  9.55249411E+00 -1.91049882E+01  0.00000000E+00  9.55249411E+00
  9.55249411E+00 -1.91049882E+01  0.00000000E+00  9.55249411E+00  9.55249411E+00
 -1.91049882E+01  0.00000000E+00  9.55249411E+00  9.55249411E+00 -1.91049882E+01
  0.00000000E+00  9.55249411E+00  9.55249411E+00 -1.91049882E+01  0.00000000E+00
  9.55249411E+00  9.55249411E+00 -1.91049882E+01  0.00000000E+00  9.55249411E+00
  9.55249411E+00 -1.91049882E+01  0.00000000E+00  9.55249411E+00  9.55249411E+00
 -1.91049882E+01  0.00000000E+00  9.55249411E+00  9.55249411E+00 -1.91049882E+01
  0.00000000E+00  9.55249411E+00  9.55249411E+00 -1.91049882E+01  0.00000000E+00
  9.55249411E+00  9.55249411E+00 -1.91049882E+01  0.00000000E+00  9.55249411E+00
  9.55249411E+00 -1.91049882E+01  0.00000000E+00  9.55249411E+00  9.55249411E+00
 -1.91049882E+01  0.00000000E+00  9.55249411E+00  9.55249411E+00 -1.91049882E+01
  0.00000000E+00  9.55249411E+00  9.55249411E+00 -1.91049882E+01  0.00000000E+00
  9.55249411E+00  9.55249411E+00 -1.91049882E+01  0.00000000E+00  9.55249411E+00
  9.55249411E+00 -1.91049882E+01  0.00000000E+00  9.55249411E+00  9.55249411E+00
 -1.91049882E+01  0.00000000E+00  9.55249411E+00  9.55249411E+00 -1.91049882E+01
  0.00000000E+00  9.55249411E+00  9.55249411E+00 -1.91049882E+01  0.00000000E+00
  9.55249411E+00  9.55249411E+00 -1.91049882E+01  0.00000000E+00  9.55249411E+00
  9.55249411E+00 -1.91049882E+01  0.00000000E+00  9.55249411E+00  9.55249411E+00
 -1.91049882E+01  0.00000000E+00  9.55249411E+00  9.55249411E+00 -1.91049882E+01
  0.00000000E+00  9.55249411E+00  9.55249411E+00 -1.91049882E+01  0.00000000E+00
  9.55249411E+00  9.55249411E+00 -1.91049882E+01  0.00000000E+00  9.55249411E+00
  9.55249411E+00 -1.91049882E+01  0.00000000E+00  9.55249411E+00  9.55249411E+00
 -1.91049882E+01  0.00000000E+00  9.55249411E+00  9.55249411E+00 -1.91049882E+01
  0.00000000E+00  9.55249411E+00  9.55249411E+00 -1.91049882E+01  0.00000000E+00
  9.55249411E+00  9.55249411E+00 -1.91049882E+01  0.00000000E+00  9.55249411E+00
  9.55249411E+00 -1.91049882E+01  0.00000000E+00  9.55249411E+00  9.55249411E+00
 -1.91049882E+01  0.00000000E+00  9.55249411E+00  9.55249411E+00 -1.91049882E+01
  0.00000000E+00  9.55249411E+00  9.55249411E+00 -1.91049882E+01  0.00000000E+00
  9.55249411E+00  9.55249411E+00 -1.91049882E+01  0.00000000E+00  9.55249411E+00
  9.55249411E+00 -1.91049882E+01  0.00000000E+00  9.55249411E+00  9.55249411E+00
 -1.91049882E+01  0.00000000E+00  9.55249411E+00  9.55249411E+00 -1.91049882E+01
  0.00000000E+00  9.55249411E+00  9.55249411E+00 -1.91049882E+01  0.00000000E+00
  9.55249411E+00  9.55249411E+00 -1.91049882E+01  0.00000000E+00  9.55249411E+00
  9.55249411E+00 -1.91049882E+01  0.00000000E+00  9.55249411E+00  9.55249411E+00
 -1.91049882E+01  0.00000000E+00  9.55249411E+00  9.55249411E+00 -1.91049882E+01
  0.00000000E+00  9.55249411E+00  9.55249411E+00 -1.91049882E+01  0.00000000E+00
  9.55249411E+00  9.55249411E+00 -1.91049882E+01  0.00000000E+00  9.55249411E+00
  9.55249411E+00 -1.91049882E+01  0.00000000E+00  9.55249411E+00  9.55249411E+00
 -1.91049882E+01  0.00000000E+00  9.55249411E+00  9.55249411E+00 -1.91049882E+01
  0.00000000E+00  9.55249411E+00  9.55249411E+00 -1.91049882E+01  0.00000000E+00
  9.55249411E+00  9.55249411E+00 -1.91049882E+01  0.00000000E+00  9.55249411E+00
  9.55249411E+00 -1.91049882E+01  0.00000000E+00  9.55249411E+00  9.55249411E+00
 -1.91049882E+01  0.00000000E+00  9.55249411E+00  9.55249411E+00 -1.91049882E+01
  0.00000000E+00  9.55249411E+00  9.55249411E+00 -1.91049882E+01  0.00000000E+00
  9.55249411E+00  9.55249411E+00 -1.91049882E+01  0.00000000E+00  9.55249411E+00
  9.55249411E+00 -1.91049882E+01  0.00000000E+00  9.55249411E+00  9.55249411E+00
 -1.91049882E+01  0.00000000E+00  9.55249411E+00  9.55249411E+00 -1.91049882E+01
  0.00000000E+00  9.55249411E+00  9.55249411E+00 -1.91049882E+01  0.00000000E+00
  9.55249411E+00  9.55249411E+00 -1.91049882E+01  0.00000000E+00  9.55249411E+00
  9.55249411E+00 -1.91049882E+01  0.00000000E+00  9.55249411E+00  9.55249411E+00
 -1.91049882E+01  0.00000000E+00  9.55249411E+00  9.55249411E+00 -1.91049882E+01
  0.00000000E+00  9.55249411E+00  9.55249411E+00 -1.91049882E+01  0.00000000E+00
  9.55249411E+00  9.55249411E+00 -1.91049882E+01  0.00000000E+00  9.55249411E+00
  9.55249411E+00 -1.91049882E+01  0.00000000E+00  9.55249411E+00  9.55249411E+00
 -1.91049882E+01  0.00000000E+00  9.55249411E+00  9.55249411E+00 -1.91049882E+01
  0.00000000E+00  9.55249411E+00  9.55249411E+00 -1.91049882E+01  0.00000000E+00
  9.55249411E+00  9.55249411E+00 -1.91049882E+01  0.00000000E+00  9.55249411E+00
  9.55249411E+00 -1.91049882E+01  0.00000000E+00  9.55249411E+00  9.55249411E+00
 -1.91049882E+01  0.00000000E+00  9.55249411E+00  9.55249411E+00 -1.91049882E+01
  0.00000000E+00  9.55249411E+00  9.55249411E+00 -1.91049882E+01  0.00000000E+00
  9.55249411E+00  9.55249411E+00 -1.91049882E+01  0.00000000E+00  9.55249411E+00
  9.55249411E+00 -1.91049882E+01  0.00000000E+00  9.55249411E+00  9.55249411E+00
 -1.91049882E+01  0.00000000E+00  9.55249411E+00  9.55249411E+00 -1.91049882E+01
  0.00000000E+00  9.55249411E+00  9.55249411E+00 -1.91049882E+01  0.00000000E+00
  9.55249411E+00  9.55249411E+00 -1.91049882E+01  0.00000000E+00  9.55249411E+00
  9.55249411E+00 -1.91049882E+01  0.00000000E+00  9.55249411E+00  9.55249411E+00
 -1.91049882E+01  0.00000000E+00  9.55249411E+00  9.55249411E+00 -1.91049882E+01
  0.00000000E+00  9.55249411E+00  9.55249411E+00 -1.91049882E+01  0.00000000E+00
  9.55249411E+00  9.55249411E+00 -1.91049882E+01  0.00000000E+00  9.55249411E+00
  9.55249411E+00 -1.91049882E+01  0.00000000E+00  9.55249411E+00  9.55249411E+00
 -1.91049882E+01  0.00000000E+00  9.55249411E+00  9.55249411E+00 -1.91049882E+01
  0.00000000E+00  9.55249411E+00  9.55249411E+00 -1.91049882E+01  0.00000000E+00
  9.55249411E+00  9.55249411E+00 -1.91049882E+01  0.00000000E+00  9.55249411E+00
  9.55249411E+00 -1.91049882E+01  0.00000000E+00  9.55249411E+00  9.55249411E+00
 -1.91049882E+01  0.00000000E+00  9.55249411E+00  9.55249411E+00 -1.91049882E+01
  0.00000000E+00  9.55249411E+00  9.55249411E+00 -1.91049882E+01  0.00000000E+00
  9.55249411E+00  9.55249411E+00 -1.91049882E+01  0.00000000E+00  9.55249411E+00
  9.55249411E+00 -1.91049882E+01  0.00000000E+00  9.55249411E+00  9.55249411E+00
 -1.91049882E+01  0.00000000E+00  9.55249411E+00  9.55249411E+00 -1.91049882E+01
  0.00000000E+00  9.55249411E+00  9.55249411E+00 -1.91049882E+01  0.00000000E+00
  9.55249411E+00  9.55249411E+00 -1.91049882E+01  0.00000000E+00  9.55249411E+00
  9.55249411E+00 -1.91049882E+01  0.00000000E+00  9.55249411E+00  9.55249411E+00
 -1.91049882E+01  0.00000000E+00  9.55249411E+00  9.55249411E+00 -1.91049882E+01
  0.00000000E+00  9.55249411E+00  9.55249411E+00 -1.91049882E+01  0.00000000E+00
  9.55249411E+00  9.55249411E+00 -1.91049882E+01  0.00000000E+00  9.55249411E+00
  9.55249411E+00 -1.91049882E+01  0.00000000E+00  9.55249411E+00  9.55249411E+00
 -1.91049882E+01  0.00000000E+00  9.55249411E+00  9.55249411E+00 -1.91049882E+01
  0.00000000E+00  9.55249411E+00  9.55249411E+00 -1.91049882E+01  0.00000000E+00
  9.55249411E+00  9.55249411E+00 -1.91049882E+01  0.00000000E+00  9.55249411E+00
  9.55249411E+00 -1.91049882E+01  0.00000000E+00  9.55249411E+00  9.55249411E+00
 -1.91049882E+01  0.00000000E+00  9.55249411E+00  9.55249411E+00 -1.91049882E+01
  0.00000000E+00  9.55249411E+00  9.55249411E+00 -1.91049882E+01  0.00000000E+00
  9.55249411E+00  9.55249411E+00 -1.91049882E+01  0.00000000E+00  9.55249411E+00
  9.55249411E+00 -1.91049882E+01  0.00000000E+00  9.55249411E+00  9.55249411E+00
 -1.91049882E+01  0.00000000E+00  9.55249411E+00  9.55249411E+00 -1.91049882E+01
  0.00000000E+00  9.55249411E+00  9.55249411E+00 -1.91049882E+01  0.00000000E+00
  9.55249411E+00  9.55249411E+00 -1.91049882E+01  0.00000000E+00  9.55249411E+00
  9.55249411E+00 -1.91049882E+01  0.00000000E+00  9.55249411E+00  9.55249411E+00
 -1.91049882E+01  0.00000000E+00  9.55249411E+00  9.55249411E+00 -1.91049882E+01
  0.00000000E+00  9.55249411E+00  9.55249411E+00 -1.91049882E+01  0.00000000E+00
  9.55249411E+00  9.55249411E+00 -1.91049882E+01  0.00000000E+00  9.55249411E+00
  9.55249411E+00 -1.91049882E+01  0.00000000E+00  9.55249411E+00  9.55249411E+00
 -1.91049882E+01  0.00000000E+00  9.55249411E+00  9.55249411E+00 -1.91049882E+01
  0.00000000E+00  9.55249411E+00  9.55249411E+00 -1.91049882E+01  0.00000000E+00
  9.55249411E+00  9.55249411E+00 -1.91049882E+01  0.00000000E+00  9.55249411E+00
  9.55249411E+00 -1.91049882E+01  0.00000000E+00  9.55249411E+00  9.55249411E+00
 -1.91049882E+01  0.00000000E+00  9.55249411E+00  9.55249411E+00 -1.91049882E+01
  0.00000000E+00  9.55249411E+00  9.55249411E+00 -1.91049882E+01  0.00000000E+00
  9.55249411E+00  9.55249411E+00 -1.91049882E+01  0.00000000E+00  9.55249411E+00
  9.55249411E+00 -1.91049882E+01  0.00000000E+00  9.55249411E+00  9.55249411E+00
 -1.91049882E+01  0.00000000E+00  9.55249411E+00  9.55249411E+00 -1.91049882E+01
  0.00000000E+00  9.55249411E+00  9.55249411E+00 -1.91049882E+01  0.00000000E+00
  9.55249411E+00  9.55249411E+00 -1.91049882E+01  0.00000000E+00  9.55249411E+00
  9.55249411E+00 -1.91049882E+01  0.00000000E+00  9.55249411E+00  9.55249411E+00
 -1.91049882E+01  0.00000000E+00  9.55249411E+00  9.55249411E+00 -1.91049882E+01
  0.00000000E+00  9.55249411E+00  9.55249411E+00 -1.91049882E+01  0.00000000E+00
  9.55249411E+00  9.55249411E+00 -1.91049882E+01  0.00000000E+00  9.55249411E+00
  9.55249411E+00 -1.91049882E+01  0.00000000E+00  9.55249411E+00  9.55249411E+00
 -1.91049882E+01  0.00000000E+00  9.55249411E+00  9.55249411E+00 -1.91049882E+01
  0.00000000E+00  9.55249411E+00  9.55249411E+00 -1.91049882E+01  0.00000000E+00
  9.55249411E+00  9.55249411E+00 -1.91049882E+01  0.00000000E+00  9.55249411E+00
  9.55249411E+00 -1.91049882E+01  0.00000000E+00  9.55249411E+00  9.55249411E+00
 -1.91049882E+01  0.00000000E+00  9.55249411E+00  9.55249411E+00 -1.91049882E+01
  0.00000000E+00  9.55249411E+00  9.55249411E+00 -1.91049882E+01  0.00000000E+00
  9.55249411E+00  9.55249411E+00 -1.91049882E+01  0.00000000E+00  9.55249411E+00
  9.55249411E+00 -1.91049882E+01  0.00000000E+00  9.55249411E+00  9.55249411E+00
 -1.91049882E+01  0.00000000E+00  9.55249411E+00  9.55249411E+00 -1.91049882E+01
  0.00000000E+00  9.55249411E+00  9.55249411E+00 -1.91049882E+01  0.00000000E+00
  9.55249411E+00  9.55249411E+00 -1.91049882E+01  0.00000000E+00  9.55249411E+00
  9.55249411E+00 -1.91049882E+01  0.00000000E+00  9.55249411E+00  9.55249411E+00
 -1.91049882E+01  0.00000000E+00  9.55249411E+00  9.55249411E+00 -1.91049882E+01
  0.00000000E+00  9.55249411E+00  9.55249411E+00 -1.91049882E+01  0.00000000E+00
  9.55249411E+00  9.55249411E+00 -1.91049882E+01  0.00000000E+00  9.55249411E+00
  9.55249411E+00 -1.91049882E+01  0.00000000E+00  9.55249411E+00  9.55249411E+00
 -1.91049882E+01  0.00000000E+00  9.55249411E+00  9.55249411E+00 -1.91049882E+01
  0.00000000E+00  9.55249411E+00  9.55249411E+00 -1.91049882E+01  0.00000000E+00
  9.55249411E+00  9.55249411E+00 -1.91049882E+01  0.00000000E+00  9.55249411E+00
  9.55249411E+00 -1.91049882E+01  0.00000000E+00  9.55249411E+00  9.55249411E+00
 -1.91049882E+01  0.00000000E+00  9.55249411E+00  9.55249411E+00 -1.91049882E+01
  0.00000000E+00  9.55249411E+00  9.55249411E+00 -1.91049882E+01  0.00000000E+00
  9.55249411E+00  9.55249411E+00 -1.91049882E+01  0.00000000E+00  9.55249411E+00
  9.55249411E+00 -1.91049882E+01  0.00000000E+00  9.55249411E+00  9.55249411E+00
 -1.91049882E+01  0.00000000E+00  9.55249411E+00  9.55249411E+00 -1.91049882E+01
  0.00000000E+00  9.55249411E+00  9.55249411E+00 -1.91049882E+01  0.00000000E+00
  9.55249411E+00  9.55249411E+00 -1.91049882E+01  0.00000000E+00  9.55249411E+00
  9.55249411E+00 -1.91049882E+01  0.00000000E+00  9.55249411E+00  9.55249411E+00
 -1.91049882E+01  0.00000000E+00  9.55249411E+00  9.55249411E+00 -1.91049882E+01
  0.00000000E+00  9.55249411E+00  9.55249411E+00 -1.91049882E+01  0.00000000E+00
  9.55249411E+00  9.55249411E+00 -1.91049882E+01  0.00000000E+00  9.55249411E+00
  9.55249411E+00 -1.91049882E+01  0.00000000E+00  9.55249411E+00  9.55249411E+00
 -1.91049882E+01  0.00000000E+00  9.55249411E+00  9.55249411E+00 -1.91049882E+01
  0.00000000E+00  9.55249411E+00  9.55249411E+00 -1.91049882E+01  0.00000000E+00
  9.55249411E+00  9.55249411E+00 -1.91049882E+01  0.00000000E+00  9.55249411E+00
  9.55249411E+00 -1.91049882E+01  0.00000000E+00  9.55249411E+00  9.55249411E+00
 -1.91049882E+01  0.00000000E+00  9.55249411E+00  9.55249411E+00 -1.91049882E+01
  0.00000000E+00  9.55249411E+00  9.55249411E+00 -1.91049882E+01  0.00000000E+00
  9.55249411E+00  9.55249411E+00 -1.91049882E+01  0.00000000E+00  9.55249411E+00
  9.55249411E+00 -1.91049882E+01  0.00000000E+00  9.55249411E+00  9.55249411E+00
 -1.91049882E+01  0.00000000E+00  9.55249411E+00  9.55249411E+00 -1.91049882E+01
  0.00000000E+00  9.55249411E+00  9.55249411E+00 -1.91049882E+01  0.00000000E+00
  9.55249411E+00  9.55249411E+00 -1.91049882E+01  0.00000000E+00  9.55249411E+00
  9.55249411E+00 -1.91049882E+01  0.00000000E+00  9.55249411E+00  9.55249411E+00
 -1.91049882E+01  0.00000000E+00  9.55249411E+00  9.55249411E+00 -1.91049882E+01
  0.00000000E+00  9.55249411E+00  9.55249411E+00 -1.91049882E+01  0.00000000E+00
  9.55249411E+00  9.55249411E+00 -1.91049882E+01  0.00000000E+00  9.55249411E+00
  9.55249411E+00 -1.91049882E+01  0.00000000E+00  9.55249411E+00  9.55249411E+00
 -1.91049882E+01  0.00000000E+00  9.55249411E+00  9.55249411E+00 -1.91049882E+01
  0.00000000E+00  9.55249411E+00  9.55249411E+00 -1.91049882E+01  0.00000000E+00
  9.55249411E+00  9.55249411E+00 -1.91049882E+01  0.00000000E+00  9.55249411E+00
  9.55249411E+00 -1.91049882E+01  0.00000000E+00  9.55249411E+00  9.55249411E+00
 -1.91049882E+01  0.00000000E+00  9.55249411E+00  9.55249411E+00 -1.91049882E+01
  0.00000000E+00  9.55249411E+00  9.55249411E+00 -1.91049882E+01  0.00000000E+00
  9.55249411E+00  9.55249411E+00 -1.91049882E+01  0.00000000E+00  9.55249411E+00
  9.55249411E+00 -1.91049882E+01  0.00000000E+00  9.55249411E+00  9.55249411E+00
 -1.91049882E+01  0.00000000E+00  9.55249411E+00  9.55249411E+00 -1.91049882E+01
  0.00000000E+00  9.55249411E+00  9.55249411E+00 -1.91049882E+01  0.00000000E+00
  9.55249411E+00  9.55249411E+00 -1.91049882E+01  0.00000000E+00  9.55249411E+00
  9.55249411E+00 -1.91049882E+01  0.00000000E+00  9.55249411E+00  9.55249411E+00
 -1.91049882E+01  0.00000000E+00  9.55249411E+00  9.55249411E+00 -1.91049882E+01
  0.00000000E+00  9.55249411E+00  9.55249411E+00 -1.91049882E+01  0.00000000E+00
  9.55249411E+00  9.55249411E+00 -1.91049882E+01  0.00000000E+00  9.55249411E+00
  9.55249411E+00 -1.91049882E+01  0.00000000E+00  9.55249411E+00  9.55249411E+00
 -1.91049882E+01  0.00000000E+00  9.55249411E+00  9.55249411E+00 -1.91049882E+01
  0.00000000E+00  9.55249411E+00  9.55249411E+00 -1.91049882E+01  0.00000000E+00
  9.55249411E+00  9.55249411E+00 -1.91049882E+01  0.00000000E+00  9.55249411E+00
  9.55249411E+00 -1.91049882E+01  0.00000000E+00  9.55249411E+00  9.55249411E+00
 -1.91049882E+01  0.00000000E+00  9.55249411E+00  9.55249411E+00 -1.91049882E+01
  0.00000000E+00  9.55249411E+00  9.55249411E+00 -1.91049882E+01  0.00000000E+00
  9.55249411E+00  9.55249411E+00 -1.91049882E+01  0.00000000E+00  9.55249411E+00
  9.55249411E+00 -1.91049882E+01  0.00000000E+00  9.55249411E+00  9.55249411E+00
 -1.91049882E+01  0.00000000E+00  9.55249411E+00  9.55249411E+00 -1.91049882E+01
  0.00000000E+00  9.55249411E+00  9.55249411E+00 -1.91049882E+01  0.00000000E+00
  9.55249411E+00  9.55249411E+00 -1.91049882E+01  0.00000000E+00  9.55249411E+00
  9.55249411E+00 -1.91049882E+01  0.00000000E+00  9.55249411E+00  9.55249411E+00
 -1.91049882E+01  0.00000000E+00  9.55249411E+00  9.55249411E+00 -1.91049882E+01
  0.00000000E+00  9.55249411E+00  9.55249411E+00 -1.91049882E+01  0.00000000E+00
  9.55249411E+00  9.55249411E+00 -1.91049882E+01  0.00000000E+00  9.55249411E+00
  9.55249411E+00 -1.91049882E+01  0.00000000E+00  9.55249411E+00  9.55249411E+00
 -1.91049882E+01  0.00000000E+00  9.55249411E+00  9.55249411E+00 -1.91049882E+01
  0.00000000E+00  9.55249411E+00  9.55249411E+00 -1.91049882E+01  0.00000000E+00
  9.55249411E+00  9.55249411E+00 -1.91049882E+01  0.00000000E+00  9.55249411E+00
  9.55249411E+00 -1.91049882E+01  0.00000000E+00  9.55249411E+00  9.55249411E+00
 -1.91049882E+01  0.00000000E+00  9.55249411E+00  9.55249411E+00 -1.91049882E+01
  0.00000000E+00  9.55249411E+00  9.55249411E+00 -1.91049882E+01  0.00000000E+00
  9.55249411E+00  9.55249411E+00 -1.91049882E+01  0.00000000E+00  9.55249411E+00
  9.55249411E+00 -1.91049882E+01  0.00000000E+00  9.55249411E+00  9.55249411E+00
 -1.91049882E+01  0.00000000E+00  9.55249411E+00  9.55249411E+00 -1.91049882E+01
  0.00000000E+00  9.55249411E+00  9.55249411E+00 -1.91049882E+01  0.00000000E+00
  9.55249411E+00  9.55249411E+00 -1.91049882E+01  0.00000000E+00  9.55249411E+00
  9.55249411E+00 -1.91049882E+01  0.00000000E+00  9.55249411E+00  9.55249411E+00
 -1.91049882E+01  0.00000000E+00  9.55249411E+00  9.55249411E+00 -1.91049882E+01
  0.00000000E+00  9.55249411E+00  9.55249411E+00 -1.91049882E+01  0.00000000E+00
  9.55249411E+00  9.55249411E+00 -1.91049882E+01  0.00000000E+00  9.55249411E+00
  9.55249411E+00 -1.91049882E+01  0.00000000E+00  9.55249411E+00  9.55249411E+00
 -1.91049882E+01  0.00000000E+00  9.55249411E+00  9.55249411E+00 -1.91049882E+01
  0.00000000E+00  9.55249411E+00  9.55249411E+00 -1.91049882E+01  0.00000000E+00
  9.55249411E+00  9.55249411E+00 -1.91049882E+01  0.00000000E+00  9.55249411E+00
  9.55249411E+00 -1.91049882E+01  0.00000000E+00  9.55249411E+00  9.55249411E+00
 -1.91049882E+01  0.00000000E+00  9.55249411E+00  9.55249411E+00 -1.91049882E+01
  0.00000000E+00  9.55249411E+00  9.55249411E+00 -1.91049882E+01  0.00000000E+00
  9.55249411E+00  9.55249411E+00 -1.91049882E+01  0.00000000E+00  9.55249411E+00
  9.55249411E+00 -1.91049882E+01  0.00000000E+00  9.55249411E+00  9.55249411E+00
 -1.91049882E+01  0.00000000E+00  9.55249411E+00  9.55249411E+00 -1.91049882E+01
  0.00000000E+00  9.55249411E+00  9.55249411E+00 -1.91049882E+01  0.00000000E+00
  9.55249411E+00  9.55249411E+00 -1.91049882E+01  0.00000000E+00  9.55249411E+00
  9.55249411E+00 -1.91049882E+01  0.00000000E+00  9.55249411E+00  9.55249411E+00
 -1.91049882E+01  0.00000000E+00  9.55249411E+00  9.55249411E+00 -1.91049882E+01
  0.00000000E+00  9.55249411E+00  9.55249411E+00 -1.91049882E+01  0.00000000E+00
  9.55249411E+00  9.55249411E+00 -1.91049882E+01  0.00000000E+00  9.55249411E+00
  9.55249411E+00 -1.91049882E+01  0.00000000E+00  9.55249411E+00  9.55249411E+00
 -1.91049882E+01  0.00000000E+00  9.55249411E+00  9.55249411E+00 -1.91049882E+01
  0.00000000E+00  9.55249411E+00  9.55249411E+00 -1.91049882E+01  0.00000000E+00
  9.55249411E+00  9.55249411E+00 -1.91049882E+01  0.00000000E+00  9.55249411E+00
  9.55249411E+00 -1.91049882E+01  0.00000000E+00  9.55249411E+00  9.55249411E+00
 -1.91049882E+01  0.00000000E+00  9.55249411E+00  9.55249411E+00 -1.91049882E+01
  0.00000000E+00  9.55249411E+00  9.55249411E+00 -1.91049882E+01  0.00000000E+00
  9.55249411E+00  9.55249411E+00 -1.91049882E+01  0.00000000E+00  9.55249411E+00
  9.55249411E+00 -1.91049882E+01  0.00000000E+00  9.55249411E+00  9.55249411E+00
 -1.91049882E+01  0.00000000E+00  9.55249411E+00  9.55249411E+00 -1.91049882E+01
  0.00000000E+00  9.55249411E+00  9.55249411E+00 -1.91049882E+01  0.00000000E+00
  9.55249411E+00  9.55249411E+00 -1.91049882E+01  0.00000000E+00  9.55249411E+00
  9.55249411E+00 -1.91049882E+01  0.00000000E+00  9.55249411E+00  9.55249411E+00
 -1.91049882E+01  0.00000000E+00  9.55249411E+00  9.55249411E+00 -1.91049882E+01
  0.00000000E+00  9.55249411E+00  9.55249411E+00 -1.91049882E+01  0.00000000E+00
  9.55249411E+00  9.55249411E+00 -1.91049882E+01  0.00000000E+00  9.55249411E+00
  9.55249411E+00 -1.91049882E+01  0.00000000E+00  9.55249411E+00  9.55249411E+00
 -1.91049882E+01  0.00000000E+00  9.55249411E+00  9.55249411E+00 -1.91049882E+01
  0.00000000E+00  9.55249411E+00  9.55249411E+00 -1.91049882E+01  0.00000000E+00
  9.55249411E+00  9.55249411E+00 -1.91049882E+01  0.00000000E+00  9.55249411E+00
  9.55249411E+00 -1.91049882E+01  0.00000000E+00  9.55249411E+00  9.55249411E+00
 -1.91049882E+01  0.00000000E+00  9.55249411E+00  9.55249411E+00 -1.91049882E+01
  0.00000000E+00  9.55249411E+00  9.55249411E+00 -1.91049882E+01  0.00000000E+00
  9.55249411E+00  9.55249411E+00 -1.91049882E+01  0.00000000E+00  9.55249411E+00
  9.55249411E+00 -1.91049882E+01  0.00000000E+00  9.55249411E+00  9.55249411E+00
 -1.91049882E+01  0.00000000E+00  9.55249411E+00  9.55249411E+00 -1.91049882E+01
  0.00000000E+00  9.55249411E+00  9.55249411E+00 -1.91049882E+01  0.00000000E+00
  9.55249411E+00  9.55249411E+00 -1.91049882E+01  0.00000000E+00  9.55249411E+00
  9.55249411E+00 -1.91049882E+01  0.00000000E+00  9.55249411E+00  9.55249411E+00
 -1.91049882E+01  0.00000000E+00  9.55249411E+00  9.55249411E+00 -1.91049882E+01
  0.00000000E+00  9.55249411E+00  9.55249411E+00 -1.91049882E+01  0.00000000E+00
  9.55249411E+00  9.55249411E+00 -1.91049882E+01  0.00000000E+00  9.55249411E+00
  9.55249411E+00 -1.91049882E+01  0.00000000E+00  9.55249411E+00  9.55249411E+00
 -1.91049882E+01  0.00000000E+00  9.55249411E+00  9.55249411E+00 -1.91049882E+01
  0.00000000E+00  9.55249411E+00  9.55249411E+00 -1.91049882E+01  0.00000000E+00
  9.55249411E+00  9.55249411E+00 -1.91049882E+01  0.00000000E+00  9.55249411E+00
  9.55249411E+00 -1.91049882E+01  0.00000000E+00  9.55249411E+00  9.55249411E+00
 -1.91049882E+01  0.00000000E+00  9.55249411E+00  9.55249411E+00 -1.91049882E+01
  0.00000000E+00  9.55249411E+00  9.55249411E+00 -1.91049882E+01  0.00000000E+00
  9.55249411E+00  9.55249411E+00 -1.91049882E+01  0.00000000E+00  9.55249411E+00
  9.55249411E+00 -1.91049882E+01  0.00000000E+00  9.55249411E+00  9.55249411E+00
 -1.91049882E+01  0.00000000E+00  9.55249411E+00  9.55249411E+00 -1.91049882E+01
  0.00000000E+00  9.55249411E+00  9.55249411E+00 -1.91049882E+01  0.00000000E+00
  9.55249411E+00  9.55249411E+00 -1.91049882E+01  0.00000000E+00  9.55249411E+00
  9.55249411E+00 -1.91049882E+01  0.00000000E+00  9.55249411E+00  9.55249411E+00
 -1.91049882E+01  0.00000000E+00  9.55249411E+00  9.55249411E+00 -1.91049882E+01
  0.00000000E+00  9.55249411E+00  9.55249411E+00 -1.91049882E+01  0.00000000E+00
  9.55249411E+00  9.55249411E+00 -1.91049882E+01  0.00000000E+00  9.55249411E+00
  9.55249411E+00 -1.91049882E+01  0.00000000E+00  9.55249411E+00  9.55249411E+00
 -1.91049882E+01  0.00000000E+00  9.55249411E+00  9.55249411E+00 -1.91049882E+01
  0.00000000E+00  9.55249411E+00  9.55249411E+00 -1.91049882E+01  0.00000000E+00
  9.55249411E+00  9.55249411E+00 -1.91049882E+01  0.00000000E+00  9.55249411E+00
  9.55249411E+00 -1.91049882E+01  0.00000000E+00  9.55249411E+00  9.55249411E+00
 -1.91049882E+01  0.00000000E+00  9.55249411E+00  9.55249411E+00 -1.91049882E+01
  0.00000000E+00  9.55249411E+00  9.55249411E+00 -1.91049882E+01  0.00000000E+00
  9.55249411E+00  9.55249411E+00 -1.91049882E+01  0.00000000E+00  9.55249411E+00
  9.55249411E+00 -1.91049882E+01  0.00000000E+00  9.55249411E+00  9.55249411E+00
 -1.91049882E+01  0.00000000E+00  9.55249411E+00  9.55249411E+00 -1.91049882E+01
  0.00000000E+00  9.55249411E+00  9.55249411E+00 -1.91049882E+01  0.00000000E+00
  9.55249411E+00  9.55249411E+00 -1.91049882E+01  0.00000000E+00  9.55249411E+00
  9.55249411E+00 -1.91049882E+01  0.00000000E+00  9.55249411E+00  9.55249411E+00
 -1.91049882E+01  0.00000000E+00  9.55249411E+00  9.55249411E+00 -1.91049882E+01
  0.00000000E+00  9.55249411E+00  9.55249411E+00 -1.91049882E+01  0.00000000E+00
  9.55249411E+00  9.55249411E+00 -1.91049882E+01  0.00000000E+00  9.55249411E+00
  9.55249411E+00 -1.91049882E+01  0.00000000E+00  9.55249411E+00  9.55249411E+00
 -1.91049882E+01  0.00000000E+00  9.55249411E+00  9.55249411E+00 -1.91049882E+01
  0.00000000E+00  9.55249411E+00  9.55249411E+00 -1.91049882E+01  0.00000000E+00
  9.55249411E+00  9.55249411E+00 -1.91049882E+01  0.00000000E+00  9.55249411E+00
  9.55249411E+00 -1.91049882E+01  0.00000000E+00  9.55249411E+00  9.55249411E+00
 -1.91049882E+01  0.00000000E+00  9.55249411E+00  9.55249411E+00 -1.91049882E+01
  0.00000000E+00  9.55249411E+00  9.55249411E+00 -1.91049882E+01  0.00000000E+00
  9.55249411E+00  9.55249411E+00 -1.91049882E+01  0.00000000E+00  9.55249411E+00
  9.55249411E+00 -1.91049882E+01  0.00000000E+00  9.55249411E+00  9.55249411E+00
 -1.91049882E+01  0.00000000E+00  9.55249411E+00  9.55249411E+00 -1.91049882E+01
  0.00000000E+00  9.55249411E+00  9.55249411E+00 -1.91049882E+01  0.00000000E+00
  9.55249411E+00  9.55249411E+00 -1.91049882E+01  0.00000000E+00  9.55249411E+00
  9.55249411E+00 -1.91049882E+01  0.00000000E+00  9.55249411E+00  9.55249411E+00
 -1.91049882E+01  0.00000000E+00  9.55249411E+00  9.55249411E+00 -1.91049882E+01
  0.00000000E+00  9.55249411E+00  9.55249411E+00 -1.91049882E+01  0.00000000E+00
  9.55249411E+00  9.55249411E+00 -1.91049882E+01  0.00000000E+00  9.55249411E+00
  9.55249411E+00 -1.91049882E+01  0.00000000E+00  9.55249411E+00  9.55249411E+00
 -1.91049882E+01  0.00000000E+00  9.55249411E+00  9.55249411E+00 -1.91049882E+01
  0.00000000E+00  9.55249411E+00  9.55249411E+00 -1.91049882E+01  0.00000000E+00
  9.55249411E+00  9.55249411E+00 -1.91049882E+01  0.00000000E+00  9.55249411E+00
  9.55249411E+00 -1.91049882E+01  0.00000000E+00  9.55249411E+00  9.55249411E+00
 -1.91049882E+01  0.00000000E+00  9.55249411E+00  9.55249411E+00 -1.91049882E+01
  0.00000000E+00  9.55249411E+00  9.55249411E+00 -1.91049882E+01  0.00000000E+00
  9.55249411E+00  9.55249411E+00 -1.91049882E+01  0.00000000E+00  9.55249411E+00
  9.55249411E+00 -1.91049882E+01  0.00000000E+00  9.55249411E+00  9.55249411E+00
 -1.91049882E+01  0.00000000E+00  9.55249411E+00  9.55249411E+00 -1.91049882E+01
  0.00000000E+00  9.55249411E+00  9.55249411E+00 -1.91049882E+01  0.00000000E+00
  9.55249411E+00  9.55249411E+00 -1.91049882E+01  0.00000000E+00  9.55249411E+00
  9.55249411E+00 -1.91049882E+01  0.00000000E+00  9.55249411E+00  9.55249411E+00
 -1.91049882E+01  0.00000000E+00  9.55249411E+00  9.55249411E+00 -1.91049882E+01
  0.00000000E+00  9.55249411E+00  9.55249411E+00 -1.91049882E+01  0.00000000E+00
  9.55249411E+00  9.55249411E+00 -1.91049882E+01  0.00000000E+00  9.55249411E+00
  9.55249411E+00 -1.91049882E+01  0.00000000E+00  9.55249411E+00  9.55249411E+00
 -1.91049882E+01  0.00000000E+00  9.55249411E+00  9.55249411E+00 -1.91049882E+01
  0.00000000E+00  9.55249411E+00  9.55249411E+00 -1.91049882E+01  0.00000000E+00
  9.55249411E+00  9.55249411E+00 -1.91049882E+01  0.00000000E+00  9.55249411E+00
  9.55249411E+00 -1.91049882E+01  0.00000000E+00  9.55249411E+00  9.55249411E+00
 -1.91049882E+01  0.00000000E+00  9.55249411E+00  9.55249411E+00 -1.91049882E+01
  0.00000000E+00  9.55249411E+00  9.55249411E+00 -1.91049882E+01  0.00000000E+00
  9.55249411E+00  9.55249411E+00 -1.91049882E+01  0.00000000E+00  9.55249411E+00
  9.55249411E+00 -1.91049882E+01  0.00000000E+00  9.55249411E+00  9.55249411E+00
 -1.91049882E+01  0.00000000E+00  9.55249411E+00  9.55249411E+00 -1.91049882E+01
  0.00000000E+00  9.55249411E+00  9.55249411E+00 -1.91049882E+01  0.00000000E+00
  9.55249411E+00  9.55249411E+00 -1.91049882E+01  0.00000000E+00  9.55249411E+00
  9.55249411E+00 -1.91049882E+01  0.00000000E+00  9.55249411E+00  9.55249411E+00
 -1.91049882E+01  0.00000000E+00  9.55249411E+00  9.55249411E+00 -1.91049882E+01
  0.00000000E+00  9.55249411E+00  9.55249411E+00 -1.91049882E+01  0.00000000E+00
  9.55249411E+00  9.55249411E+00 -1.91049882E+01  0.00000000E+00  9.55249411E+00
  9.55249411E+00 -1.91049882E+01  0.00000000E+00  9.55249411E+00  9.55249411E+00
 -1.91049882E+01  0.00000000E+00  9.55249411E+00  9.55249411E+00 -1.91049882E+01
  0.00000000E+00  9.55249411E+00  9.55249411E+00 -1.91049882E+01  0.00000000E+00
  9.55249411E+00  9.55249411E+00 -1.91049882E+01  0.00000000E+00  9.55249411E+00
  9.55249411E+00 -1.91049882E+01  0.00000000E+00  9.55249411E+00  9.55249411E+00
 -1.91049882E+01  0.00000000E+00  9.55249411E+00  9.55249411E+00 -1.91049882E+01
  0.00000000E+00  9.55249411E+00  9.55249411E+00 -1.91049882E+01  0.00000000E+00
  9.55249411E+00  9.55249411E+00 -1.91049882E+01  0.00000000E+00  9.55249411E+00
  9.55249411E+00 -1.91049882E+01  0.00000000E+00  9.55249411E+00  9.55249411E+00
 -1.91049882E+01  0.00000000E+00  9.55249411E+00  9.55249411E+00 -1.91049882E+01
  0.00000000E+00  9.55249411E+00  9.55249411E+00 -1.91049882E+01  0.00000000E+00
  9.55249411E+00  9.55249411E+00 -1.91049882E+01  0.00000000E+00  9.55249411E+00
  9.55249411E+00 -1.91049882E+01  0.00000000E+00  9.55249411E+00  9.55249411E+00
 -1.91049882E+01  0.00000000E+00  9.55249411E+00  9.55249411E+00 -1.91049882E+01
  0.00000000E+00  9.55249411E+00  9.55249411E+00 -1.91049882E+01  0.00000000E+00
  9.55249411E+00  9.55249411E+00 -1.91049882E+01  0.00000000E+00  9.55249411E+00
  9.55249411E+00 -1.91049882E+01  0.00000000E+00  9.55249411E+00  9.55249411E+00
 -1.91049882E+01  0.00000000E+00  9.55249411E+00  9.55249411E+00 -1.91049882E+01
  0.00000000E+00  9.55249411E+00  9.55249411E+00 -1.91049882E+01  0.00000000E+00
  9.55249411E+00  9.55249411E+00 -1.91049882E+01  0.00000000E+00  9.55249411E+00
  9.55249411E+00 -1.91049882E+01  0.00000000E+00  9.55249411E+00  9.55249411E+00
 -1.91049882E+01  0.00000000E+00  9.55249411E+00  9.55249411E+00 -1.91049882E+01
  0.00000000E+00  9.55249411E+00  9.55249411E+00 -1.91049882E+01  0.00000000E+00
  9.55249411E+00  9.55249411E+00 -1.91049882E+01  0.00000000E+00  9.55249411E+00
  9.55249411E+00 -1.91049882E+01  0.00000000E+00  9.55249411E+00  9.55249411E+00
 -1.91049882E+01  0.00000000E+00  9.55249411E+00  9.55249411E+00 -1.91049882E+01
  0.00000000E+00  9.55249411E+00  9.55249411E+00 -1.91049882E+01  0.00000000E+00
  9.55249411E+00  9.55249411E+00 -1.91049882E+01  0.00000000E+00  9.55249411E+00
  9.55249411E+00 -1.91049882E+01  0.00000000E+00  9.55249411E+00  9.55249411E+00
 -1.91049882E+01  0.00000000E+00  9.55249411E+00  9.55249411E+00 -1.91049882E+01
  0.00000000E+00  9.55249411E+00  9.55249411E+00 -1.91049882E+01  0.00000000E+00
  9.55249411E+00  9.55249411E+00 -1.91049882E+01  0.00000000E+00  9.55249411E+00
  9.55249411E+00 -1.91049882E+01  0.00000000E+00  9.55249411E+00  9.55249411E+00
 -1.91049882E+01  0.00000000E+00  9.55249411E+00  9.55249411E+00 -1.91049882E+01
  0.00000000E+00  9.55249411E+00  9.55249411E+00 -1.91049882E+01  0.00000000E+00
  9.55249411E+00  9.55249411E+00 -1.91049882E+01  0.00000000E+00  9.55249411E+00
  9.55249411E+00 -1.91049882E+01  0.00000000E+00  9.55249411E+00  9.55249411E+00
 -1.91049882E+01  0.00000000E+00  9.55249411E+00  9.55249411E+00 -1.91049882E+01
  0.00000000E+00  9.55249411E+00  9.55249411E+00 -1.91049882E+01  0.00000000E+00
  9.55249411E+00  9.55249411E+00 -1.91049882E+01  0.00000000E+00  9.55249411E+00
  9.55249411E+00 -1.91049882E+01  0.00000000E+00  9.55249411E+00  9.55249411E+00
 -1.91049882E+01  0.00000000E+00  9.55249411E+00  9.55249411E+00 -1.91049882E+01
  0.00000000E+00  9.55249411E+00  9.55249411E+00 -1.91049882E+01  0.00000000E+00
  9.55249411E+00  9.55249411E+00 -1.91049882E+01  0.00000000E+00  9.55249411E+00
  9.55249411E+00 -1.91049882E+01  0.00000000E+00  9.55249411E+00  9.55249411E+00
 -1.91049882E+01  0.00000000E+00  9.55249411E+00  9.55249411E+00 -1.91049882E+01
  0.00000000E+00  9.55249411E+00  9.55249411E+00 -1.91049882E+01  0.00000000E+00
  9.55249411E+00  9.55249411E+00 -1.91049882E+01  0.00000000E+00  9.55249411E+00
  9.55249411E+00 -1.91049882E+01  0.00000000E+00  9.55249411E+00  9.55249411E+00
 -1.91049882E+01  0.00000000E+00  9.55249411E+00  9.55249411E+00 -1.91049882E+01
  0.00000000E+00  9.55249411E+00  9.55249411E+00 -1.91049882E+01  0.00000000E+00
  9.55249411E+00  9.55249411E+00 -1.91049882E+01  0.00000000E+00  9.55249411E+00
  9.55249411E+00 -1.91049882E+01  0.00000000E+00  9.55249411E+00  9.55249411E+00
 -1.91049882E+01  0.00000000E+00  9.55249411E+00  9.55249411E+00 -1.91049882E+01
  0.00000000E+00  9.55249411E+00  9.55249411E+00 -1.91049882E+01  0.00000000E+00
  9.55249411E+00  9.55249411E+00 -1.91049882E+01  0.00000000E+00  9.55249411E+00
  9.55249411E+00 -1.91049882E+01  0.00000000E+00  9.55249411E+00  9.55249411E+00
 -1.91049882E+01  0.00000000E+00  9.55249411E+00  9.55249411E+00 -1.91049882E+01
  0.00000000E+00  9.55249411E+00  9.55249411E+00 -1.91049882E+01  0.00000000E+00
  9.55249411E+00  9.55249411E+00 -1.91049882E+01  0.00000000E+00  9.55249411E+00
  9.55249411E+00 -1.91049882E+01  0.00000000E+00  9.55249411E+00  9.55249411E+00
 -1.91049882E+01  0.00000000E+00  9.55249411E+00  9.55249411E+00 -1.91049882E+01
  0.00000000E+00  9.55249411E+00  9.55249411E+00 -1.91049882E+01  0.00000000E+00
  9.55249411E+00  9.55249411E+00 -1.91049882E+01  0.00000000E+00  9.55249411E+00
  9.55249411E+00 -1.91049882E+01  0.00000000E+00  9.55249411E+00  9.55249411E+00
 -1.91049882E+01  0.00000000E+00  9.55249411E+00  9.55249411E+00 -1.91049882E+01
  0.00000000E+00  9.55249411E+00  9.55249411E+00 -1.91049882E+01  0.00000000E+00
  9.55249411E+00  9.55249411E+00 -1.91049882E+01  0.00000000E+00  9.55249411E+00
  9.55249411E+00 -1.91049882E+01  0.00000000E+00  9.55249411E+00  9.55249411E+00
 -1.91049882E+01  0.00000000E+00  9.55249411E+00  9.55249411E+00 -1.91049882E+01
  0.00000000E+00  9.55249411E+00  9.55249411E+00 -1.91049882E+01  0.00000000E+00
  9.55249411E+00  9.55249411E+00 -1.91049882E+01  0.00000000E+00  9.55249411E+00
  9.55249411E+00 -1.91049882E+01  0.00000000E+00  9.55249411E+00  9.55249411E+00
 -1.91049882E+01  0.00000000E+00  9.55249411E+00  9.55249411E+00 -1.91049882E+01
  0.00000000E+00  9.55249411E+00  9.55249411E+00 -1.91049882E+01  0.00000000E+00
  9.55249411E+00  9.55249411E+00 -1.91049882E+01  0.00000000E+00  9.55249411E+00
  9.55249411E+00 -1.91049882E+01  0.00000000E+00  9.55249411E+00  9.55249411E+00
 -1.91049882E+01  0.00000000E+00  9.55249411E+00  9.55249411E+00 -1.91049882E+01
  0.00000000E+00  9.55249411E+00  9.55249411E+00 -1.91049882E+01  0.00000000E+00
  9.55249411E+00  9.55249411E+00 -1.91049882E+01  0.00000000E+00  9.55249411E+00
  9.55249411E+00 -1.91049882E+01  0.00000000E+00  9.55249411E+00  9.55249411E+00
 -1.91049882E+01  0.00000000E+00  9.55249411E+00  9.55249411E+00 -1.91049882E+01
  0.00000000E+00  9.55249411E+00  9.55249411E+00 -1.91049882E+01  0.00000000E+00
  9.55249411E+00  9.55249411E+00 -1.91049882E+01  0.00000000E+00  9.55249411E+00
  9.55249411E+00 -1.91049882E+01  0.00000000E+00  9.55249411E+00  9.55249411E+00
 -1.91049882E+01  0.00000000E+00  9.55249411E+00  9.55249411E+00 -1.91049882E+01
  0.00000000E+00  9.55249411E+00  9.55249411E+00 -1.91049882E+01  0.00000000E+00
  9.55249411E+00  9.55249411E+00 -1.91049882E+01  0.00000000E+00  9.55249411E+00
  9.55249411E+00 -1.91049882E+01  0.00000000E+00  9.55249411E+00  9.55249411E+00
 -1.91049882E+01  0.00000000E+00  9.55249411E+00  9.55249411E+00 -1.91049882E+01
  0.00000000E+00  9.55249411E+00  9.55249411E+00 -1.91049882E+01  0.00000000E+00
  9.55249411E+00  9.55249411E+00 -1.91049882E+01  0.00000000E+00  9.55249411E+00
  9.55249411E+00 -1.91049882E+01  0.00000000E+00  9.55249411E+00  9.55249411E+00
 -1.91049882E+01  0.00000000E+00  9.55249411E+00  9.55249411E+00 -1.91049882E+01
  0.00000000E+00  9.55249411E+00  9.55249411E+00 -1.91049882E+01  0.00000000E+00
  9.55249411E+00  9.55249411E+00 -1.91049882E+01  0.00000000E+00  9.55249411E+00
  9.55249411E+00 -1.91049882E+01  0.00000000E+00  9.55249411E+00  9.55249411E+00
 -1.91049882E+01  0.00000000E+00  9.55249411E+00  9.55249411E+00 -1.91049882E+01
  0.00000000E+00  9.55249411E+00  9.55249411E+00 -1.91049882E+01  0.00000000E+00
  9.55249411E+00  9.55249411E+00 -1.91049882E+01  0.00000000E+00  9.55249411E+00
  9.55249411E+00 -1.91049882E+01  0.00000000E+00  9.55249411E+00  9.55249411E+00
 -1.91049882E+01  0.00000000E+00  9.55249411E+00  9.55249411E+00 -1.91049882E+01
  0.00000000E+00  9.55249411E+00  9.55249411E+00 -1.91049882E+01  0.00000000E+00
  9.55249411E+00  9.55249411E+00 -1.91049882E+01  0.00000000E+00  9.55249411E+00
  9.55249411E+00 -1.91049882E+01  0.00000000E+00  9.55249411E+00  9.55249411E+00
 -1.91049882E+01  0.00000000E+00  9.55249411E+00  9.55249411E+00 -1.91049882E+01
  0.00000000E+00  9.55249411E+00  9.55249411E+00 -1.91049882E+01  0.00000000E+00
  9.55249411E+00  9.55249411E+00 -1.91049882E+01  0.00000000E+00  9.55249411E+00
  9.55249411E+00 -1.91049882E+01  0.00000000E+00  9.55249411E+00  9.55249411E+00
 -1.91049882E+01  0.00000000E+00  9.55249411E+00  9.55249411E+00 -1.91049882E+01
  0.00000000E+00  9.55249411E+00  9.55249411E+00 -1.91049882E+01  0.00000000E+00
  9.55249411E+00  9.55249411E+00 -1.91049882E+01  0.00000000E+00  9.55249411E+00
  9.55249411E+00 -1.91049882E+01  0.00000000E+00  9.55249411E+00  9.55249411E+00
 -1.91049882E+01  0.00000000E+00  9.55249411E+00  9.55249411E+00 -1.91049882E+01
  0.00000000E+00  9.55249411E+00  9.55249411E+00 -1.91049882E+01  0.00000000E+00
  9.55249411E+00  9.55249411E+00 -1.91049882E+01  0.00000000E+00  9.55249411E+00
  9.55249411E+00 -1.91049882E+01  0.00000000E+00  9.55249411E+00  9.55249411E+00
 -1.91049882E+01  0.00000000E+00  9.55249411E+00  9.55249411E+00 -1.91049882E+01
  0.00000000E+00  9.55249411E+00  9.55249411E+00 -1.91049882E+01  0.00000000E+00
  9.55249411E+00  9.55249411E+00 -1.91049882E+01  0.00000000E+00  9.55249411E+00
  9.55249411E+00 -1.91049882E+01  0.00000000E+00  9.55249411E+00  9.55249411E+00
 -1.91049882E+01  0.00000000E+00  9.55249411E+00  9.55249411E+00 -1.91049882E+01
  0.00000000E+00  9.55249411E+00  9.55249411E+00 -1.91049882E+01  0.00000000E+00
  9.55249411E+00  9.55249411E+00 -1.91049882E+01  0.00000000E+00  9.55249411E+00
  9.55249411E+00 -1.91049882E+01  0.00000000E+00  9.55249411E+00  9.55249411E+00
 -1.91049882E+01  0.00000000E+00  9.55249411E+00  9.55249411E+00 -1.91049882E+01
  0.00000000E+00  9.55249411E+00  9.55249411E+00 -1.91049882E+01  0.00000000E+00
  9.55249411E+00  9.55249411E+00 -1.91049882E+01  0.00000000E+00  9.55249411E+00
  9.55249411E+00 -1.91049882E+01  0.00000000E+00  9.55249411E+00  9.55249411E+00
 -1.91049882E+01  0.00000000E+00  9.55249411E+00  9.55249411E+00 -1.91049882E+01
  0.00000000E+00  9.55249411E+00  9.55249411E+00 -1.91049882E+01  0.00000000E+00
  9.55249411E+00  9.55249411E+00 -1.91049882E+01  0.00000000E+00  9.55249411E+00
  9.55249411E+00 -1.91049882E+01  0.00000000E+00  9.55249411E+00  9.55249411E+00
 -1.91049882E+01  0.00000000E+00  9.55249411E+00  9.55249411E+00 -1.91049882E+01
  0.00000000E+00  9.55249411E+00  9.55249411E+00 -1.91049882E+01  0.00000000E+00
  9.55249411E+00  9.55249411E+00 -1.91049882E+01  0.00000000E+00  9.55249411E+00
  9.55249411E+00 -1.91049882E+01  0.00000000E+00  9.55249411E+00  9.55249411E+00
 -1.91049882E+01  0.00000000E+00  9.55249411E+00  9.55249411E+00 -1.91049882E+01
  0.00000000E+00  9.55249411E+00  9.55249411E+00 -1.91049882E+01  0.00000000E+00
  9.55249411E+00  9.55249411E+00 -1.91049882E+01  0.00000000E+00  9.55249411E+00
  9.55249411E+00 -1.91049882E+01  0.00000000E+00  9.55249411E+00  9.55249411E+00
 -1.91049882E+01  0.00000000E+00  9.55249411E+00  9.55249411E+00 -1.91049882E+01
  0.00000000E+00  9.55249411E+00  9.55249411E+00 -1.91049882E+01  0.00000000E+00
  9.55249411E+00  9.55249411E+00 -1.91049882E+01  0.00000000E+00  9.55249411E+00
  9.55249411E+00 -1.91049882E+01  0.00000000E+00  9.55249411E+00  9.55249411E+00
 -1.91049882E+01  0.00000000E+00  9.55249411E+00  9.55249411E+00 -1.91049882E+01
  0.00000000E+00  9.55249411E+00  9.55249411E+00 -1.91049882E+01  0.00000000E+00
  9.55249411E+00  9.55249411E+00 -1.91049882E+01  0.00000000E+00  9.55249411E+00
  9.55249411E+00 -1.91049882E+01  0.00000000E+00  9.55249411E+00  9.55249411E+00
 -1.91049882E+01  0.00000000E+00  9.55249411E+00  9.55249411E+00 -1.91049882E+01
  0.00000000E+00  9.55249411E+00  9.55249411E+00 -1.91049882E+01  0.00000000E+00
  9.55249411E+00  9.55249411E+00 -1.91049882E+01  0.00000000E+00  9.55249411E+00
  9.55249411E+00 -1.91049882E+01  0.00000000E+00  9.55249411E+00  9.55249411E+00
 -1.91049882E+01  0.00000000E+00  9.55249411E+00  9.55249411E+00 -1.91049882E+01
  0.00000000E+00  9.55249411E+00  9.55249411E+00 -1.91049882E+01  0.00000000E+00
  9.55249411E+00  9.55249411E+00 -1.91049882E+01  0.00000000E+00  9.55249411E+00
  9.55249411E+00 -1.91049882E+01  0.00000000E+00  9.55249411E+00  9.55249411E+00
 -1.91049882E+01  0.00000000E+00  9.55249411E+00  9.55249411E+00 -1.91049882E+01
  0.00000000E+00  9.55249411E+00  9.55249411E+00 -1.91049882E+01  0.00000000E+00
  9.55249411E+00  9.55249411E+00 -1.91049882E+01  0.00000000E+00  9.55249411E+00
  9.55249411E+00 -1.91049882E+01  0.00000000E+00  9.55249411E+00  9.55249411E+00
 -1.91049882E+01  0.00000000E+00  9.55249411E+00  9.55249411E+00 -1.91049882E+01
  0.00000000E+00  9.55249411E+00  9.55249411E+00 -1.91049882E+01  0.00000000E+00
  9.55249411E+00  9.55249411E+00 -1.91049882E+01  0.00000000E+00  9.55249411E+00
  9.55249411E+00 -1.91049882E+01  0.00000000E+00  9.55249411E+00  9.55249411E+00
 -1.91049882E+01  0.00000000E+00  9.55249411E+00  9.55249411E+00 -1.91049882E+01
  0.00000000E+00  9.55249411E+00  9.55249411E+00 -1.91049882E+01  0.00000000E+00
  9.55249411E+00  9.55249411E+00 -1.91049882E+01  0.00000000E+00  9.55249411E+00
  9.55249411E+00 -1.91049882E+01  0.00000000E+00  9.55249411E+00  9.55249411E+00
 -1.91049882E+01  0.00000000E+00  9.55249411E+00  9.55249411E+00 -1.91049882E+01
  0.00000000E+00  9.55249411E+00  9.55249411E+00 -1.91049882E+01  0.00000000E+00
  9.55249411E+00  9.55249411E+00 -1.91049882E+01  0.00000000E+00  9.55249411E+00
  9.55249411E+00 -1.91049882E+01  0.00000000E+00  9.55249411E+00  9.55249411E+00
 -1.91049882E+01  0.00000000E+00  9.55249411E+00  9.55249411E+00 -1.91049882E+01
  0.00000000E+00  9.55249411E+00  9.55249411E+00 -1.91049882E+01  0.00000000E+00
  9.55249411E+00  9.55249411E+00 -1.91049882E+01  0.00000000E+00  9.55249411E+00
  9.55249411E+00 -1.91049882E+01  0.00000000E+00  9.55249411E+00  9.55249411E+00
 -1.91049882E+01  0.00000000E+00  9.55249411E+00  9.55249411E+00 -1.91049882E+01
  0.00000000E+00  9.55249411E+00  9.55249411E+00 -1.91049882E+01  0.00000000E+00
  9.55249411E+00  9.55249411E+00 -1.91049882E+01  0.00000000E+00  9.55249411E+00
  9.55249411E+00 -1.91049882E+01  0.00000000E+00  9.55249411E+00  9.55249411E+00
 -1.91049882E+01  0.00000000E+00  9.55249411E+00  9.55249411E+00 -1.91049882E+01
  0.00000000E+00  9.55249411E+00  9.55249411E+00 -1.91049882E+01  0.00000000E+00
  9.55249411E+00  9.55249411E+00 -1.91049882E+01  0.00000000E+00  9.55249411E+00
  9.55249411E+00 -1.91049882E+01  0.00000000E+00  9.55249411E+00  9.55249411E+00
 -1.91049882E+01  0.00000000E+00  9.55249411E+00  9.55249411E+00 -1.91049882E+01
  0.00000000E+00  9.55249411E+00  9.55249411E+00 -1.91049882E+01  0.00000000E+00
  9.55249411E+00  9.55249411E+00 -1.91049882E+01  0.00000000E+00  9.55249411E+00
  9.55249411E+00 -1.91049882E+01  0.00000000E+00  9.55249411E+00  9.55249411E+00
 -1.91049882E+01  0.00000000E+00  9.55249411E+00  9.55249411E+00 -1.91049882E+01
  0.00000000E+00  9.55249411E+00  9.55249411E+00 -1.91049882E+01  0.00000000E+00
  9.55249411E+00  9.55249411E+00 -1.91049882E+01  0.00000000E+00  9.55249411E+00
  9.55249411E+00 -1.91049882E+01  0.00000000E+00  9.55249411E+00  9.55249411E+00
 -1.91049882E+01  0.00000000E+00  9.55249411E+00  9.55249411E+00 -1.91049882E+01
  0.00000000E+00  9.55249411E+00  9.55249411E+00 -1.91049882E+01  0.00000000E+00
  9.55249411E+00  9.55249411E+00 -1.91049882E+01  0.00000000E+00  9.55249411E+00
  9.55249411E+00 -1.91049882E+01  0.00000000E+00  9.55249411E+00  9.55249411E+00
 -1.91049882E+01  0.00000000E+00  9.55249411E+00  9.55249411E+00 -1.91049882E+01
  0.00000000E+00  9.55249411E+00  9.55249411E+00 -1.91049882E+01  0.00000000E+00
  9.55249411E+00  9.55249411E+00 -1.91049882E+01  0.00000000E+00  9.55249411E+00
  9.55249411E+00 -1.91049882E+01  0.00000000E+00  9.55249411E+00  9.55249411E+00
 -1.91049882E+01  0.00000000E+00  9.55249411E+00  9.55249411E+00 -1.91049882E+01
  0.00000000E+00  9.55249411E+00  9.55249411E+00 -1.91049882E+01  0.00000000E+00
  9.55249411E+00  9.55249411E+00 -1.91049882E+01  0.00000000E+00  9.55249411E+00
  9.55249411E+00 -1.91049882E+01  0.00000000E+00  9.55249411E+00  9.55249411E+00
 -1.91049882E+01  0.00000000E+00  9.55249411E+00  9.55249411E+00 -1.91049882E+01
  0.00000000E+00  9.55249411E+00  9.55249411E+00 -1.91049882E+01  0.00000000E+00
  9.55249411E+00  9.55249411E+00 -1.91049882E+01  0.00000000E+00  9.55249411E+00
  9.55249411E+00 -1.91049882E+01  0.00000000E+00  9.55249411E+00  9.55249411E+00
 -1.91049882E+01  0.00000000E+00  9.55249411E+00  9.55249411E+00 -1.91049882E+01
  0.00000000E+00  9.55249411E+00  9.55249411E+00 -1.91049882E+01  0.00000000E+00
  9.55249411E+00  9.55249411E+00 -1.91049882E+01  0.00000000E+00  9.55249411E+00
  9.55249411E+00 -1.91049882E+01  0.00000000E+00  9.55249411E+00  9.55249411E+00
 -1.91049882E+01  0.00000000E+00  9.55249411E+00  9.55249411E+00 -1.91049882E+01
  0.00000000E+00  9.55249411E+00  9.55249411E+00 -1.91049882E+01  0.00000000E+00
  9.55249411E+00  9.55249411E+00 -1.91049882E+01  0.00000000E+00  9.55249411E+00
  9.55249411E+00 -1.91049882E+01  0.00000000E+00  9.55249411E+00  9.55249411E+00
 -1.91049882E+01  0.00000000E+00  9.55249411E+00  9.55249411E+00 -1.91049882E+01
  0.00000000E+00  9.55249411E+00  9.55249411E+00 -1.91049882E+01  0.00000000E+00
  9.55249411E+00  9.55249411E+00 -1.91049882E+01  0.00000000E+00  9.55249411E+00
  9.55249411E+00 -1.91049882E+01  0.00000000E+00  9.55249411E+00  9.55249411E+00
 -1.91049882E+01  0.00000000E+00  9.55249411E+00  9.55249411E+00 -1.91049882E+01
  0.00000000E+00  9.55249411E+00  9.55249411E+00 -1.91049882E+01  0.00000000E+00
  9.55249411E+00  9.55249411E+00 -1.91049882E+01  0.00000000E+00  9.55249411E+00
  9.55249411E+00 -1.91049882E+01  0.00000000E+00  9.55249411E+00  9.55249411E+00
 -1.91049882E+01  0.00000000E+00  9.55249411E+00  9.55249411E+00 -1.91049882E+01
  0.00000000E+00  9.55249411E+00  9.55249411E+00 -1.91049882E+01  0.00000000E+00
  9.55249411E+00  9.55249411E+00 -1.91049882E+01  0.00000000E+00  9.55249411E+00
  9.55249411E+00 -1.91049882E+01  0.00000000E+00  9.55249411E+00  9.55249411E+00
 -1.91049882E+01  0.00000000E+00  9.55249411E+00  9.55249411E+00 -1.91049882E+01
  0.00000000E+00  9.55249411E+00  9.55249411E+00 -1.91049882E+01  0.00000000E+00
  9.55249411E+00  9.55249411E+00 -1.91049882E+01  0.00000000E+00  9.55249411E+00
  9.55249411E+00 -1.91049882E+01  0.00000000E+00  9.55249411E+00  9.55249411E+00
 -1.91049882E+01  0.00000000E+00  9.55249411E+00  9.55249411E+00 -1.91049882E+01
  0.00000000E+00  9.55249411E+00  9.55249411E+00 -1.91049882E+01  0.00000000E+00
  9.55249411E+00  9.55249411E+00 -1.91049882E+01  0.00000000E+00  9.55249411E+00
  9.55249411E+00 -1.91049882E+01  0.00000000E+00  9.55249411E+00  9.55249411E+00
 -1.91049882E+01  0.00000000E+00  9.55249411E+00  9.55249411E+00 -1.91049882E+01
  0.00000000E+00  9.55249411E+00  9.55249411E+00 -1.91049882E+01  0.00000000E+00
  9.55249411E+00  9.55249411E+00 -1.91049882E+01  0.00000000E+00  9.55249411E+00
  9.55249411E+00 -1.91049882E+01  0.00000000E+00  9.55249411E+00  9.55249411E+00
 -1.91049882E+01  0.00000000E+00  9.55249411E+00  9.55249411E+00 -1.91049882E+01
  0.00000000E+00  9.55249411E+00  9.55249411E+00 -1.91049882E+01  0.00000000E+00
  9.55249411E+00  9.55249411E+00 -1.91049882E+01  0.00000000E+00  9.55249411E+00
  9.55249411E+00 -1.91049882E+01  0.00000000E+00  9.55249411E+00  9.55249411E+00
 -1.91049882E+01  0.00000000E+00  9.55249411E+00  9.55249411E+00 -1.91049882E+01
  0.00000000E+00  9.55249411E+00  9.55249411E+00 -1.91049882E+01  0.00000000E+00
  9.55249411E+00  9.55249411E+00 -1.91049882E+01  0.00000000E+00  9.55249411E+00
  9.55249411E+00 -1.91049882E+01  0.00000000E+00  9.55249411E+00  9.55249411E+00
 -1.91049882E+01  0.00000000E+00  9.55249411E+00  9.55249411E+00 -1.91049882E+01
  0.00000000E+00  9.55249411E+00  9.55249411E+00 -1.91049882E+01  0.00000000E+00
  9.55249411E+00  9.55249411E+00 -1.91049882E+01  0.00000000E+00  9.55249411E+00
  9.55249411E+00 -1.91049882E+01  0.00000000E+00  9.55249411E+00  9.55249411E+00
 -1.91049882E+01  0.00000000E+00  9.55249411E+00  9.55249411E+00 -1.91049882E+01
  0.00000000E+00  9.55249411E+00  9.55249411E+00 -1.91049882E+01  0.00000000E+00
  9.55249411E+00  9.55249411E+00 -1.91049882E+01  0.00000000E+00  9.55249411E+00
  9.55249411E+00 -1.91049882E+01  0.00000000E+00  9.55249411E+00  9.55249411E+00
 -1.91049882E+01  0.00000000E+00  9.55249411E+00  9.55249411E+00 -1.91049882E+01
  0.00000000E+00  9.55249411E+00  9.55249411E+00 -1.91049882E+01  0.00000000E+00
  9.55249411E+00  9.55249411E+00 -1.91049882E+01  0.00000000E+00  9.55249411E+00
  9.55249411E+00 -1.91049882E+01  0.00000000E+00  9.55249411E+00  9.55249411E+00
 -1.91049882E+01  0.00000000E+00  9.55249411E+00  9.55249411E+00 -1.91049882E+01
  0.00000000E+00  9.55249411E+00  9.55249411E+00 -1.91049882E+01  0.00000000E+00
  9.55249411E+00  9.55249411E+00 -1.91049882E+01  0.00000000E+00  9.55249411E+00
  9.55249411E+00 -1.91049882E+01  0.00000000E+00  9.55249411E+00  9.55249411E+00
 -1.91049882E+01  0.00000000E+00  9.55249411E+00  9.55249411E+00 -1.91049882E+01
  0.00000000E+00  9.55249411E+00  9.55249411E+00 -1.91049882E+01  0.00000000E+00
  9.55249411E+00  9.55249411E+00 -1.91049882E+01  0.00000000E+00  9.55249411E+00
  9.55249411E+00 -1.91049882E+01  0.00000000E+00  9.55249411E+00  9.55249411E+00
 -1.91049882E+01  0.00000000E+00  9.55249411E+00  9.55249411E+00 -1.91049882E+01
  0.00000000E+00  9.55249411E+00  9.55249411E+00 -1.91049882E+01  0.00000000E+00
  9.55249411E+00  9.55249411E+00 -1.91049882E+01  0.00000000E+00  9.55249411E+00
  9.55249411E+00 -1.91049882E+01  0.00000000E+00  9.55249411E+00  9.55249411E+00
 -1.91049882E+01  0.00000000E+00  9.55249411E+00  9.55249411E+00 -1.91049882E+01
  0.00000000E+00  9.55249411E+00  9.55249411E+00 -1.91049882E+01  0.00000000E+00
  9.55249411E+00  9.55249411E+00 -1.91049882E+01  0.00000000E+00  9.55249411E+00
  9.55249411E+00 -1.91049882E+01  0.00000000E+00  9.55249411E+00  9.55249411E+00
 -1.91049882E+01  0.00000000E+00  9.55249411E+00  9.55249411E+00 -1.91049882E+01
  0.00000000E+00  9.55249411E+00  9.55249411E+00 -1.91049882E+01  0.00000000E+00
  9.55249411E+00  9.55249411E+00 -1.91049882E+01  0.00000000E+00  9.55249411E+00
  9.55249411E+00 -1.91049882E+01  0.00000000E+00  9.55249411E+00  9.55249411E+00
 -1.91049882E+01  0.00000000E+00  9.55249411E+00  9.55249411E+00 -1.91049882E+01
  0.00000000E+00  9.55249411E+00  9.55249411E+00 -1.91049882E+01  0.00000000E+00
  9.55249411E+00  9.55249411E+00 -1.91049882E+01  0.00000000E+00  9.55249411E+00
  9.55249411E+00 -1.91049882E+01  0.00000000E+00  9.55249411E+00  9.55249411E+00
 -1.91049882E+01  0.00000000E+00  9.55249411E+00  9.55249411E+00 -1.91049882E+01
  0.00000000E+00  9.55249411E+00  9.55249411E+00 -1.91049882E+01  0.00000000E+00
  9.55249411E+00  9.55249411E+00 -1.91049882E+01  0.00000000E+00  9.55249411E+00
  9.55249411E+00 -1.91049882E+01  0.00000000E+00  9.55249411E+00  9.55249411E+00
 -1.91049882E+01  0.00000000E+00  9.55249411E+00  9.55249411E+00 -1.91049882E+01
  0.00000000E+00  9.55249411E+00  9.55249411E+00 -1.91049882E+01  0.00000000E+00
  9.55249411E+00  9.55249411E+00 -1.91049882E+01  0.00000000E+00  9.55249411E+00
  9.55249411E+00 -1.91049882E+01  0.00000000E+00  9.55249411E+00  9.55249411E+00
 -1.91049882E+01  0.00000000E+00  9.55249411E+00  9.55249411E+00 -1.91049882E+01
  0.00000000E+00  9.55249411E+00  9.55249411E+00 -1.91049882E+01  0.00000000E+00
  9.55249411E+00  9.55249411E+00 -1.91049882E+01  0.00000000E+00  9.55249411E+00
  9.55249411E+00 -1.91049882E+01  0.00000000E+00  9.55249411E+00  9.55249411E+00
 -1.91049882E+01  0.00000000E+00  9.55249411E+00  9.55249411E+00 -1.91049882E+01
  0.00000000E+00  9.55249411E+00  9.55249411E+00 -1.91049882E+01  0.00000000E+00
  9.55249411E+00  9.55249411E+00 -1.91049882E+01  0.00000000E+00  9.55249411E+00
  9.55249411E+00 -1.91049882E+01  0.00000000E+00  9.55249411E+00  9.55249411E+00
 -1.91049882E+01  0.00000000E+00  9.55249411E+00  9.55249411E+00 -1.91049882E+01
  0.00000000E+00  9.55249411E+00  9.55249411E+00 -1.91049882E+01  0.00000000E+00
  9.55249411E+00  9.55249411E+00 -1.91049882E+01  0.00000000E+00  9.55249411E+00
  9.55249411E+00 -1.91049882E+01  0.00000000E+00  9.55249411E+00  9.55249411E+00
 -1.91049882E+01  0.00000000E+00  9.55249411E+00  9.55249411E+00 -1.91049882E+01
  0.00000000E+00  9.55249411E+00  9.55249411E+00 -1.91049882E+01  0.00000000E+00
  9.55249411E+00  9.55249411E+00 -1.91049882E+01  0.00000000E+00  9.55249411E+00
  9.55249411E+00 -1.91049882E+01  0.00000000E+00  9.55249411E+00  9.55249411E+00
 -1.91049882E+01  0.00000000E+00  9.55249411E+00  9.55249411E+00 -1.91049882E+01
  0.00000000E+00  9.55249411E+00  9.55249411E+00 -1.91049882E+01  0.00000000E+00
  9.55249411E+00  9.55249411E+00 -1.91049882E+01  0.00000000E+00  9.55249411E+00
  9.55249411E+00 -1.91049882E+01  0.00000000E+00  9.55249411E+00  9.55249411E+00
 -1.91049882E+01  0.00000000E+00  9.55249411E+00  9.55249411E+00 -1.91049882E+01
  0.00000000E+00  9.55249411E+00  9.55249411E+00 -1.91049882E+01  0.00000000E+00
  9.55249411E+00  9.55249411E+00 -1.91049882E+01  0.00000000E+00  9.55249411E+00
  9.55249411E+00 -1.91049882E+01  0.00000000E+00  9.55249411E+00  9.55249411E+00
 -1.91049882E+01  0.00000000E+00  9.55249411E+00  9.55249411E+00 -1.91049882E+01
  0.00000000E+00  9.55249411E+00  9.55249411E+00 -1.91049882E+01  0.00000000E+00
  9.55249411E+00  9.55249411E+00 -1.91049882E+01  0.00000000E+00  9.55249411E+00
  9.55249411E+00 -1.91049882E+01  0.00000000E+00  9.55249411E+00  9.55249411E+00
 -1.91049882E+01  0.00000000E+00  9.55249411E+00  9.55249411E+00 -1.91049882E+01
  0.00000000E+00  9.55249411E+00  9.55249411E+00 -1.91049882E+01  0.00000000E+00
  9.55249411E+00  9.55249411E+00 -1.91049882E+01  0.00000000E+00  9.55249411E+00
  9.55249411E+00 -1.91049882E+01  0.00000000E+00  9.55249411E+00  9.55249411E+00
 -1.91049882E+01  0.00000000E+00  9.55249411E+00  9.55249411E+00 -1.91049882E+01
  0.00000000E+00  9.55249411E+00  9.55249411E+00 -1.91049882E+01  0.00000000E+00
  9.55249411E+00  9.55249411E+00 -1.91049882E+01  0.00000000E+00  9.55249411E+00
  9.55249411E+00 -1.91049882E+01  0.00000000E+00  9.55249411E+00  9.55249411E+00
 -1.91049882E+01  0.00000000E+00  9.55249411E+00  9.55249411E+00 -1.91049882E+01
  0.00000000E+00  9.55249411E+00  9.55249411E+00 -1.91049882E+01  0.00000000E+00
  9.55249411E+00  9.55249411E+00 -1.91049882E+01  0.00000000E+00  9.55249411E+00
  9.55249411E+00 -1.91049882E+01  0.00000000E+00  9.55249411E+00  9.55249411E+00
 -1.91049882E+01  0.00000000E+00  9.55249411E+00  9.55249411E+00 -1.91049882E+01
  0.00000000E+00  9.55249411E+00  9.55249411E+00 -1.91049882E+01  0.00000000E+00
  9.55249411E+00  9.55249411E+00 -1.91049882E+01  0.00000000E+00  9.55249411E+00
  9.55249411E+00 -1.91049882E+01  0.00000000E+00  9.55249411E+00  9.55249411E+00
 -1.91049882E+01  0.00000000E+00  9.55249411E+00  9.55249411E+00 -1.91049882E+01
  0.00000000E+00  9.55249411E+00  9.55249411E+00 -1.91049882E+01  0.00000000E+00
  9.55249411E+00  9.55249411E+00 -1.91049882E+01  0.00000000E+00  9.55249411E+00
  9.55249411E+00 -1.91049882E+01  0.00000000E+00  9.55249411E+00  9.55249411E+00
 -1.91049882E+01  0.00000000E+00  9.55249411E+00  9.55249411E+00 -1.91049882E+01
  0.00000000E+00  9.55249411E+00  9.55249411E+00 -1.91049882E+01  0.00000000E+00
  9.55249411E+00  9.55249411E+00 -1.91049882E+01  0.00000000E+00  9.55249411E+00
  9.55249411E+00 -1.91049882E+01  0.00000000E+00  9.55249411E+00  9.55249411E+00
 -1.91049882E+01  0.00000000E+00  9.55249411E+00  9.55249411E+00 -1.91049882E+01
  0.00000000E+00  9.55249411E+00  9.55249411E+00 -1.91049882E+01  0.00000000E+00
  9.55249411E+00  9.55249411E+00 -1.91049882E+01  0.00000000E+00  9.55249411E+00
  9.55249411E+00 -1.91049882E+01  0.00000000E+00  9.55249411E+00  9.55249411E+00
 -1.91049882E+01  0.00000000E+00  9.55249411E+00  9.55249411E+00 -1.91049882E+01
  0.00000000E+00  9.55249411E+00  9.55249411E+00 -1.91049882E+01  0.00000000E+00
  9.55249411E+00  9.55249411E+00 -1.91049882E+01  0.00000000E+00  9.55249411E+00
  9.55249411E+00 -1.91049882E+01  0.00000000E+00  9.55249411E+00  9.55249411E+00
 -1.91049882E+01  0.00000000E+00  9.55249411E+00  9.55249411E+00 -1.91049882E+01
  0.00000000E+00  9.55249411E+00  9.55249411E+00 -1.91049882E+01  0.00000000E+00
  9.55249411E+00  9.55249411E+00 -1.91049882E+01  0.00000000E+00  9.55249411E+00
  9.55249411E+00 -1.91049882E+01  0.00000000E+00  9.55249411E+00  9.55249411E+00
 -1.91049882E+01  0.00000000E+00  9.55249411E+00  9.55249411E+00 -1.91049882E+01
  0.00000000E+00  9.55249411E+00  9.55249411E+00 -1.91049882E+01  0.00000000E+00
  9.55249411E+00  9.55249411E+00 -1.91049882E+01  0.00000000E+00  9.55249411E+00
  9.55249411E+00 -1.91049882E+01  0.00000000E+00  9.55249411E+00  9.55249411E+00
 -1.91049882E+01  0.00000000E+00  9.55249411E+00  9.55249411E+00 -1.91049882E+01
  0.00000000E+00  9.55249411E+00  9.55249411E+00 -1.91049882E+01  0.00000000E+00
  9.55249411E+00  9.55249411E+00 -1.91049882E+01  0.00000000E+00  9.55249411E+00
  9.55249411E+00 -1.91049882E+01  0.00000000E+00  9.55249411E+00  9.55249411E+00
 -1.91049882E+01  0.00000000E+00  9.55249411E+00  9.55249411E+00 -1.91049882E+01
  0.00000000E+00  9.55249411E+00  9.55249411E+00 -1.91049882E+01  0.00000000E+00
  9.55249411E+00  9.55249411E+00 -1.91049882E+01  0.00000000E+00  9.55249411E+00
  9.55249411E+00 -1.91049882E+01  0.00000000E+00  9.55249411E+00  9.55249411E+00
 -1.91049882E+01  0.00000000E+00  9.55249411E+00  9.55249411E+00 -1.91049882E+01
  0.00000000E+00  9.55249411E+00  9.55249411E+00 -1.91049882E+01  0.00000000E+00
  9.55249411E+00  9.55249411E+00 -1.91049882E+01  0.00000000E+00  9.55249411E+00
  9.55249411E+00 -1.91049882E+01  0.00000000E+00  9.55249411E+00  9.55249411E+00
 -1.91049882E+01  0.00000000E+00  9.55249411E+00  9.55249411E+00 -1.91049882E+01
  0.00000000E+00  9.55249411E+00  9.55249411E+00 -1.91049882E+01  0.00000000E+00
  9.55249411E+00  9.55249411E+00 -1.91049882E+01  0.00000000E+00  9.55249411E+00
  9.55249411E+00 -1.91049882E+01  0.00000000E+00  9.55249411E+00  9.55249411E+00
 -1.91049882E+01  0.00000000E+00  9.55249411E+00  9.55249411E+00 -1.91049882E+01
  0.00000000E+00  9.55249411E+00  9.55249411E+00 -1.91049882E+01  0.00000000E+00
  9.55249411E+00  9.55249411E+00 -1.91049882E+01  0.00000000E+00  9.55249411E+00
  9.55249411E+00 -1.91049882E+01  0.00000000E+00  9.55249411E+00  9.55249411E+00
 -1.91049882E+01  0.00000000E+00  9.55249411E+00  9.55249411E+00 -1.91049882E+01
  0.00000000E+00  9.55249411E+00  9.55249411E+00 -1.91049882E+01  0.00000000E+00
  9.55249411E+00  9.55249411E+00 -1.91049882E+01  0.00000000E+00  9.55249411E+00
  9.55249411E+00 -1.91049882E+01  0.00000000E+00  9.55249411E+00  9.55249411E+00
 -1.91049882E+01  0.00000000E+00  9.55249411E+00  9.55249411E+00 -1.91049882E+01
  0.00000000E+00  9.55249411E+00  9.55249411E+00 -1.91049882E+01  0.00000000E+00
  9.55249411E+00  9.55249411E+00 -1.91049882E+01  0.00000000E+00  9.55249411E+00
  9.55249411E+00 -1.91049882E+01  0.00000000E+00  9.55249411E+00  9.55249411E+00
 -1.91049882E+01  0.00000000E+00  9.55249411E+00  9.55249411E+00 -1.91049882E+01
  0.00000000E+00  9.55249411E+00  9.55249411E+00 -1.91049882E+01  0.00000000E+00
  9.55249411E+00  9.55249411E+00 -1.91049882E+01  0.00000000E+00  9.55249411E+00
  9.55249411E+00 -1.91049882E+01  0.00000000E+00  9.55249411E+00  9.55249411E+00
 -1.91049882E+01  0.00000000E+00  9.55249411E+00  9.55249411E+00 -1.91049882E+01
  0.00000000E+00  9.55249411E+00  9.55249411E+00 -1.91049882E+01  0.00000000E+00
  9.55249411E+00  9.55249411E+00 -1.91049882E+01  0.00000000E+00  9.55249411E+00
  9.55249411E+00 -1.91049882E+01  0.00000000E+00  9.55249411E+00  9.55249411E+00
 -1.91049882E+01  0.00000000E+00  9.55249411E+00  9.55249411E+00 -1.91049882E+01
  0.00000000E+00  9.55249411E+00  9.55249411E+00 -1.91049882E+01  0.00000000E+00
  9.55249411E+00  9.55249411E+00 -1.91049882E+01  0.00000000E+00  9.55249411E+00
  9.55249411E+00 -1.91049882E+01  0.00000000E+00  9.55249411E+00  9.55249411E+00
 -1.91049882E+01  0.00000000E+00  9.55249411E+00  9.55249411E+00 -1.91049882E+01
  0.00000000E+00  9.55249411E+00  9.55249411E+00 -1.91049882E+01  0.00000000E+00
  9.55249411E+00  9.55249411E+00 -1.91049882E+01  0.00000000E+00  9.55249411E+00
  9.55249411E+00 -1.91049882E+01  0.00000000E+00  9.55249411E+00  9.55249411E+00
 -1.91049882E+01  0.00000000E+00  9.55249411E+00  9.55249411E+00 -1.91049882E+01
  0.00000000E+00  9.55249411E+00  9.55249411E+00 -1.91049882E+01  0.00000000E+00
  9.55249411E+00  9.55249411E+00 -1.91049882E+01  0.00000000E+00  9.55249411E+00
  9.55249411E+00 -1.91049882E+01  0.00000000E+00  9.55249411E+00  9.55249411E+00
 -1.91049882E+01  0.00000000E+00  9.55249411E+00  9.55249411E+00 -1.91049882E+01
  0.00000000E+00  9.55249411E+00  9.55249411E+00 -1.91049882E+01  0.00000000E+00
  9.55249411E+00  9.55249411E+00 -1.91049882E+01  0.00000000E+00  9.55249411E+00
  9.55249411E+00 -1.91049882E+01  0.00000000E+00  9.55249411E+00  9.55249411E+00
 -1.91049882E+01  0.00000000E+00  9.55249411E+00  9.55249411E+00 -1.91049882E+01
  0.00000000E+00  9.55249411E+00  9.55249411E+00 -1.91049882E+01  0.00000000E+00
  9.55249411E+00  9.55249411E+00 -1.91049882E+01  0.00000000E+00  9.55249411E+00
  9.55249411E+00 -1.91049882E+01  0.00000000E+00  9.55249411E+00  9.55249411E+00
 -1.91049882E+01  0.00000000E+00  9.55249411E+00  9.55249411E+00 -1.91049882E+01
  0.00000000E+00  9.55249411E+00  9.55249411E+00 -1.91049882E+01  0.00000000E+00
  9.55249411E+00  9.55249411E+00 -1.91049882E+01  0.00000000E+00  9.55249411E+00
  9.55249411E+00 -1.91049882E+01  0.00000000E+00  9.55249411E+00  9.55249411E+00
 -1.91049882E+01  0.00000000E+00  9.55249411E+00  9.55249411E+00 -1.91049882E+01
  0.00000000E+00  9.55249411E+00  9.55249411E+00 -1.91049882E+01  0.00000000E+00
  9.55249411E+00  9.55249411E+00 -1.91049882E+01  0.00000000E+00  9.55249411E+00
  9.55249411E+00 -1.91049882E+01  0.00000000E+00  9.55249411E+00  9.55249411E+00
 -1.91049882E+01  0.00000000E+00  9.55249411E+00  9.55249411E+00 -1.91049882E+01
  0.00000000E+00  9.55249411E+00  9.55249411E+00 -1.91049882E+01  0.00000000E+00
  9.55249411E+00  9.55249411E+00 -1.91049882E+01  0.00000000E+00  9.55249411E+00
  9.55249411E+00 -1.91049882E+01  0.00000000E+00  9.55249411E+00  9.55249411E+00
 -1.91049882E+01  0.00000000E+00  9.55249411E+00  9.55249411E+00 -1.91049882E+01
  0.00000000E+00  9.55249411E+00  9.55249411E+00 -1.91049882E+01  0.00000000E+00
  9.55249411E+00  9.55249411E+00 -1.91049882E+01  0.00000000E+00  9.55249411E+00
  9.55249411E+00 -1.91049882E+01  0.00000000E+00  9.55249411E+00  9.55249411E+00
 -1.91049882E+01  0.00000000E+00  9.55249411E+00  9.55249411E+00 -1.91049882E+01
  0.00000000E+00  9.55249411E+00  9.55249411E+00 -1.91049882E+01  0.00000000E+00
  9.55249411E+00  9.55249411E+00 -1.91049882E+01  0.00000000E+00  9.55249411E+00
  9.55249411E+00 -1.91049882E+01  0.00000000E+00  9.55249411E+00  9.55249411E+00
 -1.91049882E+01  0.00000000E+00  9.55249411E+00  9.55249411E+00 -1.91049882E+01
  0.00000000E+00  9.55249411E+00  9.55249411E+00 -1.91049882E+01  0.00000000E+00
  9.55249411E+00  9.55249411E+00 -1.91049882E+01  0.00000000E+00  9.55249411E+00
  9.55249411E+00 -1.91049882E+01  0.00000000E+00  9.55249411E+00  9.55249411E+00
 -1.91049882E+01  0.00000000E+00  9.55249411E+00  9.55249411E+00 -1.91049882E+01
  0.00000000E+00  9.55249411E+00  9.55249411E+00 -1.91049882E+01  0.00000000E+00
  9.55249411E+00  9.55249411E+00 -1.91049882E+01  0.00000000E+00  9.55249411E+00
  9.55249411E+00 -1.91049882E+01  0.00000000E+00  9.55249411E+00  9.55249411E+00
 -1.91049882E+01  0.00000000E+00  9.55249411E+00  9.55249411E+00 -1.91049882E+01
  0.00000000E+00  9.55249411E+00  9.55249411E+00 -1.91049882E+01  0.00000000E+00
  9.55249411E+00  9.55249411E+00 -1.91049882E+01  0.00000000E+00  9.55249411E+00
  9.55249411E+00 -1.91049882E+01  0.00000000E+00  9.55249411E+00  9.55249411E+00
 -1.91049882E+01  0.00000000E+00  9.55249411E+00  9.55249411E+00 -1.91049882E+01
  0.00000000E+00  9.55249411E+00  9.55249411E+00 -1.91049882E+01  0.00000000E+00
  9.55249411E+00  9.55249411E+00 -1.91049882E+01  0.00000000E+00  9.55249411E+00
  9.55249411E+00 -1.91049882E+01  0.00000000E+00  9.55249411E+00  9.55249411E+00
 -1.91049882E+01  0.00000000E+00  9.55249411E+00  9.55249411E+00 -1.91049882E+01
  0.00000000E+00  9.55249411E+00  9.55249411E+00 -1.91049882E+01  0.00000000E+00
  9.55249411E+00  9.55249411E+00 -1.91049882E+01  0.00000000E+00  9.55249411E+00
  9.55249411E+00 -1.91049882E+01  0.00000000E+00  9.55249411E+00  9.55249411E+00
 -1.91049882E+01  0.00000000E+00  9.55249411E+00  9.55249411E+00 -1.91049882E+01
  0.00000000E+00  9.55249411E+00  9.55249411E+00 -1.91049882E+01  0.00000000E+00
  9.55249411E+00  9.55249411E+00 -1.91049882E+01  0.00000000E+00  9.55249411E+00
  9.55249411E+00 -1.91049882E+01  0.00000000E+00  9.55249411E+00  9.55249411E+00
 -1.91049882E+01  0.00000000E+00  9.55249411E+00  9.55249411E+00 -1.91049882E+01
  0.00000000E+00  9.55249411E+00  9.55249411E+00 -1.91049882E+01  0.00000000E+00
  9.55249411E+00  9.55249411E+00 -1.91049882E+01  0.00000000E+00  9.55249411E+00
  9.55249411E+00 -1.91049882E+01  0.00000000E+00  9.55249411E+00  9.55249411E+00
 -1.91049882E+01  0.00000000E+00  9.55249411E+00  9.55249411E+00 -1.91049882E+01
  0.00000000E+00  9.55249411E+00  9.55249411E+00 -1.91049882E+01  0.00000000E+00
  9.55249411E+00  9.55249411E+00 -1.91049882E+01  0.00000000E+00  9.55249411E+00
  9.55249411E+00 -1.91049882E+01  0.00000000E+00  9.55249411E+00  9.55249411E+00
 -1.91049882E+01  0.00000000E+00  9.55249411E+00  9.55249411E+00 -1.91049882E+01
  0.00000000E+00  9.55249411E+00  9.55249411E+00 -1.91049882E+01  0.00000000E+00
  9.55249411E+00  9.55249411E+00 -1.91049882E+01  0.00000000E+00  9.55249411E+00
  9.55249411E+00 -1.91049882E+01  0.00000000E+00  9.55249411E+00  9.55249411E+00
 -1.91049882E+01  0.00000000E+00  9.55249411E+00  9.55249411E+00 -1.91049882E+01
  0.00000000E+00  9.55249411E+00  9.55249411E+00 -1.91049882E+01  0.00000000E+00
  9.55249411E+00  9.55249411E+00 -1.91049882E+01  0.00000000E+00  9.55249411E+00
  9.55249411E+00 -1.91049882E+01  0.00000000E+00  9.55249411E+00  9.55249411E+00
 -1.91049882E+01  0.00000000E+00  9.55249411E+00  9.55249411E+00 -1.91049882E+01
  0.00000000E+00  9.55249411E+00  9.55249411E+00 -1.91049882E+01  0.00000000E+00
  9.55249411E+00  9.55249411E+00 -1.91049882E+01  0.00000000E+00  9.55249411E+00
  9.55249411E+00 -1.91049882E+01  0.00000000E+00  9.55249411E+00  9.55249411E+00
 -1.91049882E+01  0.00000000E+00  9.55249411E+00  9.55249411E+00 -1.91049882E+01
  0.00000000E+00  9.55249411E+00  9.55249411E+00 -1.91049882E+01  0.00000000E+00
  9.55249411E+00  9.55249411E+00 -1.91049882E+01  0.00000000E+00  9.55249411E+00
  9.55249411E+00 -1.91049882E+01  0.00000000E+00  9.55249411E+00  9.55249411E+00
 -1.91049882E+01  0.00000000E+00  9.55249411E+00  9.55249411E+00 -1.91049882E+01
  0.00000000E+00  9.55249411E+00  9.55249411E+00 -1.91049882E+01  0.00000000E+00
  9.55249411E+00  9.55249411E+00 -1.91049882E+01  0.00000000E+00  9.55249411E+00
  9.55249411E+00 -1.91049882E+01  0.00000000E+00  9.55249411E+00  9.55249411E+00
 -1.91049882E+01  0.00000000E+00  9.55249411E+00  9.55249411E+00 -1.91049882E+01
  0.00000000E+00  9.55249411E+00  9.55249411E+00 -1.91049882E+01  0.00000000E+00
  9.55249411E+00  9.55249411E+00 -1.91049882E+01  0.00000000E+00  9.55249411E+00
  9.55249411E+00 -1.91049882E+01  0.00000000E+00  9.55249411E+00  9.55249411E+00
 -1.91049882E+01  0.00000000E+00  9.55249411E+00  9.55249411E+00 -1.91049882E+01
  0.00000000E+00  9.55249411E+00  9.55249411E+00 -1.91049882E+01  0.00000000E+00
  9.55249411E+00  9.55249411E+00 -1.91049882E+01  0.00000000E+00  9.55249411E+00
  9.55249411E+00 -1.91049882E+01  0.00000000E+00  9.55249411E+00  9.55249411E+00
 -1.91049882E+01  0.00000000E+00  9.55249411E+00  9.55249411E+00 -1.91049882E+01
  0.00000000E+00  9.55249411E+00  9.55249411E+00 -1.91049882E+01  0.00000000E+00
  9.55249411E+00  9.55249411E+00 -1.91049882E+01  0.00000000E+00  9.55249411E+00
  9.55249411E+00 -1.91049882E+01  0.00000000E+00  9.55249411E+00  9.55249411E+00
 -1.91049882E+01  0.00000000E+00  9.55249411E+00  9.55249411E+00 -1.91049882E+01
  0.00000000E+00  9.55249411E+00  9.55249411E+00 -1.91049882E+01  0.00000000E+00
  9.55249411E+00  9.55249411E+00 -1.91049882E+01  0.00000000E+00  9.55249411E+00
  9.55249411E+00 -1.91049882E+01  0.00000000E+00  9.55249411E+00  9.55249411E+00
 -1.91049882E+01  0.00000000E+00  9.55249411E+00  9.55249411E+00 -1.91049882E+01
  0.00000000E+00  9.55249411E+00  9.55249411E+00 -1.91049882E+01  0.00000000E+00
  9.55249411E+00  9.55249411E+00 -1.91049882E+01  0.00000000E+00  9.55249411E+00
  9.55249411E+00 -1.91049882E+01  0.00000000E+00  9.55249411E+00  9.55249411E+00
 -1.91049882E+01  0.00000000E+00  9.55249411E+00  9.55249411E+00 -1.91049882E+01
  0.00000000E+00  9.55249411E+00  9.55249411E+00 -1.91049882E+01  0.00000000E+00
  9.55249411E+00  9.55249411E+00 -1.91049882E+01  0.00000000E+00  9.55249411E+00
  9.55249411E+00 -1.91049882E+01  0.00000000E+00  9.55249411E+00  9.55249411E+00
 -1.91049882E+01  0.00000000E+00  9.55249411E+00  9.55249411E+00 -1.91049882E+01
  0.00000000E+00  9.55249411E+00  9.55249411E+00 -1.91049882E+01  0.00000000E+00
  9.55249411E+00  9.55249411E+00 -1.91049882E+01  0.00000000E+00  9.55249411E+00
  9.55249411E+00 -1.91049882E+01  0.00000000E+00  9.55249411E+00  9.55249411E+00
 -1.91049882E+01  0.00000000E+00  9.55249411E+00  9.55249411E+00 -1.91049882E+01
  0.00000000E+00  9.55249411E+00  9.55249411E+00 -1.91049882E+01  0.00000000E+00
  9.55249411E+00  9.55249411E+00 -1.91049882E+01  0.00000000E+00  9.55249411E+00
  9.55249411E+00 -1.91049882E+01  0.00000000E+00  9.55249411E+00  9.55249411E+00
 -1.91049882E+01  0.00000000E+00  9.55249411E+00  9.55249411E+00 -1.91049882E+01
  0.00000000E+00  9.55249411E+00  9.55249411E+00 -1.91049882E+01  0.00000000E+00
  9.55249411E+00  9.55249411E+00 -1.91049882E+01  0.00000000E+00  9.55249411E+00
  9.55249411E+00 -1.91049882E+01  0.00000000E+00  9.55249411E+00  9.55249411E+00
 -1.91049882E+01  0.00000000E+00  9.55249411E+00  9.55249411E+00 -1.91049882E+01
  0.00000000E+00  9.55249411E+00  9.55249411E+00 -1.91049882E+01  0.00000000E+00
  9.55249411E+00  9.55249411E+00 -1.91049882E+01  0.00000000E+00  9.55249411E+00
  9.55249411E+00 -1.91049882E+01  0.00000000E+00  9.55249411E+00  9.55249411E+00
 -1.91049882E+01  0.00000000E+00  9.55249411E+00  9.55249411E+00 -1.91049882E+01
  0.00000000E+00  9.55249411E+00  9.55249411E+00 -1.91049882E+01  0.00000000E+00
  9.55249411E+00  9.55249411E+00 -1.91049882E+01  0.00000000E+00  9.55249411E+00
  9.55249411E+00 -1.91049882E+01  0.00000000E+00  9.55249411E+00  9.55249411E+00
 -1.91049882E+01  0.00000000E+00  9.55249411E+00  9.55249411E+00 -1.91049882E+01
  0.00000000E+00  9.55249411E+00  9.55249411E+00 -1.91049882E+01  0.00000000E+00
  9.55249411E+00  9.55249411E+00 -1.91049882E+01  0.00000000E+00  9.55249411E+00
  9.55249411E+00 -1.91049882E+01  0.00000000E+00  9.55249411E+00  9.55249411E+00
 -1.91049882E+01  0.00000000E+00  9.55249411E+00  9.55249411E+00 -1.91049882E+01
  0.00000000E+00  9.55249411E+00  9.55249411E+00 -1.91049882E+01  0.00000000E+00
  9.55249411E+00  9.55249411E+00 -1.91049882E+01  0.00000000E+00  9.55249411E+00
  9.55249411E+00 -1.91049882E+01  0.00000000E+00  9.55249411E+00  9.55249411E+00
 -1.91049882E+01  0.00000000E+00  9.55249411E+00  9.55249411E+00 -1.91049882E+01
  0.00000000E+00  9.55249411E+00  9.55249411E+00 -1.91049882E+01  0.00000000E+00
  9.55249411E+00  9.55249411E+00 -1.91049882E+01  0.00000000E+00  9.55249411E+00
  9.55249411E+00 -1.91049882E+01  0.00000000E+00  9.55249411E+00  9.55249411E+00
 -1.91049882E+01  0.00000000E+00  9.55249411E+00  9.55249411E+00 -1.91049882E+01
  0.00000000E+00  9.55249411E+00  9.55249411E+00 -1.91049882E+01  0.00000000E+00
  9.55249411E+00  9.55249411E+00 -1.91049882E+01  0.00000000E+00  9.55249411E+00
  9.55249411E+00 -1.91049882E+01  0.00000000E+00  9.55249411E+00  9.55249411E+00
 -1.91049882E+01  0.00000000E+00  9.55249411E+00  9.55249411E+00 -1.91049882E+01
  0.00000000E+00  9.55249411E+00  9.55249411E+00 -1.91049882E+01  0.00000000E+00
  9.55249411E+00  9.55249411E+00 -1.91049882E+01  0.00000000E+00  9.55249411E+00
  9.55249411E+00 -1.91049882E+01  0.00000000E+00  9.55249411E+00  9.55249411E+00
 -1.91049882E+01  0.00000000E+00  9.55249411E+00  9.55249411E+00 -1.91049882E+01
  0.00000000E+00  9.55249411E+00  9.55249411E+00 -1.91049882E+01  0.00000000E+00
  9.55249411E+00  9.55249411E+00 -1.91049882E+01  0.00000000E+00  9.55249411E+00
  9.55249411E+00 -1.91049882E+01  0.00000000E+00  9.55249411E+00  9.55249411E+00
 -1.91049882E+01  0.00000000E+00  9.55249411E+00  9.55249411E+00 -1.91049882E+01
  0.00000000E+00  9.55249411E+00  9.55249411E+00 -1.91049882E+01  0.00000000E+00
  9.55249411E+00  9.55249411E+00 -1.91049882E+01  0.00000000E+00  9.55249411E+00
  9.55249411E+00 -1.91049882E+01  0.00000000E+00  9.55249411E+00  9.55249411E+00
 -1.91049882E+01  0.00000000E+00  9.55249411E+00  9.55249411E+00 -1.91049882E+01
  0.00000000E+00  9.55249411E+00  9.55249411E+00 -1.91049882E+01  0.00000000E+00
  9.55249411E+00  9.55249411E+00 -1.91049882E+01  0.00000000E+00  9.55249411E+00
  9.55249411E+00 -1.91049882E+01  0.00000000E+00  9.55249411E+00  9.55249411E+00
 -1.91049882E+01  0.00000000E+00  9.55249411E+00  9.55249411E+00 -1.91049882E+01
  0.00000000E+00  9.55249411E+00  9.55249411E+00 -1.91049882E+01  0.00000000E+00
  9.55249411E+00  9.55249411E+00 -1.91049882E+01  0.00000000E+00  9.55249411E+00
  9.55249411E+00 -1.91049882E+01  0.00000000E+00  9.55249411E+00  9.55249411E+00
 -1.91049882E+01  0.00000000E+00  9.55249411E+00  9.55249411E+00 -1.91049882E+01
  0.00000000E+00  9.55249411E+00  9.55249411E+00 -1.91049882E+01  0.00000000E+00
  9.55249411E+00  9.55249411E+00 -1.91049882E+01  0.00000000E+00  9.55249411E+00
  9.55249411E+00 -1.91049882E+01  0.00000000E+00  9.55249411E+00  9.55249411E+00
 -1.91049882E+01  0.00000000E+00  9.55249411E+00  9.55249411E+00 -1.91049882E+01
  0.00000000E+00  9.55249411E+00  9.55249411E+00 -1.91049882E+01  0.00000000E+00
  9.55249411E+00  9.55249411E+00 -1.91049882E+01  0.00000000E+00  9.55249411E+00
  9.55249411E+00 -1.91049882E+01  0.00000000E+00  9.55249411E+00  9.55249411E+00
 -1.91049882E+01  0.00000000E+00  9.55249411E+00  9.55249411E+00 -1.91049882E+01
  0.00000000E+00  9.55249411E+00  9.55249411E+00 -1.91049882E+01  0.00000000E+00
  9.55249411E+00  9.55249411E+00 -1.91049882E+01  0.00000000E+00  9.55249411E+00
  9.55249411E+00 -1.91049882E+01  0.00000000E+00  9.55249411E+00  9.55249411E+00
 -1.91049882E+01  0.00000000E+00  9.55249411E+00  9.55249411E+00 -1.91049882E+01
  0.00000000E+00  9.55249411E+00  9.55249411E+00 -1.91049882E+01  0.00000000E+00
  9.55249411E+00  9.55249411E+00 -1.91049882E+01  0.00000000E+00  9.55249411E+00
  9.55249411E+00 -1.91049882E+01  0.00000000E+00  9.55249411E+00  9.55249411E+00
 -1.91049882E+01  0.00000000E+00  9.55249411E+00  9.55249411E+00 -1.91049882E+01
  0.00000000E+00  9.55249411E+00  9.55249411E+00 -1.91049882E+01  0.00000000E+00
  9.55249411E+00  9.55249411E+00 -1.91049882E+01  0.00000000E+00  9.55249411E+00
  9.55249411E+00 -1.91049882E+01  0.00000000E+00  9.55249411E+00  9.55249411E+00
 -1.91049882E+01  0.00000000E+00  9.55249411E+00  9.55249411E+00 -1.91049882E+01
  0.00000000E+00  9.55249411E+00  9.55249411E+00 -1.91049882E+01  0.00000000E+00
  9.55249411E+00  9.55249411E+00 -1.91049882E+01  0.00000000E+00  9.55249411E+00
  9.55249411E+00 -1.91049882E+01  0.00000000E+00  9.55249411E+00  9.55249411E+00
 -1.91049882E+01  0.00000000E+00  9.55249411E+00  9.55249411E+00 -1.91049882E+01
  0.00000000E+00  9.55249411E+00  9.55249411E+00 -1.91049882E+01  0.00000000E+00
  9.55249411E+00  9.55249411E+00 -1.91049882E+01  0.00000000E+00  9.55249411E+00
  9.55249411E+00 -1.91049882E+01  0.00000000E+00  9.55249411E+00  9.55249411E+00
 -1.91049882E+01  0.00000000E+00  9.55249411E+00  9.55249411E+00 -1.91049882E+01
  0.00000000E+00  9.55249411E+00  9.55249411E+00 -1.91049882E+01  0.00000000E+00
  9.55249411E+00  9.55249411E+00 -1.91049882E+01  0.00000000E+00  9.55249411E+00
  9.55249411E+00 -1.91049882E+01  0.00000000E+00  9.55249411E+00  9.55249411E+00
 -1.91049882E+01  0.00000000E+00  9.55249411E+00  9.55249411E+00 -1.91049882E+01
  0.00000000E+00  9.55249411E+00  9.55249411E+00 -1.91049882E+01  0.00000000E+00
  9.55249411E+00  9.55249411E+00 -1.91049882E+01  0.00000000E+00  9.55249411E+00
  9.55249411E+00 -1.91049882E+01  0.00000000E+00  9.55249411E+00  9.55249411E+00
 -1.91049882E+01  0.00000000E+00  9.55249411E+00  9.55249411E+00 -1.91049882E+01
  0.00000000E+00  9.55249411E+00  9.55249411E+00 -1.91049882E+01  0.00000000E+00
  9.55249411E+00  9.55249411E+00 -1.91049882E+01  0.00000000E+00  9.55249411E+00
  9.55249411E+00 -1.91049882E+01  0.00000000E+00  9.55249411E+00  9.55249411E+00
 -1.91049882E+01  0.00000000E+00  9.55249411E+00  9.55249411E+00 -1.91049882E+01
  0.00000000E+00  9.55249411E+00  9.55249411E+00 -1.91049882E+01  0.00000000E+00
  9.55249411E+00  9.55249411E+00 -1.91049882E+01  0.00000000E+00  9.55249411E+00
  9.55249411E+00 -1.91049882E+01  0.00000000E+00  9.55249411E+00  9.55249411E+00
 -1.91049882E+01  0.00000000E+00  9.55249411E+00  9.55249411E+00 -1.91049882E+01
  0.00000000E+00  9.55249411E+00  9.55249411E+00 -1.91049882E+01  0.00000000E+00
  9.55249411E+00  9.55249411E+00 -1.91049882E+01  0.00000000E+00  9.55249411E+00
  9.55249411E+00 -1.91049882E+01  0.00000000E+00  9.55249411E+00  9.55249411E+00
 -1.91049882E+01  0.00000000E+00  9.55249411E+00  9.55249411E+00 -1.91049882E+01
  0.00000000E+00  9.55249411E+00  9.55249411E+00 -1.91049882E+01  0.00000000E+00
  9.55249411E+00  9.55249411E+00 -1.91049882E+01  0.00000000E+00  9.55249411E+00
  9.55249411E+00 -1.91049882E+01  0.00000000E+00  9.55249411E+00  9.55249411E+00
 -1.91049882E+01  0.00000000E+00  9.55249411E+00  9.55249411E+00 -1.91049882E+01
  0.00000000E+00  9.55249411E+00  9.55249411E+00 -1.91049882E+01  0.00000000E+00
  9.55249411E+00  9.55249411E+00 -1.91049882E+01  0.00000000E+00  9.55249411E+00
  9.55249411E+00 -1.91049882E+01  0.00000000E+00  9.55249411E+00  9.55249411E+00
 -1.91049882E+01  0.00000000E+00  9.55249411E+00  9.55249411E+00 -1.91049882E+01
  0.00000000E+00  9.55249411E+00  9.55249411E+00 -1.91049882E+01  0.00000000E+00
  9.55249411E+00  9.55249411E+00 -1.91049882E+01  0.00000000E+00  9.55249411E+00
  9.55249411E+00 -1.91049882E+01  0.00000000E+00  9.55249411E+00  9.55249411E+00
 -1.91049882E+01  0.00000000E+00  9.55249411E+00  9.55249411E+00 -1.91049882E+01
  0.00000000E+00  9.55249411E+00  9.55249411E+00 -1.91049882E+01  0.00000000E+00
  9.55249411E+00  9.55249411E+00 -1.91049882E+01  0.00000000E+00  9.55249411E+00
  9.55249411E+00 -1.91049882E+01  0.00000000E+00  9.55249411E+00  9.55249411E+00
 -1.91049882E+01  0.00000000E+00  9.55249411E+00  9.55249411E+00 -1.91049882E+01
  0.00000000E+00  9.55249411E+00  9.55249411E+00 -1.91049882E+01  0.00000000E+00
  9.55249411E+00  9.55249411E+00 -1.91049882E+01  0.00000000E+00  9.55249411E+00
  9.55249411E+00 -1.91049882E+01  0.00000000E+00  9.55249411E+00  9.55249411E+00
 -1.91049882E+01  0.00000000E+00  9.55249411E+00  9.55249411E+00 -1.91049882E+01
  0.00000000E+00  9.55249411E+00  9.55249411E+00 -1.91049882E+01  0.00000000E+00
  9.55249411E+00  9.55249411E+00 -1.91049882E+01  0.00000000E+00  9.55249411E+00
  9.55249411E+00 -1.91049882E+01  0.00000000E+00  9.55249411E+00  9.55249411E+00
 -1.91049882E+01  0.00000000E+00  9.55249411E+00  9.55249411E+00 -1.91049882E+01
  0.00000000E+00  9.55249411E+00  9.55249411E+00 -1.91049882E+01  0.00000000E+00
  9.55249411E+00  9.55249411E+00 -1.91049882E+01  0.00000000E+00  9.55249411E+00
  9.55249411E+00 -1.91049882E+01  0.00000000E+00  9.55249411E+00  9.55249411E+00
 -1.91049882E+01  0.00000000E+00  9.55249411E+00  9.55249411E+00 -1.91049882E+01
  0.00000000E+00  9.55249411E+00  9.55249411E+00 -1.91049882E+01  0.00000000E+00
  9.55249411E+00  9.55249411E+00 -1.91049882E+01  0.00000000E+00  9.55249411E+00
  9.55249411E+00 -1.91049882E+01  0.00000000E+00  9.55249411E+00  9.55249411E+00
 -1.91049882E+01  0.00000000E+00  9.55249411E+00  9.55249411E+00 -1.91049882E+01
  0.00000000E+00  9.55249411E+00  9.55249411E+00 -1.91049882E+01  0.00000000E+00
  9.55249411E+00  9.55249411E+00 -1.91049882E+01  0.00000000E+00  9.55249411E+00
  9.55249411E+00 -1.91049882E+01  0.00000000E+00  9.55249411E+00  9.55249411E+00
 -1.91049882E+01  0.00000000E+00  9.55249411E+00  9.55249411E+00 -1.91049882E+01
  0.00000000E+00  9.55249411E+00  9.55249411E+00 -1.91049882E+01  0.00000000E+00
  9.55249411E+00  9.55249411E+00 -1.91049882E+01  0.00000000E+00  9.55249411E+00
  9.55249411E+00 -1.91049882E+01  0.00000000E+00  9.55249411E+00  9.55249411E+00
 -1.91049882E+01  0.00000000E+00  9.55249411E+00  9.55249411E+00 -1.91049882E+01
  0.00000000E+00  9.55249411E+00  9.55249411E+00 -1.91049882E+01  0.00000000E+00
  9.55249411E+00  9.55249411E+00 -1.91049882E+01  0.00000000E+00  9.55249411E+00
  9.55249411E+00 -1.91049882E+01  0.00000000E+00  9.55249411E+00  9.55249411E+00
 -1.91049882E+01  0.00000000E+00  9.55249411E+00  9.55249411E+00 -1.91049882E+01
  0.00000000E+00  9.55249411E+00  9.55249411E+00 -1.91049882E+01  0.00000000E+00
  9.55249411E+00  9.55249411E+00 -1.91049882E+01  0.00000000E+00  9.55249411E+00
  9.55249411E+00 -1.91049882E+01  0.00000000E+00  9.55249411E+00  9.55249411E+00
 -1.91049882E+01  0.00000000E+00  9.55249411E+00  9.55249411E+00 -1.91049882E+01
  0.00000000E+00  9.55249411E+00  9.55249411E+00 -1.91049882E+01  0.00000000E+00
  9.55249411E+00  9.55249411E+00 -1.91049882E+01  0.00000000E+00  9.55249411E+00
  9.55249411E+00 -1.91049882E+01  0.00000000E+00  9.55249411E+00  9.55249411E+00
 -1.91049882E+01  0.00000000E+00  9.55249411E+00  9.55249411E+00 -1.91049882E+01
  0.00000000E+00  9.55249411E+00  9.55249411E+00 -1.91049882E+01  0.00000000E+00
  9.55249411E+00  9.55249411E+00 -1.91049882E+01  0.00000000E+00  9.55249411E+00
  9.55249411E+00 -1.91049882E+01  0.00000000E+00  9.55249411E+00  9.55249411E+00
 -1.91049882E+01  0.00000000E+00  9.55249411E+00  9.55249411E+00 -1.91049882E+01
  0.00000000E+00  9.55249411E+00  9.55249411E+00 -1.91049882E+01  0.00000000E+00
  9.55249411E+00  9.55249411E+00 -1.91049882E+01  0.00000000E+00  9.55249411E+00
  9.55249411E+00 -1.91049882E+01  0.00000000E+00  9.55249411E+00  9.55249411E+00
 -1.91049882E+01  0.00000000E+00  9.55249411E+00  9.55249411E+00 -1.91049882E+01
  0.00000000E+00  9.55249411E+00  9.55249411E+00 -1.91049882E+01  0.00000000E+00
  9.55249411E+00  9.55249411E+00 -1.91049882E+01  0.00000000E+00  9.55249411E+00
  9.55249411E+00 -1.91049882E+01  0.00000000E+00  9.55249411E+00  9.55249411E+00
 -1.91049882E+01  0.00000000E+00  9.55249411E+00  9.55249411E+00 -1.91049882E+01
  0.00000000E+00  9.55249411E+00  9.55249411E+00 -1.91049882E+01  0.00000000E+00
  9.55249411E+00  9.55249411E+00 -1.91049882E+01  0.00000000E+00  9.55249411E+00
  9.55249411E+00 -1.91049882E+01  0.00000000E+00  9.55249411E+00  9.55249411E+00
 -1.91049882E+01  0.00000000E+00  9.55249411E+00  9.55249411E+00 -1.91049882E+01
  0.00000000E+00  9.55249411E+00  9.55249411E+00 -1.91049882E+01  0.00000000E+00
  9.55249411E+00  9.55249411E+00 -1.91049882E+01  0.00000000E+00  9.55249411E+00
  9.55249411E+00 -1.91049882E+01  0.00000000E+00  9.55249411E+00  9.55249411E+00
 -1.91049882E+01  0.00000000E+00  9.55249411E+00  9.55249411E+00 -1.91049882E+01
  0.00000000E+00  9.55249411E+00  9.55249411E+00 -1.91049882E+01  0.00000000E+00
  9.55249411E+00  9.55249411E+00 -1.91049882E+01  0.00000000E+00  9.55249411E+00
  9.55249411E+00 -1.91049882E+01  0.00000000E+00  9.55249411E+00  9.55249411E+00
 -1.91049882E+01  0.00000000E+00  9.55249411E+00  9.55249411E+00 -1.91049882E+01
  0.00000000E+00  9.55249411E+00  9.55249411E+00 -1.91049882E+01  0.00000000E+00
  9.55249411E+00  9.55249411E+00 -1.91049882E+01  0.00000000E+00  9.55249411E+00
  9.55249411E+00 -1.91049882E+01  0.00000000E+00  9.55249411E+00  9.55249411E+00
 -1.91049882E+01  0.00000000E+00  9.55249411E+00  9.55249411E+00 -1.91049882E+01
  0.00000000E+00  9.55249411E+00  9.55249411E+00 -1.91049882E+01  0.00000000E+00
  9.55249411E+00  9.55249411E+00 -1.91049882E+01  0.00000000E+00  9.55249411E+00
  9.55249411E+00 -1.91049882E+01  0.00000000E+00  9.55249411E+00  9.55249411E+00
 -1.91049882E+01  0.00000000E+00  9.55249411E+00  9.55249411E+00 -1.91049882E+01
  0.00000000E+00  9.55249411E+00  9.55249411E+00 -1.91049882E+01  0.00000000E+00
  9.55249411E+00  9.55249411E+00 -1.91049882E+01  0.00000000E+00  9.55249411E+00
  9.55249411E+00 -1.91049882E+01  0.00000000E+00  9.55249411E+00  9.55249411E+00
 -1.91049882E+01  0.00000000E+00  9.55249411E+00  9.55249411E+00 -1.91049882E+01
  0.00000000E+00  9.55249411E+00  9.55249411E+00 -1.91049882E+01  0.00000000E+00
  9.55249411E+00  9.55249411E+00 -1.91049882E+01  0.00000000E+00  9.55249411E+00
  9.55249411E+00 -1.91049882E+01  0.00000000E+00  9.55249411E+00  9.55249411E+00
 -1.91049882E+01  0.00000000E+00  9.55249411E+00  9.55249411E+00 -1.91049882E+01
  0.00000000E+00  9.55249411E+00  9.55249411E+00 -1.91049882E+01  0.00000000E+00
  9.55249411E+00  9.55249411E+00 -1.91049882E+01  0.00000000E+00  9.55249411E+00
  9.55249411E+00 -1.91049882E+01  0.00000000E+00  9.55249411E+00  9.55249411E+00
 -1.91049882E+01  0.00000000E+00  9.55249411E+00  9.55249411E+00 -1.91049882E+01
  0.00000000E+00  9.55249411E+00  9.55249411E+00 -1.91049882E+01  0.00000000E+00
  9.55249411E+00  9.55249411E+00 -1.91049882E+01  0.00000000E+00  9.55249411E+00
  9.55249411E+00 -1.91049882E+01  0.00000000E+00  9.55249411E+00  9.55249411E+00
 -1.91049882E+01  0.00000000E+00  9.55249411E+00  9.55249411E+00 -1.91049882E+01
  0.00000000E+00  9.55249411E+00  9.55249411E+00 -1.91049882E+01  0.00000000E+00
  9.55249411E+00  9.55249411E+00 -1.91049882E+01  0.00000000E+00  9.55249411E+00
  9.55249411E+00 -1.91049882E+01  0.00000000E+00  9.55249411E+00  9.55249411E+00
 -1.91049882E+01  0.00000000E+00  9.55249411E+00  9.55249411E+00 -1.91049882E+01
  0.00000000E+00  9.55249411E+00  9.55249411E+00 -1.91049882E+01  0.00000000E+00
  9.55249411E+00  9.55249411E+00 -1.91049882E+01  0.00000000E+00  9.55249411E+00
  9.55249411E+00 -1.91049882E+01  0.00000000E+00  9.55249411E+00  9.55249411E+00
 -1.91049882E+01  0.00000000E+00  9.55249411E+00  9.55249411E+00 -1.91049882E+01
  0.00000000E+00  9.55249411E+00  9.55249411E+00 -1.91049882E+01  0.00000000E+00
  9.55249411E+00  9.55249411E+00 -1.91049882E+01  0.00000000E+00  9.55249411E+00
  9.55249411E+00 -1.91049882E+01  0.00000000E+00  9.55249411E+00  9.55249411E+00
 -1.91049882E+01  0.00000000E+00  9.55249411E+00  9.55249411E+00 -1.91049882E+01
  0.00000000E+00  9.55249411E+00  9.55249411E+00 -1.91049882E+01  0.00000000E+00
  9.55249411E+00  9.55249411E+00 -1.91049882E+01  0.00000000E+00  9.55249411E+00
  9.55249411E+00 -1.91049882E+01  0.00000000E+00  9.55249411E+00  9.55249411E+00
 -1.91049882E+01  0.00000000E+00  9.55249411E+00  9.55249411E+00 -1.91049882E+01
  0.00000000E+00  9.55249411E+00  9.55249411E+00 -1.91049882E+01  0.00000000E+00
  9.55249411E+00  9.55249411E+00 -1.91049882E+01  0.00000000E+00  9.55249411E+00
  9.55249411E+00 -1.91049882E+01  0.00000000E+00  9.55249411E+00  9.55249411E+00
 -1.91049882E+01  0.00000000E+00  9.55249411E+00  9.55249411E+00 -1.91049882E+01
  0.00000000E+00  9.55249411E+00  9.55249411E+00 -1.91049882E+01  0.00000000E+00
  9.55249411E+00  9.55249411E+00 -1.91049882E+01  0.00000000E+00  9.55249411E+00
  9.55249411E+00 -1.91049882E+01  0.00000000E+00  9.55249411E+00  9.55249411E+00
 -1.91049882E+01  0.00000000E+00  9.55249411E+00  9.55249411E+00 -1.91049882E+01
  0.00000000E+00  9.55249411E+00  9.55249411E+00 -1.91049882E+01  0.00000000E+00
  9.55249411E+00  9.55249411E+00 -1.91049882E+01  0.00000000E+00  9.55249411E+00
  9.55249411E+00 -1.91049882E+01  0.00000000E+00  9.55249411E+00  9.55249411E+00
 -1.91049882E+01  0.00000000E+00  9.55249411E+00  9.55249411E+00 -1.91049882E+01
  0.00000000E+00  9.55249411E+00  9.55249411E+00 -1.91049882E+01  0.00000000E+00
  9.55249411E+00  9.55249411E+00 -1.91049882E+01  0.00000000E+00  9.55249411E+00
  9.55249411E+00 -1.91049882E+01  0.00000000E+00  9.55249411E+00  9.55249411E+00
 -1.91049882E+01  0.00000000E+00  9.55249411E+00  9.55249411E+00 -1.91049882E+01
  0.00000000E+00  9.55249411E+00  9.55249411E+00 -1.91049882E+01  0.00000000E+00
  9.55249411E+00  9.55249411E+00 -1.91049882E+01  0.00000000E+00  9.55249411E+00
  9.55249411E+00 -1.91049882E+01  0.00000000E+00  9.55249411E+00  9.55249411E+00
 -1.91049882E+01  0.00000000E+00  9.55249411E+00  9.55249411E+00 -1.91049882E+01
  0.00000000E+00  9.55249411E+00  9.55249411E+00 -1.91049882E+01  0.00000000E+00
  9.55249411E+00  9.55249411E+00 -1.91049882E+01  0.00000000E+00  9.55249411E+00
  9.55249411E+00 -1.91049882E+01  0.00000000E+00  9.55249411E+00  9.55249411E+00
 -1.91049882E+01  0.00000000E+00  9.55249411E+00  9.55249411E+00 -1.91049882E+01
  0.00000000E+00  9.55249411E+00  9.55249411E+00 -1.91049882E+01  0.00000000E+00
  9.55249411E+00  9.55249411E+00 -1.91049882E+01  0.00000000E+00  9.55249411E+00
  9.55249411E+00 -1.91049882E+01  0.00000000E+00  9.55249411E+00  9.55249411E+00
 -1.91049882E+01  0.00000000E+00  9.55249411E+00  9.55249411E+00 -1.91049882E+01
  0.00000000E+00  9.55249411E+00  9.55249411E+00 -1.91049882E+01  0.00000000E+00
  9.55249411E+00  9.55249411E+00 -1.91049882E+01  0.00000000E+00  9.55249411E+00
  9.55249411E+00 -1.91049882E+01  0.00000000E+00  9.55249411E+00  9.55249411E+00
 -1.91049882E+01  0.00000000E+00  9.55249411E+00  9.55249411E+00 -1.91049882E+01
  0.00000000E+00  9.55249411E+00  9.55249411E+00 -1.91049882E+01  0.00000000E+00
  9.55249411E+00  9.55249411E+00 -1.91049882E+01  0.00000000E+00  9.55249411E+00
  9.55249411E+00 -1.91049882E+01  0.00000000E+00  9.55249411E+00  9.55249411E+00
 -1.91049882E+01  0.00000000E+00  9.55249411E+00  9.55249411E+00 -1.91049882E+01
  0.00000000E+00  9.55249411E+00  9.55249411E+00 -1.91049882E+01  0.00000000E+00
  9.55249411E+00  9.55249411E+00 -1.91049882E+01  0.00000000E+00  9.55249411E+00
  9.55249411E+00 -1.91049882E+01  0.00000000E+00  9.55249411E+00  9.55249411E+00
 -1.91049882E+01  0.00000000E+00  9.55249411E+00  9.55249411E+00 -1.91049882E+01
  0.00000000E+00  9.55249411E+00  9.55249411E+00 -1.91049882E+01  0.00000000E+00
  9.55249411E+00  9.55249411E+00 -1.91049882E+01  0.00000000E+00  9.55249411E+00
  9.55249411E+00 -1.91049882E+01  0.00000000E+00  9.55249411E+00  9.55249411E+00
 -1.91049882E+01  0.00000000E+00  9.55249411E+00  9.55249411E+00 -1.91049882E+01
  0.00000000E+00  9.55249411E+00  9.55249411E+00 -1.91049882E+01  0.00000000E+00
  9.55249411E+00  9.55249411E+00 -1.91049882E+01  0.00000000E+00  9.55249411E+00
  9.55249411E+00 -1.91049882E+01  0.00000000E+00  9.55249411E+00  9.55249411E+00
 -1.91049882E+01  0.00000000E+00  9.55249411E+00  9.55249411E+00 -1.91049882E+01
  0.00000000E+00  9.55249411E+00  9.55249411E+00 -1.91049882E+01  0.00000000E+00
  9.55249411E+00  9.55249411E+00 -1.91049882E+01  0.00000000E+00  9.55249411E+00
  9.55249411E+00 -1.91049882E+01  0.00000000E+00  9.55249411E+00  9.55249411E+00
 -1.91049882E+01  0.00000000E+00  9.55249411E+00  9.55249411E+00 -1.91049882E+01
  0.00000000E+00  9.55249411E+00  9.55249411E+00 -1.91049882E+01  0.00000000E+00
  9.55249411E+00  9.55249411E+00 -1.91049882E+01  0.00000000E+00  9.55249411E+00
  9.55249411E+00 -1.91049882E+01  0.00000000E+00  9.55249411E+00  9.55249411E+00
 -1.91049882E+01  0.00000000E+00  9.55249411E+00  9.55249411E+00 -1.91049882E+01
  0.00000000E+00  9.55249411E+00  9.55249411E+00 -1.91049882E+01  0.00000000E+00
  9.55249411E+00  9.55249411E+00 -1.91049882E+01  0.00000000E+00  9.55249411E+00
  9.55249411E+00 -1.91049882E+01  0.00000000E+00  9.55249411E+00  9.55249411E+00
 -1.91049882E+01  0.00000000E+00  9.55249411E+00  9.55249411E+00 -1.91049882E+01
  0.00000000E+00  9.55249411E+00  9.55249411E+00 -1.91049882E+01  0.00000000E+00
  9.55249411E+00  9.55249411E+00 -1.91049882E+01  0.00000000E+00  9.55249411E+00
  9.55249411E+00 -1.91049882E+01  0.00000000E+00  9.55249411E+00  9.55249411E+00
 -1.91049882E+01  0.00000000E+00  9.55249411E+00  9.55249411E+00 -1.91049882E+01
  0.00000000E+00  9.55249411E+00  9.55249411E+00 -1.91049882E+01  0.00000000E+00
  9.55249411E+00  9.55249411E+00 -1.91049882E+01  0.00000000E+00  9.55249411E+00
  9.55249411E+00 -1.91049882E+01  0.00000000E+00  9.55249411E+00  9.55249411E+00
 -1.91049882E+01  0.00000000E+00  9.55249411E+00  9.55249411E+00 -1.91049882E+01
  0.00000000E+00  9.55249411E+00  9.55249411E+00 -1.91049882E+01  0.00000000E+00
  9.55249411E+00  9.55249411E+00 -1.91049882E+01  0.00000000E+00  9.55249411E+00
  9.55249411E+00 -1.91049882E+01  0.00000000E+00  9.55249411E+00  9.55249411E+00
 -1.91049882E+01  0.00000000E+00  9.55249411E+00  9.55249411E+00 -1.91049882E+01
  0.00000000E+00  9.55249411E+00  9.55249411E+00 -1.91049882E+01  0.00000000E+00
  9.55249411E+00  9.55249411E+00 -1.91049882E+01  0.00000000E+00  9.55249411E+00
  9.55249411E+00 -1.91049882E+01  0.00000000E+00  9.55249411E+00  9.55249411E+00
 -1.91049882E+01  0.00000000E+00  9.55249411E+00  9.55249411E+00 -1.91049882E+01
  0.00000000E+00  9.55249411E+00  9.55249411E+00 -1.91049882E+01  0.00000000E+00
  9.55249411E+00  9.55249411E+00 -1.91049882E+01  0.00000000E+00  9.55249411E+00
  9.55249411E+00 -1.91049882E+01  0.00000000E+00  9.55249411E+00  9.55249411E+00
 -1.91049882E+01  0.00000000E+00  9.55249411E+00  9.55249411E+00 -1.91049882E+01
  0.00000000E+00  9.55249411E+00  9.55249411E+00 -1.91049882E+01  0.00000000E+00
  9.55249411E+00  9.55249411E+00 -1.91049882E+01  0.00000000E+00  9.55249411E+00
  9.55249411E+00 -1.91049882E+01  0.00000000E+00  9.55249411E+00  9.55249411E+00
 -1.91049882E+01  0.00000000E+00  9.55249411E+00  9.55249411E+00 -1.91049882E+01
  0.00000000E+00  9.55249411E+00  9.55249411E+00 -1.91049882E+01  0.00000000E+00
  9.55249411E+00  9.55249411E+00 -1.91049882E+01  0.00000000E+00  9.55249411E+00
  9.55249411E+00 -1.91049882E+01  0.00000000E+00  9.55249411E+00  9.55249411E+00
 -1.91049882E+01  0.00000000E+00  9.55249411E+00  9.55249411E+00 -1.91049882E+01
  0.00000000E+00  9.55249411E+00  9.55249411E+00 -1.91049882E+01  0.00000000E+00
  9.55249411E+00  9.55249411E+00 -1.91049882E+01  0.00000000E+00  9.55249411E+00
  9.55249411E+00 -1.91049882E+01  0.00000000E+00  9.55249411E+00  9.55249411E+00
 -1.91049882E+01  0.00000000E+00  9.55249411E+00  9.55249411E+00 -1.91049882E+01
  0.00000000E+00  9.55249411E+00  9.55249411E+00 -1.91049882E+01  0.00000000E+00
  9.55249411E+00  9.55249411E+00 -1.91049882E+01  0.00000000E+00  9.55249411E+00
  9.55249411E+00 -1.91049882E+01  0.00000000E+00  9.55249411E+00  9.55249411E+00
 -1.91049882E+01  0.00000000E+00  9.55249411E+00  9.55249411E+00 -1.91049882E+01
  0.00000000E+00  9.55249411E+00  9.55249411E+00 -1.91049882E+01  0.00000000E+00
  9.55249411E+00  9.55249411E+00 -1.91049882E+01  0.00000000E+00  9.55249411E+00
  9.55249411E+00 -1.91049882E+01  0.00000000E+00  9.55249411E+00  9.55249411E+00
 -1.91049882E+01  0.00000000E+00  9.55249411E+00  9.55249411E+00 -1.91049882E+01
  0.00000000E+00  9.55249411E+00  9.55249411E+00 -1.91049882E+01  0.00000000E+00
  9.55249411E+00  9.55249411E+00 -1.91049882E+01  0.00000000E+00  9.55249411E+00
  9.55249411E+00 -1.91049882E+01  0.00000000E+00  9.55249411E+00  9.55249411E+00
 -1.91049882E+01  0.00000000E+00  9.55249411E+00  9.55249411E+00 -1.91049882E+01
  0.00000000E+00  9.55249411E+00  9.55249411E+00 -1.91049882E+01  0.00000000E+00
  9.55249411E+00  9.55249411E+00 -1.91049882E+01  0.00000000E+00  9.55249411E+00
  9.55249411E+00 -1.91049882E+01  0.00000000E+00  9.55249411E+00  9.55249411E+00
 -1.91049882E+01  0.00000000E+00  9.55249411E+00  9.55249411E+00 -1.91049882E+01
  0.00000000E+00  9.55249411E+00  9.55249411E+00 -1.91049882E+01  0.00000000E+00
  9.55249411E+00  9.55249411E+00 -1.91049882E+01  0.00000000E+00  9.55249411E+00
  9.55249411E+00 -1.91049882E+01  0.00000000E+00  9.55249411E+00  9.55249411E+00
 -1.91049882E+01  0.00000000E+00  9.55249411E+00  9.55249411E+00 -1.91049882E+01
  0.00000000E+00  9.55249411E+00  9.55249411E+00 -1.91049882E+01  0.00000000E+00
  9.55249411E+00  9.55249411E+00 -1.91049882E+01  0.00000000E+00  9.55249411E+00
  9.55249411E+00 -1.91049882E+01  0.00000000E+00  9.55249411E+00  9.55249411E+00
 -1.91049882E+01  0.00000000E+00  9.55249411E+00  9.55249411E+00 -1.91049882E+01
  0.00000000E+00  9.55249411E+00  9.55249411E+00 -1.91049882E+01  0.00000000E+00
  9.55249411E+00  9.55249411E+00 -1.91049882E+01  0.00000000E+00  9.55249411E+00
  9.55249411E+00 -1.91049882E+01  0.00000000E+00  9.55249411E+00  9.55249411E+00
 -1.91049882E+01  0.00000000E+00  9.55249411E+00  9.55249411E+00 -1.91049882E+01
  0.00000000E+00  9.55249411E+00  9.55249411E+00 -1.91049882E+01  0.00000000E+00
  9.55249411E+00  9.55249411E+00 -1.91049882E+01  0.00000000E+00  9.55249411E+00
  9.55249411E+00 -1.91049882E+01  0.00000000E+00  9.55249411E+00  9.55249411E+00
 -1.91049882E+01  0.00000000E+00  9.55249411E+00  9.55249411E+00 -1.91049882E+01
  0.00000000E+00  9.55249411E+00  9.55249411E+00 -1.91049882E+01  0.00000000E+00
  9.55249411E+00  9.55249411E+00 -1.91049882E+01  0.00000000E+00  9.55249411E+00
  9.55249411E+00 -1.91049882E+01  0.00000000E+00  9.55249411E+00  9.55249411E+00
 -1.91049882E+01  0.00000000E+00  9.55249411E+00  9.55249411E+00 -1.91049882E+01
  0.00000000E+00  9.55249411E+00  9.55249411E+00 -1.91049882E+01  0.00000000E+00
  9.55249411E+00  9.55249411E+00 -1.91049882E+01  0.00000000E+00  9.55249411E+00
  9.55249411E+00 -1.91049882E+01  0.00000000E+00  9.55249411E+00  9.55249411E+00
 -1.91049882E+01  0.00000000E+00  9.55249411E+00  9.55249411E+00 -1.91049882E+01
  0.00000000E+00  9.55249411E+00  9.55249411E+00 -1.91049882E+01  0.00000000E+00
  9.55249411E+00  9.55249411E+00 -1.91049882E+01  0.00000000E+00  9.55249411E+00
  9.55249411E+00 -1.91049882E+01  0.00000000E+00  9.55249411E+00  9.55249411E+00
 -1.91049882E+01  0.00000000E+00  9.55249411E+00  9.55249411E+00 -1.91049882E+01
  0.00000000E+00  9.55249411E+00  9.55249411E+00 -1.91049882E+01  0.00000000E+00
  9.55249411E+00  9.55249411E+00 -1.91049882E+01  0.00000000E+00  9.55249411E+00
  9.55249411E+00 -1.91049882E+01  0.00000000E+00  9.55249411E+00  9.55249411E+00
 -1.91049882E+01  0.00000000E+00  9.55249411E+00  9.55249411E+00 -1.91049882E+01
  0.00000000E+00  9.55249411E+00  9.55249411E+00 -1.91049882E+01  0.00000000E+00
  9.55249411E+00  9.55249411E+00 -1.91049882E+01  0.00000000E+00  9.55249411E+00
  9.55249411E+00 -1.91049882E+01  0.00000000E+00  9.55249411E+00  9.55249411E+00
 -1.91049882E+01  0.00000000E+00  9.55249411E+00  9.55249411E+00 -1.91049882E+01
  0.00000000E+00  9.55249411E+00  9.55249411E+00 -1.91049882E+01  0.00000000E+00
  9.55249411E+00  9.55249411E+00 -1.91049882E+01  0.00000000E+00  9.55249411E+00
  9.55249411E+00 -1.91049882E+01  0.00000000E+00  9.55249411E+00  9.55249411E+00
 -1.91049882E+01  0.00000000E+00  9.55249411E+00  9.55249411E+00 -1.91049882E+01
  0.00000000E+00  9.55249411E+00  9.55249411E+00 -1.91049882E+01  0.00000000E+00
  9.55249411E+00  9.55249411E+00 -1.91049882E+01  0.00000000E+00  9.55249411E+00
  9.55249411E+00 -1.91049882E+01  0.00000000E+00  9.55249411E+00  9.55249411E+00
 -1.91049882E+01  0.00000000E+00  9.55249411E+00  9.55249411E+00 -1.91049882E+01
  0.00000000E+00  9.55249411E+00  9.55249411E+00 -1.91049882E+01  0.00000000E+00
  9.55249411E+00  9.55249411E+00 -1.91049882E+01  0.00000000E+00  9.55249411E+00
  9.55249411E+00 -1.91049882E+01  0.00000000E+00  9.55249411E+00  9.55249411E+00
 -1.91049882E+01  0.00000000E+00  9.55249411E+00  9.55249411E+00 -1.91049882E+01
  0.00000000E+00  9.55249411E+00  9.55249411E+00 -1.91049882E+01  0.00000000E+00
  9.55249411E+00  9.55249411E+00 -1.91049882E+01  0.00000000E+00  9.55249411E+00
  9.55249411E+00 -1.91049882E+01  0.00000000E+00  9.55249411E+00  9.55249411E+00
 -1.91049882E+01  0.00000000E+00  9.55249411E+00  9.55249411E+00 -1.91049882E+01
  0.00000000E+00  9.55249411E+00  9.55249411E+00 -1.91049882E+01  0.00000000E+00
  9.55249411E+00  9.55249411E+00 -1.91049882E+01  0.00000000E+00  9.55249411E+00
  9.55249411E+00 -1.91049882E+01  0.00000000E+00  9.55249411E+00  9.55249411E+00
 -1.91049882E+01  0.00000000E+00  9.55249411E+00  9.55249411E+00 -1.91049882E+01
  0.00000000E+00  9.55249411E+00  9.55249411E+00 -1.91049882E+01  0.00000000E+00
  9.55249411E+00  9.55249411E+00 -1.91049882E+01  0.00000000E+00  9.55249411E+00
  9.55249411E+00 -1.91049882E+01  0.00000000E+00  9.55249411E+00  9.55249411E+00
 -1.91049882E+01  0.00000000E+00  9.55249411E+00  9.55249411E+00 -1.91049882E+01
  0.00000000E+00  9.55249411E+00  9.55249411E+00 -1.91049882E+01  0.00000000E+00
  9.55249411E+00  9.55249411E+00 -1.91049882E+01  0.00000000E+00  9.55249411E+00
  9.55249411E+00 -1.91049882E+01  0.00000000E+00  9.55249411E+00  9.55249411E+00
 -1.91049882E+01  0.00000000E+00  9.55249411E+00  9.55249411E+00 -1.91049882E+01
  0.00000000E+00  9.55249411E+00  9.55249411E+00 -1.91049882E+01  0.00000000E+00
  9.55249411E+00  9.55249411E+00 -1.91049882E+01  0.00000000E+00  9.55249411E+00
  9.55249411E+00 -1.91049882E+01  0.00000000E+00  9.55249411E+00  9.55249411E+00
 -1.91049882E+01  0.00000000E+00  9.55249411E+00  9.55249411E+00 -1.91049882E+01
  0.00000000E+00  9.55249411E+00  9.55249411E+00 -1.91049882E+01  0.00000000E+00
  9.55249411E+00  9.55249411E+00 -1.91049882E+01  0.00000000E+00  9.55249411E+00
  9.55249411E+00 -1.91049882E+01  0.00000000E+00  9.55249411E+00  9.55249411E+00
 -1.91049882E+01  0.00000000E+00  9.55249411E+00  9.55249411E+00 -1.91049882E+01
  0.00000000E+00  9.55249411E+00  9.55249411E+00 -1.91049882E+01  0.00000000E+00
  9.55249411E+00  9.55249411E+00 -1.91049882E+01  0.00000000E+00  9.55249411E+00
  9.55249411E+00 -1.91049882E+01  0.00000000E+00  9.55249411E+00  9.55249411E+00
 -1.91049882E+01  0.00000000E+00  9.55249411E+00  9.55249411E+00 -1.91049882E+01
  0.00000000E+00  9.55249411E+00  9.55249411E+00 -1.91049882E+01  0.00000000E+00
  9.55249411E+00  9.55249411E+00 -1.91049882E+01  0.00000000E+00  9.55249411E+00
  9.55249411E+00 -1.91049882E+01  0.00000000E+00  9.55249411E+00  9.55249411E+00
 -1.91049882E+01  0.00000000E+00  9.55249411E+00  9.55249411E+00 -1.91049882E+01
  0.00000000E+00  9.55249411E+00  9.55249411E+00 -1.91049882E+01  0.00000000E+00
  9.55249411E+00  9.55249411E+00 -1.91049882E+01  0.00000000E+00  9.55249411E+00
  9.55249411E+00 -1.91049882E+01  0.00000000E+00  9.55249411E+00  9.55249411E+00
 -1.91049882E+01  0.00000000E+00  9.55249411E+00  9.55249411E+00 -1.91049882E+01
  0.00000000E+00  9.55249411E+00  9.55249411E+00 -1.91049882E+01  0.00000000E+00
  9.55249411E+00  9.55249411E+00 -1.91049882E+01  0.00000000E+00  9.55249411E+00
  9.55249411E+00 -1.91049882E+01  0.00000000E+00  9.55249411E+00  9.55249411E+00
 -1.91049882E+01  0.00000000E+00  9.55249411E+00  9.55249411E+00 -1.91049882E+01
  0.00000000E+00  9.55249411E+00  9.55249411E+00 -1.91049882E+01  0.00000000E+00
  9.55249411E+00  9.55249411E+00 -1.91049882E+01  0.00000000E+00  9.55249411E+00
  9.55249411E+00 -1.91049882E+01  0.00000000E+00  9.55249411E+00  9.55249411E+00
 -1.91049882E+01  0.00000000E+00  9.55249411E+00  9.55249411E+00 -1.91049882E+01
  0.00000000E+00  9.55249411E+00  9.55249411E+00 -1.91049882E+01  0.00000000E+00
  9.55249411E+00  9.55249411E+00 -1.91049882E+01  0.00000000E+00  9.55249411E+00
  9.55249411E+00 -1.91049882E+01  0.00000000E+00  9.55249411E+00  9.55249411E+00
 -1.91049882E+01  0.00000000E+00  9.55249411E+00  9.55249411E+00 -1.91049882E+01
  0.00000000E+00  9.55249411E+00  9.55249411E+00 -1.91049882E+01  0.00000000E+00
  9.55249411E+00  9.55249411E+00 -1.91049882E+01  0.00000000E+00  9.55249411E+00
  9.55249411E+00 -1.91049882E+01  0.00000000E+00  9.55249411E+00  9.55249411E+00
 -1.91049882E+01  0.00000000E+00  9.55249411E+00  9.55249411E+00 -1.91049882E+01
  0.00000000E+00  9.55249411E+00  9.55249411E+00 -1.91049882E+01  0.00000000E+00
  9.55249411E+00  9.55249411E+00 -1.91049882E+01  0.00000000E+00  9.55249411E+00
  9.55249411E+00 -1.91049882E+01  0.00000000E+00  9.55249411E+00  9.55249411E+00
 -1.91049882E+01  0.00000000E+00  9.55249411E+00  9.55249411E+00 -1.91049882E+01
  0.00000000E+00  9.55249411E+00  9.55249411E+00 -1.91049882E+01  0.00000000E+00
  9.55249411E+00  9.55249411E+00 -1.91049882E+01  0.00000000E+00  9.55249411E+00
  9.55249411E+00 -1.91049882E+01  0.00000000E+00  9.55249411E+00  9.55249411E+00
 -1.91049882E+01  0.00000000E+00  9.55249411E+00  9.55249411E+00 -1.91049882E+01
  0.00000000E+00  9.55249411E+00  9.55249411E+00 -1.91049882E+01  0.00000000E+00
  9.55249411E+00  9.55249411E+00 -1.91049882E+01  0.00000000E+00  9.55249411E+00
  9.55249411E+00 -1.91049882E+01  0.00000000E+00  9.55249411E+00  9.55249411E+00
 -1.91049882E+01  0.00000000E+00  9.55249411E+00  9.55249411E+00 -1.91049882E+01
  0.00000000E+00  9.55249411E+00  9.55249411E+00 -1.91049882E+01  0.00000000E+00
  9.55249411E+00  9.55249411E+00 -1.91049882E+01  0.00000000E+00  9.55249411E+00
  9.55249411E+00 -1.91049882E+01  0.00000000E+00  9.55249411E+00  9.55249411E+00
 -1.91049882E+01  0.00000000E+00  9.55249411E+00  9.55249411E+00 -1.91049882E+01
  0.00000000E+00  9.55249411E+00  9.55249411E+00 -1.91049882E+01  0.00000000E+00
  9.55249411E+00  9.55249411E+00 -1.91049882E+01  0.00000000E+00  9.55249411E+00
  9.55249411E+00 -1.91049882E+01  0.00000000E+00  9.55249411E+00  9.55249411E+00
 -1.91049882E+01  0.00000000E+00  9.55249411E+00  9.55249411E+00 -1.91049882E+01
  0.00000000E+00  9.55249411E+00  9.55249411E+00 -1.91049882E+01  0.00000000E+00
  9.55249411E+00  9.55249411E+00 -1.91049882E+01  0.00000000E+00  9.55249411E+00
  9.55249411E+00 -1.91049882E+01  0.00000000E+00  9.55249411E+00  9.55249411E+00
 -1.91049882E+01  0.00000000E+00  9.55249411E+00  9.55249411E+00 -1.91049882E+01
  0.00000000E+00  9.55249411E+00  9.55249411E+00 -1.91049882E+01  0.00000000E+00
  9.55249411E+00  9.55249411E+00 -1.91049882E+01  0.00000000E+00  9.55249411E+00
  9.55249411E+00 -1.91049882E+01  0.00000000E+00  9.55249411E+00  9.55249411E+00
 -1.91049882E+01  0.00000000E+00  9.55249411E+00  9.55249411E+00 -1.91049882E+01
  0.00000000E+00  9.55249411E+00  9.55249411E+00 -1.91049882E+01  0.00000000E+00
  9.55249411E+00  9.55249411E+00 -1.91049882E+01  0.00000000E+00  9.55249411E+00
  9.55249411E+00 -1.91049882E+01  0.00000000E+00  9.55249411E+00  9.55249411E+00
 -1.91049882E+01  0.00000000E+00  9.55249411E+00  9.55249411E+00 -1.91049882E+01
  0.00000000E+00  9.55249411E+00  9.55249411E+00 -1.91049882E+01  0.00000000E+00
  9.55249411E+00  9.55249411E+00 -1.91049882E+01  0.00000000E+00  9.55249411E+00
  9.55249411E+00 -1.91049882E+01  0.00000000E+00  9.55249411E+00  9.55249411E+00
 -1.91049882E+01  0.00000000E+00  9.55249411E+00  9.55249411E+00 -1.91049882E+01
  0.00000000E+00  9.55249411E+00  9.55249411E+00 -1.91049882E+01  0.00000000E+00
  9.55249411E+00  9.55249411E+00 -1.91049882E+01  0.00000000E+00  9.55249411E+00
  9.55249411E+00 -1.91049882E+01  0.00000000E+00  9.55249411E+00  9.55249411E+00
 -1.91049882E+01  0.00000000E+00  9.55249411E+00  9.55249411E+00 -1.91049882E+01
  0.00000000E+00  9.55249411E+00  9.55249411E+00 -1.91049882E+01  0.00000000E+00
  9.55249411E+00  9.55249411E+00 -1.91049882E+01  0.00000000E+00  9.55249411E+00
  9.55249411E+00 -1.91049882E+01  0.00000000E+00  9.55249411E+00  9.55249411E+00
 -1.91049882E+01  0.00000000E+00  9.55249411E+00  9.55249411E+00 -1.91049882E+01
  0.00000000E+00  9.55249411E+00  9.55249411E+00 -1.91049882E+01  0.00000000E+00
  9.55249411E+00  9.55249411E+00 -1.91049882E+01  0.00000000E+00  9.55249411E+00
  9.55249411E+00 -1.91049882E+01  0.00000000E+00  9.55249411E+00  9.55249411E+00
 -1.91049882E+01  0.00000000E+00  9.55249411E+00  9.55249411E+00 -1.91049882E+01
  0.00000000E+00  9.55249411E+00  9.55249411E+00 -1.91049882E+01  0.00000000E+00
  9.55249411E+00  9.55249411E+00 -1.91049882E+01  0.00000000E+00  9.55249411E+00
  9.55249411E+00 -1.91049882E+01  0.00000000E+00  9.55249411E+00  9.55249411E+00
 -1.91049882E+01  0.00000000E+00  9.55249411E+00  9.55249411E+00 -1.91049882E+01
  0.00000000E+00  9.55249411E+00  9.55249411E+00 -1.91049882E+01  0.00000000E+00
  9.55249411E+00  9.55249411E+00 -1.91049882E+01  0.00000000E+00  9.55249411E+00
  9.55249411E+00 -1.91049882E+01  0.00000000E+00  9.55249411E+00  9.55249411E+00
 -1.91049882E+01  0.00000000E+00  9.55249411E+00  9.55249411E+00 -1.91049882E+01
  0.00000000E+00  9.55249411E+00  9.55249411E+00 -1.91049882E+01  0.00000000E+00
  9.55249411E+00  9.55249411E+00 -1.91049882E+01  0.00000000E+00  9.55249411E+00
  9.55249411E+00 -1.91049882E+01  0.00000000E+00  9.55249411E+00  9.55249411E+00
 -1.91049882E+01  0.00000000E+00  9.55249411E+00  9.55249411E+00 -1.91049882E+01
  0.00000000E+00  9.55249411E+00  9.55249411E+00 -1.91049882E+01  0.00000000E+00
  9.55249411E+00  9.55249411E+00 -1.91049882E+01  0.00000000E+00  9.55249411E+00
  9.55249411E+00 -1.91049882E+01  0.00000000E+00  9.55249411E+00  9.55249411E+00
 -1.91049882E+01  0.00000000E+00  9.55249411E+00  9.55249411E+00 -1.91049882E+01
  0.00000000E+00  9.55249411E+00  9.55249411E+00 -1.91049882E+01  0.00000000E+00
  9.55249411E+00  9.55249411E+00 -1.91049882E+01  0.00000000E+00  9.55249411E+00
  9.55249411E+00 -1.91049882E+01  0.00000000E+00  9.55249411E+00  9.55249411E+00
 -1.91049882E+01  0.00000000E+00  9.55249411E+00  9.55249411E+00 -1.91049882E+01
  0.00000000E+00  9.55249411E+00  9.55249411E+00 -1.91049882E+01  0.00000000E+00
  9.55249411E+00  9.55249411E+00 -1.91049882E+01  0.00000000E+00  9.55249411E+00
  9.55249411E+00 -1.91049882E+01  0.00000000E+00  9.55249411E+00  9.55249411E+00
 -1.91049882E+01  0.00000000E+00  9.55249411E+00  9.55249411E+00 -1.91049882E+01
  0.00000000E+00  9.55249411E+00  9.55249411E+00 -1.91049882E+01  0.00000000E+00
  9.55249411E+00  9.55249411E+00 -1.91049882E+01  0.00000000E+00  9.55249411E+00
  9.55249411E+00 -1.91049882E+01  0.00000000E+00  9.55249411E+00  9.55249411E+00
 -1.91049882E+01  0.00000000E+00  9.55249411E+00  9.55249411E+00 -1.91049882E+01
  0.00000000E+00  9.55249411E+00  9.55249411E+00 -1.91049882E+01  0.00000000E+00
  9.55249411E+00  9.55249411E+00 -1.91049882E+01  0.00000000E+00  9.55249411E+00
  9.55249411E+00 -1.91049882E+01  0.00000000E+00  9.55249411E+00  9.55249411E+00
 -1.91049882E+01  0.00000000E+00  9.55249411E+00  9.55249411E+00 -1.91049882E+01
  0.00000000E+00  9.55249411E+00  9.55249411E+00 -1.91049882E+01  0.00000000E+00
  9.55249411E+00  9.55249411E+00 -1.91049882E+01  0.00000000E+00  9.55249411E+00
  9.55249411E+00 -1.91049882E+01  0.00000000E+00  9.55249411E+00  9.55249411E+00
 -1.91049882E+01  0.00000000E+00  9.55249411E+00  9.55249411E+00 -1.91049882E+01
  0.00000000E+00  9.55249411E+00  9.55249411E+00 -1.91049882E+01  0.00000000E+00
  9.55249411E+00  9.55249411E+00 -1.91049882E+01  0.00000000E+00  9.55249411E+00
  9.55249411E+00 -1.91049882E+01  0.00000000E+00  9.55249411E+00  9.55249411E+00
 -1.91049882E+01  0.00000000E+00  9.55249411E+00  9.55249411E+00 -1.91049882E+01
  0.00000000E+00  9.55249411E+00  9.55249411E+00 -1.91049882E+01  0.00000000E+00
  9.55249411E+00  9.55249411E+00 -1.91049882E+01  0.00000000E+00  9.55249411E+00
  9.55249411E+00 -1.91049882E+01  0.00000000E+00  9.55249411E+00  9.55249411E+00
 -1.91049882E+01  0.00000000E+00  9.55249411E+00  9.55249411E+00 -1.91049882E+01
  0.00000000E+00  9.55249411E+00  9.55249411E+00 -1.91049882E+01  0.00000000E+00
  9.55249411E+00  9.55249411E+00 -1.91049882E+01  0.00000000E+00  9.55249411E+00
  9.55249411E+00 -1.91049882E+01  0.00000000E+00  9.55249411E+00  9.55249411E+00
 -1.91049882E+01  0.00000000E+00  9.55249411E+00  9.55249411E+00 -1.91049882E+01
  0.00000000E+00  9.55249411E+00  9.55249411E+00 -1.91049882E+01  0.00000000E+00
  9.55249411E+00  9.55249411E+00 -1.91049882E+01  0.00000000E+00  9.55249411E+00
  9.55249411E+00 -1.91049882E+01  0.00000000E+00  9.55249411E+00  9.55249411E+00
 -1.91049882E+01  0.00000000E+00  9.55249411E+00  9.55249411E+00 -1.91049882E+01
  0.00000000E+00  9.55249411E+00  9.55249411E+00 -1.91049882E+01  0.00000000E+00
  9.55249411E+00  9.55249411E+00 -1.91049882E+01  0.00000000E+00  9.55249411E+00
  9.55249411E+00 -1.91049882E+01  0.00000000E+00  9.55249411E+00  9.55249411E+00
 -1.91049882E+01  0.00000000E+00  9.55249411E+00  9.55249411E+00 -1.91049882E+01
  0.00000000E+00  9.55249411E+00  9.55249411E+00 -1.91049882E+01  0.00000000E+00
  9.55249411E+00  9.55249411E+00 -1.91049882E+01  0.00000000E+00  9.55249411E+00
  9.55249411E+00 -1.91049882E+01  0.00000000E+00  9.55249411E+00  9.55249411E+00
 -1.91049882E+01  0.00000000E+00  9.55249411E+00  9.55249411E+00 -1.91049882E+01
  0.00000000E+00  9.55249411E+00  9.55249411E+00 -1.91049882E+01  0.00000000E+00
  9.55249411E+00  9.55249411E+00 -1.91049882E+01  0.00000000E+00  9.55249411E+00
  9.55249411E+00 -1.91049882E+01  0.00000000E+00  9.55249411E+00  9.55249411E+00
 -1.91049882E+01  0.00000000E+00  9.55249411E+00  9.55249411E+00 -1.91049882E+01
  0.00000000E+00  9.55249411E+00  9.55249411E+00 -1.91049882E+01  0.00000000E+00
  9.55249411E+00  9.55249411E+00 -1.91049882E+01  0.00000000E+00  9.55249411E+00
  9.55249411E+00 -1.91049882E+01  0.00000000E+00  9.55249411E+00  9.55249411E+00
 -1.91049882E+01  0.00000000E+00  9.55249411E+00  9.55249411E+00 -1.91049882E+01
  0.00000000E+00  9.55249411E+00  9.55249411E+00 -1.91049882E+01  0.00000000E+00
  9.55249411E+00  9.55249411E+00 -1.91049882E+01  0.00000000E+00  9.55249411E+00
  9.55249411E+00 -1.91049882E+01  0.00000000E+00  9.55249411E+00  9.55249411E+00
 -1.91049882E+01  0.00000000E+00  9.55249411E+00  9.55249411E+00 -1.91049882E+01
  0.00000000E+00  9.55249411E+00  9.55249411E+00 -1.91049882E+01  0.00000000E+00
  9.55249411E+00  9.55249411E+00 -1.91049882E+01  0.00000000E+00  9.55249411E+00
  9.55249411E+00 -1.91049882E+01  0.00000000E+00  9.55249411E+00  9.55249411E+00
 -1.91049882E+01  0.00000000E+00  9.55249411E+00  9.55249411E+00 -1.91049882E+01
  0.00000000E+00  9.55249411E+00  9.55249411E+00 -1.91049882E+01  0.00000000E+00
  9.55249411E+00  9.55249411E+00 -1.91049882E+01  0.00000000E+00  9.55249411E+00
  9.55249411E+00 -1.91049882E+01  0.00000000E+00  9.55249411E+00  9.55249411E+00
 -1.91049882E+01  0.00000000E+00  9.55249411E+00  9.55249411E+00 -1.91049882E+01
  0.00000000E+00  9.55249411E+00  9.55249411E+00 -1.91049882E+01  0.00000000E+00
  9.55249411E+00  9.55249411E+00 -1.91049882E+01  0.00000000E+00  9.55249411E+00
  9.55249411E+00 -1.91049882E+01  0.00000000E+00  9.55249411E+00  9.55249411E+00
 -1.91049882E+01  0.00000000E+00  9.55249411E+00  9.55249411E+00 -1.91049882E+01
  0.00000000E+00  9.55249411E+00  9.55249411E+00 -1.91049882E+01  0.00000000E+00
  9.55249411E+00  9.55249411E+00 -1.91049882E+01  0.00000000E+00  9.55249411E+00
  9.55249411E+00 -1.91049882E+01  0.00000000E+00  9.55249411E+00  9.55249411E+00
 -1.91049882E+01  0.00000000E+00  9.55249411E+00  9.55249411E+00 -1.91049882E+01
  0.00000000E+00  9.55249411E+00  9.55249411E+00 -1.91049882E+01  0.00000000E+00
  9.55249411E+00  9.55249411E+00 -1.91049882E+01  0.00000000E+00  9.55249411E+00
  9.55249411E+00 -1.91049882E+01  0.00000000E+00  9.55249411E+00  9.55249411E+00
 -1.91049882E+01  0.00000000E+00  9.55249411E+00  9.55249411E+00 -1.91049882E+01
  0.00000000E+00  9.55249411E+00  9.55249411E+00 -1.91049882E+01  0.00000000E+00
  9.55249411E+00  9.55249411E+00 -1.91049882E+01  0.00000000E+00  9.55249411E+00
  9.55249411E+00 -1.91049882E+01  0.00000000E+00  9.55249411E+00  9.55249411E+00
 -1.91049882E+01  0.00000000E+00  9.55249411E+00  9.55249411E+00 -1.91049882E+01
  0.00000000E+00  9.55249411E+00  9.55249411E+00 -1.91049882E+01  0.00000000E+00
  9.55249411E+00  9.55249411E+00 -1.91049882E+01  0.00000000E+00  9.55249411E+00
  9.55249411E+00 -1.91049882E+01  0.00000000E+00  9.55249411E+00  9.55249411E+00
 -1.91049882E+01  0.00000000E+00  9.55249411E+00  9.55249411E+00 -1.91049882E+01
  0.00000000E+00  9.55249411E+00  9.55249411E+00 -1.91049882E+01  0.00000000E+00
  9.55249411E+00  9.55249411E+00 -1.91049882E+01  0.00000000E+00  9.55249411E+00
  9.55249411E+00 -1.91049882E+01  0.00000000E+00  9.55249411E+00  9.55249411E+00
 -1.91049882E+01  0.00000000E+00  9.55249411E+00  9.55249411E+00 -1.91049882E+01
  0.00000000E+00  9.55249411E+00  9.55249411E+00 -1.91049882E+01  0.00000000E+00
  9.55249411E+00  9.55249411E+00 -1.91049882E+01  0.00000000E+00  9.55249411E+00
  9.55249411E+00 -1.91049882E+01  0.00000000E+00  9.55249411E+00  9.55249411E+00
 -1.91049882E+01  0.00000000E+00  9.55249411E+00  9.55249411E+00 -1.91049882E+01
  0.00000000E+00  9.55249411E+00  9.55249411E+00 -1.91049882E+01  0.00000000E+00
  9.55249411E+00  9.55249411E+00 -1.91049882E+01  0.00000000E+00  9.55249411E+00
  9.55249411E+00 -1.91049882E+01  0.00000000E+00  9.55249411E+00  9.55249411E+00
 -1.91049882E+01  0.00000000E+00  9.55249411E+00  9.55249411E+00 -1.91049882E+01
  0.00000000E+00  9.55249411E+00  9.55249411E+00 -1.91049882E+01  0.00000000E+00
  9.55249411E+00  9.55249411E+00 -1.91049882E+01  0.00000000E+00  9.55249411E+00
  9.55249411E+00 -1.91049882E+01  0.00000000E+00  9.55249411E+00  9.55249411E+00
 -1.91049882E+01  0.00000000E+00  9.55249411E+00  9.55249411E+00 -1.91049882E+01
  0.00000000E+00  9.55249411E+00  9.55249411E+00 -1.91049882E+01  0.00000000E+00
  9.55249411E+00  9.55249411E+00 -1.91049882E+01  0.00000000E+00  9.55249411E+00
  9.55249411E+00 -1.91049882E+01  0.00000000E+00  9.55249411E+00  9.55249411E+00
 -1.91049882E+01  0.00000000E+00  9.55249411E+00  9.55249411E+00 -1.91049882E+01
  0.00000000E+00  9.55249411E+00  9.55249411E+00 -1.91049882E+01  0.00000000E+00
  9.55249411E+00  9.55249411E+00 -1.91049882E+01  0.00000000E+00  9.55249411E+00
  9.55249411E+00 -1.91049882E+01  0.00000000E+00  9.55249411E+00  9.55249411E+00
 -1.91049882E+01  0.00000000E+00  9.55249411E+00  9.55249411E+00 -1.91049882E+01
  0.00000000E+00  9.55249411E+00  9.55249411E+00 -1.91049882E+01  0.00000000E+00
  9.55249411E+00  9.55249411E+00 -1.91049882E+01  0.00000000E+00  9.55249411E+00
  9.55249411E+00 -1.91049882E+01  0.00000000E+00  9.55249411E+00  9.55249411E+00
 -1.91049882E+01  0.00000000E+00  9.55249411E+00  9.55249411E+00 -1.91049882E+01
  0.00000000E+00  9.55249411E+00  9.55249411E+00 -1.91049882E+01  0.00000000E+00
  9.55249411E+00  9.55249411E+00 -1.91049882E+01  0.00000000E+00  9.55249411E+00
  9.55249411E+00 -1.91049882E+01  0.00000000E+00  9.55249411E+00  9.55249411E+00
 -1.91049882E+01  0.00000000E+00  9.55249411E+00  9.55249411E+00 -1.91049882E+01
  0.00000000E+00  9.55249411E+00  9.55249411E+00 -1.91049882E+01  0.00000000E+00
  9.55249411E+00  9.55249411E+00 -1.91049882E+01  0.00000000E+00  9.55249411E+00
  9.55249411E+00 -1.91049882E+01  0.00000000E+00  9.55249411E+00  9.55249411E+00
 -1.91049882E+01  0.00000000E+00  9.55249411E+00  9.55249411E+00 -1.91049882E+01
  0.00000000E+00  9.55249411E+00  9.55249411E+00 -1.91049882E+01  0.00000000E+00
  9.55249411E+00  9.55249411E+00 -1.91049882E+01  0.00000000E+00  9.55249411E+00
  9.55249411E+00 -1.91049882E+01  0.00000000E+00  9.55249411E+00  9.55249411E+00
 -1.91049882E+01  0.00000000E+00  9.55249411E+00  9.55249411E+00 -1.91049882E+01
  0.00000000E+00  9.55249411E+00  9.55249411E+00 -1.91049882E+01  0.00000000E+00
  9.55249411E+00  9.55249411E+00 -1.91049882E+01  0.00000000E+00  9.55249411E+00
  9.55249411E+00 -1.91049882E+01  0.00000000E+00  9.55249411E+00  9.55249411E+00
 -1.91049882E+01  0.00000000E+00  9.55249411E+00  9.55249411E+00 -1.91049882E+01
  0.00000000E+00  9.55249411E+00  9.55249411E+00 -1.91049882E+01  0.00000000E+00
  9.55249411E+00  9.55249411E+00 -1.91049882E+01  0.00000000E+00  9.55249411E+00
  9.55249411E+00 -1.91049882E+01  0.00000000E+00  9.55249411E+00  9.55249411E+00
 -1.91049882E+01  0.00000000E+00  9.55249411E+00  9.55249411E+00 -1.91049882E+01
  0.00000000E+00  9.55249411E+00  9.55249411E+00 -1.91049882E+01  0.00000000E+00
  9.55249411E+00  9.55249411E+00 -1.91049882E+01  0.00000000E+00  9.55249411E+00
  9.55249411E+00 -1.91049882E+01  0.00000000E+00  9.55249411E+00  9.55249411E+00
 -1.91049882E+01  0.00000000E+00  9.55249411E+00  9.55249411E+00 -1.91049882E+01
  0.00000000E+00  9.55249411E+00  9.55249411E+00 -1.91049882E+01  0.00000000E+00
  9.55249411E+00  9.55249411E+00 -1.91049882E+01  0.00000000E+00  9.55249411E+00
  9.55249411E+00 -1.91049882E+01  0.00000000E+00  9.55249411E+00  9.55249411E+00
 -1.91049882E+01  0.00000000E+00  9.55249411E+00  9.55249411E+00 -1.91049882E+01
  0.00000000E+00  9.55249411E+00  9.55249411E+00 -1.91049882E+01  0.00000000E+00
  9.55249411E+00  9.55249411E+00 -1.91049882E+01  0.00000000E+00  9.55249411E+00
  9.55249411E+00 -1.91049882E+01  0.00000000E+00  9.55249411E+00  9.55249411E+00
 -1.91049882E+01  0.00000000E+00  9.55249411E+00  9.55249411E+00 -1.91049882E+01
  0.00000000E+00  9.55249411E+00  9.55249411E+00 -1.91049882E+01  0.00000000E+00
  9.55249411E+00  9.55249411E+00 -1.91049882E+01  0.00000000E+00  9.55249411E+00
  9.55249411E+00 -1.91049882E+01  0.00000000E+00  9.55249411E+00  9.55249411E+00
 -1.91049882E+01  0.00000000E+00  9.55249411E+00  9.55249411E+00 -1.91049882E+01
  0.00000000E+00  9.55249411E+00  9.55249411E+00 -1.91049882E+01  0.00000000E+00
  9.55249411E+00  9.55249411E+00 -1.91049882E+01  0.00000000E+00  9.55249411E+00
  9.55249411E+00 -1.91049882E+01  0.00000000E+00  9.55249411E+00  9.55249411E+00
 -1.91049882E+01  0.00000000E+00  9.55249411E+00  9.55249411E+00 -1.91049882E+01
  0.00000000E+00  9.55249411E+00  9.55249411E+00 -1.91049882E+01  0.00000000E+00
  9.55249411E+00  9.55249411E+00 -1.91049882E+01  0.00000000E+00  9.55249411E+00
  9.55249411E+00 -1.91049882E+01  0.00000000E+00  9.55249411E+00  9.55249411E+00
 -1.91049882E+01  0.00000000E+00  9.55249411E+00  9.55249411E+00 -1.91049882E+01
  0.00000000E+00  9.55249411E+00  9.55249411E+00 -1.91049882E+01  0.00000000E+00
  9.55249411E+00  9.55249411E+00 -1.91049882E+01  0.00000000E+00  9.55249411E+00
  9.55249411E+00 -1.91049882E+01  0.00000000E+00  9.55249411E+00  9.55249411E+00
 -1.91049882E+01  0.00000000E+00  9.55249411E+00  9.55249411E+00 -1.91049882E+01
  0.00000000E+00  9.55249411E+00  9.55249411E+00 -1.91049882E+01  0.00000000E+00
  9.55249411E+00  9.55249411E+00 -1.91049882E+01  0.00000000E+00  9.55249411E+00
  9.55249411E+00 -1.91049882E+01  0.00000000E+00  9.55249411E+00  9.55249411E+00
 -1.91049882E+01  0.00000000E+00  9.55249411E+00  9.55249411E+00 -1.91049882E+01
  0.00000000E+00  9.55249411E+00  9.55249411E+00 -1.91049882E+01  0.00000000E+00
  9.55249411E+00  9.55249411E+00 -1.91049882E+01  0.00000000E+00  9.55249411E+00
  9.55249411E+00 -1.91049882E+01  0.00000000E+00  9.55249411E+00  9.55249411E+00
 -1.91049882E+01  0.00000000E+00  9.55249411E+00  9.55249411E+00 -1.91049882E+01
  0.00000000E+00  9.55249411E+00  9.55249411E+00 -1.91049882E+01  0.00000000E+00
  9.55249411E+00  9.55249411E+00 -1.91049882E+01  0.00000000E+00  9.55249411E+00
  9.55249411E+00 -1.91049882E+01  0.00000000E+00  9.55249411E+00  9.55249411E+00
 -1.91049882E+01  0.00000000E+00  9.55249411E+00  9.55249411E+00 -1.91049882E+01
  0.00000000E+00  9.55249411E+00  9.55249411E+00 -1.91049882E+01  0.00000000E+00
  9.55249411E+00  9.55249411E+00 -1.91049882E+01  0.00000000E+00  9.55249411E+00
  9.55249411E+00 -1.91049882E+01  0.00000000E+00  9.55249411E+00  9.55249411E+00
 -1.91049882E+01  0.00000000E+00  9.55249411E+00  9.55249411E+00 -1.91049882E+01
  0.00000000E+00  9.55249411E+00  9.55249411E+00 -1.91049882E+01  0.00000000E+00
  9.55249411E+00  9.55249411E+00 -1.91049882E+01  0.00000000E+00  9.55249411E+00
  9.55249411E+00 -1.91049882E+01  0.00000000E+00  9.55249411E+00  9.55249411E+00
 -1.91049882E+01  0.00000000E+00  9.55249411E+00  9.55249411E+00 -1.91049882E+01
  0.00000000E+00  9.55249411E+00  9.55249411E+00 -1.91049882E+01  0.00000000E+00
  9.55249411E+00  9.55249411E+00 -1.91049882E+01  0.00000000E+00  9.55249411E+00
  9.55249411E+00 -1.91049882E+01  0.00000000E+00  9.55249411E+00  9.55249411E+00
 -1.91049882E+01  0.00000000E+00  9.55249411E+00  9.55249411E+00 -1.91049882E+01
  0.00000000E+00  9.55249411E+00  9.55249411E+00 -1.91049882E+01  0.00000000E+00
  9.55249411E+00  9.55249411E+00 -1.91049882E+01  0.00000000E+00  9.55249411E+00
  9.55249411E+00 -1.91049882E+01  0.00000000E+00  9.55249411E+00  9.55249411E+00
 -1.91049882E+01  0.00000000E+00  9.55249411E+00  9.55249411E+00 -1.91049882E+01
  0.00000000E+00  9.55249411E+00  9.55249411E+00 -1.91049882E+01  0.00000000E+00
  9.55249411E+00  9.55249411E+00 -1.91049882E+01  0.00000000E+00  9.55249411E+00
  9.55249411E+00 -1.91049882E+01  0.00000000E+00  9.55249411E+00  9.55249411E+00
 -1.91049882E+01  0.00000000E+00  9.55249411E+00  9.55249411E+00 -1.91049882E+01
  0.00000000E+00  9.55249411E+00  9.55249411E+00 -1.91049882E+01  0.00000000E+00
  9.55249411E+00  9.55249411E+00 -1.91049882E+01  0.00000000E+00  9.55249411E+00
  9.55249411E+00 -1.91049882E+01  0.00000000E+00  9.55249411E+00  9.55249411E+00
 -1.91049882E+01  0.00000000E+00  9.55249411E+00  9.55249411E+00 -1.91049882E+01
  0.00000000E+00  9.55249411E+00  9.55249411E+00 -1.91049882E+01  0.00000000E+00
  9.55249411E+00  9.55249411E+00 -1.91049882E+01  0.00000000E+00  9.55249411E+00
  9.55249411E+00 -1.91049882E+01  0.00000000E+00  9.55249411E+00  9.55249411E+00
 -1.91049882E+01  0.00000000E+00  9.55249411E+00  9.55249411E+00 -1.91049882E+01
  0.00000000E+00  9.55249411E+00  9.55249411E+00 -1.91049882E+01  0.00000000E+00
  9.55249411E+00  9.55249411E+00 -1.91049882E+01  0.00000000E+00  9.55249411E+00
  9.55249411E+00 -1.91049882E+01  0.00000000E+00  9.55249411E+00  9.55249411E+00
 -1.91049882E+01  0.00000000E+00  9.55249411E+00  9.55249411E+00 -1.91049882E+01
  0.00000000E+00  9.55249411E+00  9.55249411E+00 -1.91049882E+01  0.00000000E+00
  9.55249411E+00  9.55249411E+00 -1.91049882E+01  0.00000000E+00  9.55249411E+00
  9.55249411E+00 -1.91049882E+01  0.00000000E+00  9.55249411E+00  9.55249411E+00
 -1.91049882E+01  0.00000000E+00  9.55249411E+00  9.55249411E+00 -1.91049882E+01
  0.00000000E+00  9.55249411E+00  9.55249411E+00 -1.91049882E+01  0.00000000E+00
  9.55249411E+00  9.55249411E+00 -1.91049882E+01  0.00000000E+00  9.55249411E+00
  9.55249411E+00 -1.91049882E+01  0.00000000E+00  9.55249411E+00  9.55249411E+00
 -1.91049882E+01  0.00000000E+00  9.55249411E+00  9.55249411E+00 -1.91049882E+01
  0.00000000E+00  9.55249411E+00  9.55249411E+00 -1.91049882E+01  0.00000000E+00
  9.55249411E+00  9.55249411E+00 -1.91049882E+01  0.00000000E+00  9.55249411E+00
  9.55249411E+00 -1.91049882E+01  0.00000000E+00  9.55249411E+00  9.55249411E+00
 -1.91049882E+01  0.00000000E+00  9.55249411E+00  9.55249411E+00 -1.91049882E+01
  0.00000000E+00  9.55249411E+00  9.55249411E+00 -1.91049882E+01  0.00000000E+00
  9.55249411E+00  9.55249411E+00 -1.91049882E+01  0.00000000E+00  9.55249411E+00
  9.55249411E+00 -1.91049882E+01  0.00000000E+00  9.55249411E+00  9.55249411E+00
 -1.91049882E+01  0.00000000E+00  9.55249411E+00  9.55249411E+00 -1.91049882E+01
  0.00000000E+00  9.55249411E+00  9.55249411E+00 -1.91049882E+01  0.00000000E+00
  9.55249411E+00  9.55249411E+00 -1.91049882E+01  0.00000000E+00  9.55249411E+00
  9.55249411E+00 -1.91049882E+01  0.00000000E+00  9.55249411E+00  9.55249411E+00
 -1.91049882E+01  0.00000000E+00  9.55249411E+00  9.55249411E+00 -1.91049882E+01
  0.00000000E+00  9.55249411E+00  9.55249411E+00 -1.91049882E+01  0.00000000E+00
  9.55249411E+00  9.55249411E+00 -1.91049882E+01  0.00000000E+00  9.55249411E+00
  9.55249411E+00 -1.91049882E+01  0.00000000E+00  9.55249411E+00  9.55249411E+00
 -1.91049882E+01  0.00000000E+00  9.55249411E+00  9.55249411E+00 -1.91049882E+01
  0.00000000E+00  9.55249411E+00  9.55249411E+00 -1.91049882E+01  0.00000000E+00
  9.55249411E+00  9.55249411E+00 -1.91049882E+01  0.00000000E+00  9.55249411E+00
  9.55249411E+00 -1.91049882E+01  0.00000000E+00  9.55249411E+00  9.55249411E+00
 -1.91049882E+01  0.00000000E+00  9.55249411E+00  9.55249411E+00 -1.91049882E+01
  0.00000000E+00  9.55249411E+00  9.55249411E+00 -1.91049882E+01  0.00000000E+00
  9.55249411E+00  9.55249411E+00 -1.91049882E+01  0.00000000E+00  9.55249411E+00
  9.55249411E+00 -1.91049882E+01  0.00000000E+00  9.55249411E+00  9.55249411E+00
 -1.91049882E+01  0.00000000E+00  9.55249411E+00  9.55249411E+00 -1.91049882E+01
  0.00000000E+00  9.55249411E+00  9.55249411E+00 -1.91049882E+01  0.00000000E+00
  9.55249411E+00  9.55249411E+00 -1.91049882E+01  0.00000000E+00  9.55249411E+00
  9.55249411E+00 -1.91049882E+01  0.00000000E+00  9.55249411E+00  9.55249411E+00
 -1.91049882E+01  0.00000000E+00  9.55249411E+00  9.55249411E+00 -1.91049882E+01
  0.00000000E+00  9.55249411E+00  9.55249411E+00 -1.91049882E+01  0.00000000E+00
  9.55249411E+00  9.55249411E+00 -1.91049882E+01  0.00000000E+00  9.55249411E+00
  9.55249411E+00 -1.91049882E+01  0.00000000E+00  9.55249411E+00  9.55249411E+00
 -1.91049882E+01  0.00000000E+00  9.55249411E+00  9.55249411E+00 -1.91049882E+01
  0.00000000E+00  9.55249411E+00  9.55249411E+00 -1.91049882E+01  0.00000000E+00
  9.55249411E+00  9.55249411E+00 -1.91049882E+01  0.00000000E+00  9.55249411E+00
  9.55249411E+00 -1.91049882E+01  0.00000000E+00  9.55249411E+00  9.55249411E+00
 -1.91049882E+01  0.00000000E+00  9.55249411E+00  9.55249411E+00 -1.91049882E+01
  0.00000000E+00  9.55249411E+00  9.55249411E+00 -1.91049882E+01  0.00000000E+00
  9.55249411E+00  9.55249411E+00 -1.91049882E+01  0.00000000E+00  9.55249411E+00
  9.55249411E+00 -1.91049882E+01  0.00000000E+00  9.55249411E+00  9.55249411E+00
 -1.91049882E+01  0.00000000E+00  9.55249411E+00  9.55249411E+00 -1.91049882E+01
  0.00000000E+00  9.55249411E+00  9.55249411E+00 -1.91049882E+01  0.00000000E+00
  9.55249411E+00  9.55249411E+00 -1.91049882E+01  0.00000000E+00  9.55249411E+00
  9.55249411E+00 -1.91049882E+01  0.00000000E+00  9.55249411E+00  9.55249411E+00
 -1.91049882E+01  0.00000000E+00  9.55249411E+00  9.55249411E+00 -1.91049882E+01
  0.00000000E+00  9.55249411E+00  9.55249411E+00 -1.91049882E+01  0.00000000E+00
  9.55249411E+00  9.55249411E+00 -1.91049882E+01  0.00000000E+00  9.55249411E+00
  9.55249411E+00 -1.91049882E+01  0.00000000E+00  9.55249411E+00  9.55249411E+00
 -1.91049882E+01  0.00000000E+00  9.55249411E+00  9.55249411E+00 -1.91049882E+01
  0.00000000E+00  9.55249411E+00  9.55249411E+00 -1.91049882E+01  0.00000000E+00
  9.55249411E+00  9.55249411E+00 -1.91049882E+01  0.00000000E+00  9.55249411E+00
  9.55249411E+00 -1.91049882E+01  0.00000000E+00  9.55249411E+00  9.55249411E+00
 -1.91049882E+01  0.00000000E+00  9.55249411E+00  9.55249411E+00 -1.91049882E+01
  0.00000000E+00  9.55249411E+00  9.55249411E+00 -1.91049882E+01  0.00000000E+00
  9.55249411E+00  9.55249411E+00 -1.91049882E+01  0.00000000E+00  9.55249411E+00
  9.55249411E+00 -1.91049882E+01  0.00000000E+00  9.55249411E+00  9.55249411E+00
 -1.91049882E+01  0.00000000E+00  9.55249411E+00  9.55249411E+00 -1.91049882E+01
  0.00000000E+00  9.55249411E+00  9.55249411E+00 -1.91049882E+01  0.00000000E+00
  9.55249411E+00  9.55249411E+00 -1.91049882E+01  0.00000000E+00  9.55249411E+00
  9.55249411E+00 -1.91049882E+01  0.00000000E+00  9.55249411E+00  9.55249411E+00
 -1.91049882E+01  0.00000000E+00  9.55249411E+00  9.55249411E+00 -1.91049882E+01
  0.00000000E+00  9.55249411E+00  9.55249411E+00 -1.91049882E+01  0.00000000E+00
  9.55249411E+00  9.55249411E+00 -1.91049882E+01  0.00000000E+00  9.55249411E+00
  9.55249411E+00 -1.91049882E+01  0.00000000E+00  9.55249411E+00  9.55249411E+00
 -1.91049882E+01  0.00000000E+00  9.55249411E+00  9.55249411E+00 -1.91049882E+01
  0.00000000E+00  9.55249411E+00  9.55249411E+00 -1.91049882E+01  0.00000000E+00
  9.55249411E+00  9.55249411E+00 -1.91049882E+01  0.00000000E+00  9.55249411E+00
  9.55249411E+00 -1.91049882E+01  0.00000000E+00  9.55249411E+00  9.55249411E+00
 -1.91049882E+01  0.00000000E+00  9.55249411E+00  9.55249411E+00 -1.91049882E+01
  0.00000000E+00  9.55249411E+00  9.55249411E+00 -1.91049882E+01  0.00000000E+00
  9.55249411E+00  9.55249411E+00 -1.91049882E+01  0.00000000E+00  9.55249411E+00
  9.55249411E+00 -1.91049882E+01  0.00000000E+00  9.55249411E+00  9.55249411E+00
 -1.91049882E+01  0.00000000E+00  9.55249411E+00  9.55249411E+00 -1.91049882E+01
  0.00000000E+00  9.55249411E+00  9.55249411E+00 -1.91049882E+01  0.00000000E+00
  9.55249411E+00  9.55249411E+00 -1.91049882E+01  0.00000000E+00  9.55249411E+00
  9.55249411E+00 -1.91049882E+01  0.00000000E+00  9.55249411E+00  9.55249411E+00
 -1.91049882E+01  0.00000000E+00  9.55249411E+00  9.55249411E+00 -1.91049882E+01
  0.00000000E+00  9.55249411E+00  9.55249411E+00 -1.91049882E+01  0.00000000E+00
  9.55249411E+00  9.55249411E+00 -1.91049882E+01  0.00000000E+00  9.55249411E+00
  9.55249411E+00 -1.91049882E+01  0.00000000E+00  9.55249411E+00  9.55249411E+00
 -1.91049882E+01  0.00000000E+00  9.55249411E+00  9.55249411E+00 -1.91049882E+01
  0.00000000E+00  9.55249411E+00  9.55249411E+00 -1.91049882E+01  0.00000000E+00
  9.55249411E+00  9.55249411E+00 -1.91049882E+01  0.00000000E+00  9.55249411E+00
  9.55249411E+00 -1.91049882E+01  0.00000000E+00  9.55249411E+00  9.55249411E+00
 -1.91049882E+01  0.00000000E+00  9.55249411E+00  9.55249411E+00 -1.91049882E+01
  0.00000000E+00  9.55249411E+00  9.55249411E+00 -1.91049882E+01  0.00000000E+00
  9.55249411E+00  9.55249411E+00 -1.91049882E+01  0.00000000E+00  9.55249411E+00
  9.55249411E+00 -1.91049882E+01  0.00000000E+00  9.55249411E+00  9.55249411E+00
 -1.91049882E+01  0.00000000E+00  9.55249411E+00  9.55249411E+00 -1.91049882E+01
  0.00000000E+00  9.55249411E+00  9.55249411E+00 -1.91049882E+01  0.00000000E+00
  9.55249411E+00  9.55249411E+00 -1.91049882E+01  0.00000000E+00  9.55249411E+00
  9.55249411E+00 -1.91049882E+01  0.00000000E+00  9.55249411E+00  9.55249411E+00
 -1.91049882E+01  0.00000000E+00  9.55249411E+00  9.55249411E+00 -1.91049882E+01
  0.00000000E+00  9.55249411E+00  9.55249411E+00 -1.91049882E+01  0.00000000E+00
  9.55249411E+00  9.55249411E+00 -1.91049882E+01  0.00000000E+00  9.55249411E+00
  9.55249411E+00 -1.91049882E+01  0.00000000E+00  9.55249411E+00  9.55249411E+00
 -1.91049882E+01  0.00000000E+00  9.55249411E+00  9.55249411E+00 -1.91049882E+01
  0.00000000E+00  9.55249411E+00  9.55249411E+00 -1.91049882E+01  0.00000000E+00
  9.55249411E+00  9.55249411E+00 -1.91049882E+01  0.00000000E+00  9.55249411E+00
  9.55249411E+00 -1.91049882E+01  0.00000000E+00  9.55249411E+00  9.55249411E+00
 -1.91049882E+01  0.00000000E+00  9.55249411E+00  9.55249411E+00 -1.91049882E+01
  0.00000000E+00  9.55249411E+00  9.55249411E+00 -1.91049882E+01  0.00000000E+00
  9.55249411E+00  9.55249411E+00 -1.91049882E+01  0.00000000E+00  9.55249411E+00
  9.55249411E+00 -1.91049882E+01  0.00000000E+00  9.55249411E+00  9.55249411E+00
 -1.91049882E+01  0.00000000E+00  9.55249411E+00  9.55249411E+00 -1.91049882E+01
  0.00000000E+00  9.55249411E+00  9.55249411E+00 -1.91049882E+01  0.00000000E+00
  9.55249411E+00  9.55249411E+00 -1.91049882E+01  0.00000000E+00  9.55249411E+00
  9.55249411E+00 -1.91049882E+01  0.00000000E+00  9.55249411E+00  9.55249411E+00
 -1.91049882E+01  0.00000000E+00  9.55249411E+00  9.55249411E+00 -1.91049882E+01
  0.00000000E+00  9.55249411E+00  9.55249411E+00 -1.91049882E+01  0.00000000E+00
  9.55249411E+00  9.55249411E+00 -1.91049882E+01  0.00000000E+00  9.55249411E+00
  9.55249411E+00 -1.91049882E+01  0.00000000E+00  9.55249411E+00  9.55249411E+00
 -1.91049882E+01  0.00000000E+00  9.55249411E+00  9.55249411E+00 -1.91049882E+01
  0.00000000E+00  9.55249411E+00  9.55249411E+00 -1.91049882E+01  0.00000000E+00
  9.55249411E+00  9.55249411E+00 -1.91049882E+01  0.00000000E+00  9.55249411E+00
  9.55249411E+00 -1.91049882E+01  0.00000000E+00  9.55249411E+00  9.55249411E+00
 -1.91049882E+01  0.00000000E+00  9.55249411E+00  9.55249411E+00 -1.91049882E+01
  0.00000000E+00  9.55249411E+00  9.55249411E+00 -1.91049882E+01  0.00000000E+00
  9.55249411E+00  9.55249411E+00 -1.91049882E+01  0.00000000E+00  9.55249411E+00
  9.55249411E+00 -1.91049882E+01  0.00000000E+00  9.55249411E+00  9.55249411E+00
 -1.91049882E+01  0.00000000E+00  9.55249411E+00  9.55249411E+00 -1.91049882E+01
  0.00000000E+00  9.55249411E+00  9.55249411E+00 -1.91049882E+01  0.00000000E+00
  9.55249411E+00  9.55249411E+00 -1.91049882E+01  0.00000000E+00  9.55249411E+00
  9.55249411E+00 -1.91049882E+01  0.00000000E+00  9.55249411E+00  9.55249411E+00
 -1.91049882E+01  0.00000000E+00  9.55249411E+00  9.55249411E+00 -1.91049882E+01
  0.00000000E+00  9.55249411E+00  9.55249411E+00 -1.91049882E+01  0.00000000E+00
  9.55249411E+00  9.55249411E+00 -1.91049882E+01  0.00000000E+00  9.55249411E+00
  9.55249411E+00 -1.91049882E+01  0.00000000E+00  9.55249411E+00  9.55249411E+00
 -1.91049882E+01  0.00000000E+00  9.55249411E+00  9.55249411E+00 -1.91049882E+01
  0.00000000E+00  9.55249411E+00  9.55249411E+00 -1.91049882E+01  0.00000000E+00
  9.55249411E+00  9.55249411E+00 -1.91049882E+01  0.00000000E+00  9.55249411E+00
  9.55249411E+00 -1.91049882E+01  0.00000000E+00  9.55249411E+00  9.55249411E+00
 -1.91049882E+01  0.00000000E+00  9.55249411E+00  9.55249411E+00 -1.91049882E+01
  0.00000000E+00  9.55249411E+00  9.55249411E+00 -1.91049882E+01  0.00000000E+00
  9.55249411E+00  9.55249411E+00 -1.91049882E+01  0.00000000E+00  9.55249411E+00
  9.55249411E+00 -1.91049882E+01  0.00000000E+00  9.55249411E+00  9.55249411E+00
 -1.91049882E+01  0.00000000E+00  9.55249411E+00  9.55249411E+00 -1.91049882E+01
  0.00000000E+00  9.55249411E+00  9.55249411E+00 -1.91049882E+01  0.00000000E+00
  9.55249411E+00  9.55249411E+00 -1.91049882E+01  0.00000000E+00  9.55249411E+00
  9.55249411E+00 -1.91049882E+01  0.00000000E+00  9.55249411E+00  9.55249411E+00
 -1.91049882E+01  0.00000000E+00  9.55249411E+00  9.55249411E+00 -1.91049882E+01
  0.00000000E+00  9.55249411E+00  9.55249411E+00 -1.91049882E+01  0.00000000E+00
  9.55249411E+00  9.55249411E+00 -1.91049882E+01  0.00000000E+00  9.55249411E+00
  9.55249411E+00 -1.91049882E+01  0.00000000E+00  9.55249411E+00  9.55249411E+00
 -1.91049882E+01  0.00000000E+00  9.55249411E+00  9.55249411E+00 -1.91049882E+01
  0.00000000E+00  9.55249411E+00  9.55249411E+00 -1.91049882E+01  0.00000000E+00
  9.55249411E+00  9.55249411E+00 -1.91049882E+01  0.00000000E+00  9.55249411E+00
  9.55249411E+00 -1.91049882E+01  0.00000000E+00  9.55249411E+00  9.55249411E+00
 -1.91049882E+01  0.00000000E+00  9.55249411E+00  9.55249411E+00 -1.91049882E+01
  0.00000000E+00  9.55249411E+00  9.55249411E+00 -1.91049882E+01  0.00000000E+00
  9.55249411E+00  9.55249411E+00 -1.91049882E+01  0.00000000E+00  9.55249411E+00
  9.55249411E+00 -1.91049882E+01  0.00000000E+00  9.55249411E+00  9.55249411E+00
 -1.91049882E+01  0.00000000E+00  9.55249411E+00  9.55249411E+00 -1.91049882E+01
  0.00000000E+00  9.55249411E+00  9.55249411E+00 -1.91049882E+01  0.00000000E+00
  9.55249411E+00  9.55249411E+00 -1.91049882E+01  0.00000000E+00  9.55249411E+00
  9.55249411E+00 -1.91049882E+01  0.00000000E+00  9.55249411E+00  9.55249411E+00
 -1.91049882E+01  0.00000000E+00  9.55249411E+00  9.55249411E+00 -1.91049882E+01
  0.00000000E+00  9.55249411E+00  9.55249411E+00 -1.91049882E+01  0.00000000E+00
  9.55249411E+00  9.55249411E+00 -1.91049882E+01  0.00000000E+00  9.55249411E+00
  9.55249411E+00 -1.91049882E+01  0.00000000E+00  9.55249411E+00  9.55249411E+00
 -1.91049882E+01  0.00000000E+00  9.55249411E+00  9.55249411E+00 -1.91049882E+01
  0.00000000E+00  9.55249411E+00  9.55249411E+00 -1.91049882E+01  0.00000000E+00
  9.55249411E+00  9.55249411E+00 -1.91049882E+01  0.00000000E+00  9.55249411E+00
  9.55249411E+00 -1.91049882E+01  0.00000000E+00  9.55249411E+00  9.55249411E+00
 -1.91049882E+01  0.00000000E+00  9.55249411E+00  9.55249411E+00 -1.91049882E+01
  0.00000000E+00  9.55249411E+00  9.55249411E+00 -1.91049882E+01  0.00000000E+00
  9.55249411E+00  9.55249411E+00 -1.91049882E+01  0.00000000E+00  9.55249411E+00
  9.55249411E+00 -1.91049882E+01  0.00000000E+00  9.55249411E+00  9.55249411E+00
 -1.91049882E+01  0.00000000E+00  9.55249411E+00  9.55249411E+00 -1.91049882E+01
  0.00000000E+00  9.55249411E+00  9.55249411E+00 -1.91049882E+01  0.00000000E+00
  9.55249411E+00  9.55249411E+00 -1.91049882E+01  0.00000000E+00  9.55249411E+00
  9.55249411E+00 -1.91049882E+01  0.00000000E+00  9.55249411E+00  9.55249411E+00
 -1.91049882E+01  0.00000000E+00  9.55249411E+00  9.55249411E+00 -1.91049882E+01
  0.00000000E+00  9.55249411E+00  9.55249411E+00 -1.91049882E+01  0.00000000E+00
  9.55249411E+00  9.55249411E+00 -1.91049882E+01  0.00000000E+00  9.55249411E+00
  9.55249411E+00 -1.91049882E+01  0.00000000E+00  9.55249411E+00  9.55249411E+00
 -1.91049882E+01  0.00000000E+00  9.55249411E+00  9.55249411E+00 -1.91049882E+01
  0.00000000E+00  9.55249411E+00  9.55249411E+00 -1.91049882E+01  0.00000000E+00
  9.55249411E+00  9.55249411E+00 -1.91049882E+01  0.00000000E+00  9.55249411E+00
  9.55249411E+00 -1.91049882E+01  0.00000000E+00  9.55249411E+00  9.55249411E+00
 -1.91049882E+01  0.00000000E+00  9.55249411E+00  9.55249411E+00 -1.91049882E+01
  0.00000000E+00  9.55249411E+00  9.55249411E+00 -1.91049882E+01  0.00000000E+00
  9.55249411E+00  9.55249411E+00 -1.91049882E+01  0.00000000E+00  9.55249411E+00
  9.55249411E+00 -1.91049882E+01  0.00000000E+00  9.55249411E+00  9.55249411E+00
 -1.91049882E+01  0.00000000E+00  9.55249411E+00  9.55249411E+00 -1.91049882E+01
  0.00000000E+00  9.55249411E+00  9.55249411E+00 -1.91049882E+01  0.00000000E+00
  9.55249411E+00  9.55249411E+00 -1.91049882E+01  0.00000000E+00  9.55249411E+00
  9.55249411E+00 -1.91049882E+01  0.00000000E+00  9.55249411E+00  9.55249411E+00
 -1.91049882E+01  0.00000000E+00  9.55249411E+00  9.55249411E+00 -1.91049882E+01
  0.00000000E+00  9.55249411E+00  9.55249411E+00 -1.91049882E+01  0.00000000E+00
  9.55249411E+00  9.55249411E+00 -1.91049882E+01  0.00000000E+00  9.55249411E+00
  9.55249411E+00 -1.91049882E+01  0.00000000E+00  9.55249411E+00  9.55249411E+00
 -1.91049882E+01  0.00000000E+00  9.55249411E+00  9.55249411E+00 -1.91049882E+01
  0.00000000E+00  9.55249411E+00  9.55249411E+00 -1.91049882E+01  0.00000000E+00
  9.55249411E+00  9.55249411E+00 -1.91049882E+01  0.00000000E+00  9.55249411E+00
  9.55249411E+00 -1.91049882E+01  0.00000000E+00  9.55249411E+00  9.55249411E+00
 -1.91049882E+01  0.00000000E+00  9.55249411E+00  9.55249411E+00 -1.91049882E+01
  0.00000000E+00  9.55249411E+00  9.55249411E+00 -1.91049882E+01  0.00000000E+00
  9.55249411E+00  9.55249411E+00 -1.91049882E+01  0.00000000E+00  9.55249411E+00
  9.55249411E+00 -1.91049882E+01  0.00000000E+00  9.55249411E+00  9.55249411E+00
 -1.91049882E+01  0.00000000E+00  9.55249411E+00  9.55249411E+00 -1.91049882E+01
  0.00000000E+00  9.55249411E+00  9.55249411E+00 -1.91049882E+01  0.00000000E+00
  9.55249411E+00  9.55249411E+00 -1.91049882E+01  0.00000000E+00  9.55249411E+00
  9.55249411E+00 -1.91049882E+01  0.00000000E+00  9.55249411E+00  9.55249411E+00
 -1.91049882E+01  0.00000000E+00  9.55249411E+00  9.55249411E+00 -1.91049882E+01
  0.00000000E+00  9.55249411E+00  9.55249411E+00 -1.91049882E+01  0.00000000E+00
  9.55249411E+00  9.55249411E+00 -1.91049882E+01  0.00000000E+00  9.55249411E+00
  9.55249411E+00 -1.91049882E+01  0.00000000E+00  9.55249411E+00  9.55249411E+00
 -1.91049882E+01  0.00000000E+00  9.55249411E+00  9.55249411E+00 -1.91049882E+01
  0.00000000E+00  9.55249411E+00  9.55249411E+00 -1.91049882E+01  0.00000000E+00
  9.55249411E+00  9.55249411E+00 -1.91049882E+01  0.00000000E+00  9.55249411E+00
  9.55249411E+00 -1.91049882E+01  0.00000000E+00  9.55249411E+00  9.55249411E+00
 -1.91049882E+01  0.00000000E+00  9.55249411E+00  9.55249411E+00 -1.91049882E+01
  0.00000000E+00  9.55249411E+00  9.55249411E+00 -1.91049882E+01  0.00000000E+00
  9.55249411E+00  9.55249411E+00 -1.91049882E+01  0.00000000E+00  9.55249411E+00
  9.55249411E+00 -1.91049882E+01  0.00000000E+00  9.55249411E+00  9.55249411E+00
 -1.91049882E+01  0.00000000E+00  9.55249411E+00  9.55249411E+00 -1.91049882E+01
  0.00000000E+00  9.55249411E+00  9.55249411E+00 -1.91049882E+01  0.00000000E+00
  9.55249411E+00  9.55249411E+00 -1.91049882E+01  0.00000000E+00  9.55249411E+00
  9.55249411E+00 -1.91049882E+01  0.00000000E+00  9.55249411E+00  9.55249411E+00
 -1.91049882E+01  0.00000000E+00  9.55249411E+00  9.55249411E+00 -1.91049882E+01
  0.00000000E+00  9.55249411E+00  9.55249411E+00 -1.91049882E+01  0.00000000E+00
  9.55249411E+00  9.55249411E+00 -1.91049882E+01  0.00000000E+00  9.55249411E+00
  9.55249411E+00 -1.91049882E+01  0.00000000E+00  9.55249411E+00  9.55249411E+00
 -1.91049882E+01  0.00000000E+00  9.55249411E+00  9.55249411E+00 -1.91049882E+01
  0.00000000E+00  9.55249411E+00  9.55249411E+00 -1.91049882E+01  0.00000000E+00
  9.55249411E+00  9.55249411E+00 -1.91049882E+01  0.00000000E+00  9.55249411E+00
  9.55249411E+00 -1.91049882E+01  0.00000000E+00  9.55249411E+00  9.55249411E+00
 -1.91049882E+01  0.00000000E+00  9.55249411E+00  9.55249411E+00 -1.91049882E+01
  0.00000000E+00  9.55249411E+00  9.55249411E+00 -1.91049882E+01  0.00000000E+00
  9.55249411E+00  9.55249411E+00 -1.91049882E+01  0.00000000E+00  9.55249411E+00
  9.55249411E+00 -1.91049882E+01  0.00000000E+00  9.55249411E+00  9.55249411E+00
 -1.91049882E+01  0.00000000E+00  9.55249411E+00  9.55249411E+00 -1.91049882E+01
  0.00000000E+00  9.55249411E+00  9.55249411E+00 -1.91049882E+01  0.00000000E+00
  9.55249411E+00  9.55249411E+00 -1.91049882E+01  0.00000000E+00  9.55249411E+00
  9.55249411E+00 -1.91049882E+01  0.00000000E+00  9.55249411E+00  9.55249411E+00
 -1.91049882E+01  0.00000000E+00  9.55249411E+00  9.55249411E+00 -1.91049882E+01
  0.00000000E+00  9.55249411E+00  9.55249411E+00 -1.91049882E+01  0.00000000E+00
  9.55249411E+00  9.55249411E+00 -1.91049882E+01  0.00000000E+00  9.55249411E+00
  9.55249411E+00 -1.91049882E+01  0.00000000E+00  9.55249411E+00  9.55249411E+00
 -1.91049882E+01  0.00000000E+00  9.55249411E+00  9.55249411E+00 -1.91049882E+01
  0.00000000E+00  9.55249411E+00  9.55249411E+00 -1.91049882E+01  0.00000000E+00
  9.55249411E+00  9.55249411E+00 -1.91049882E+01  0.00000000E+00  9.55249411E+00
  9.55249411E+00 -1.91049882E+01  0.00000000E+00  9.55249411E+00  9.55249411E+00
 -1.91049882E+01  0.00000000E+00  9.55249411E+00  9.55249411E+00 -1.91049882E+01
  0.00000000E+00  9.55249411E+00  9.55249411E+00 -1.91049882E+01  0.00000000E+00
  9.55249411E+00  9.55249411E+00 -1.91049882E+01  0.00000000E+00  9.55249411E+00
  9.55249411E+00 -1.91049882E+01  0.00000000E+00  9.55249411E+00  9.55249411E+00
 -1.91049882E+01  0.00000000E+00  9.55249411E+00  9.55249411E+00 -1.91049882E+01
  0.00000000E+00  9.55249411E+00  9.55249411E+00 -1.91049882E+01  0.00000000E+00
  9.55249411E+00  9.55249411E+00 -1.91049882E+01  0.00000000E+00  9.55249411E+00
  9.55249411E+00 -1.91049882E+01  0.00000000E+00  9.55249411E+00  9.55249411E+00
 -1.91049882E+01  0.00000000E+00  9.55249411E+00  9.55249411E+00 -1.91049882E+01
  0.00000000E+00  9.55249411E+00  9.55249411E+00 -1.91049882E+01  0.00000000E+00
  9.55249411E+00  9.55249411E+00 -1.91049882E+01  0.00000000E+00  9.55249411E+00
  9.55249411E+00 -1.91049882E+01  0.00000000E+00  9.55249411E+00  9.55249411E+00
 -1.91049882E+01  0.00000000E+00  9.55249411E+00  9.55249411E+00 -1.91049882E+01
  0.00000000E+00  9.55249411E+00  9.55249411E+00 -1.91049882E+01  0.00000000E+00
  9.55249411E+00  9.55249411E+00 -1.91049882E+01  0.00000000E+00  9.55249411E+00
  9.55249411E+00 -1.91049882E+01  0.00000000E+00  9.55249411E+00  9.55249411E+00
 -1.91049882E+01  0.00000000E+00  9.55249411E+00  9.55249411E+00 -1.91049882E+01
  0.00000000E+00  9.55249411E+00  9.55249411E+00 -1.91049882E+01  0.00000000E+00
  9.55249411E+00  9.55249411E+00 -1.91049882E+01  0.00000000E+00  9.55249411E+00
  9.55249411E+00 -1.91049882E+01  0.00000000E+00  9.55249411E+00  9.55249411E+00
 -1.91049882E+01  0.00000000E+00  9.55249411E+00  9.55249411E+00 -1.91049882E+01
  0.00000000E+00  9.55249411E+00  9.55249411E+00 -1.91049882E+01  0.00000000E+00
  9.55249411E+00  9.55249411E+00 -1.91049882E+01  0.00000000E+00  9.55249411E+00
  9.55249411E+00 -1.91049882E+01  0.00000000E+00  9.55249411E+00  9.55249411E+00
 -1.91049882E+01  0.00000000E+00  9.55249411E+00  9.55249411E+00 -1.91049882E+01
  0.00000000E+00  9.55249411E+00  9.55249411E+00 -1.91049882E+01  0.00000000E+00
  9.55249411E+00  9.55249411E+00 -1.91049882E+01  0.00000000E+00  9.55249411E+00
  9.55249411E+00 -1.91049882E+01  0.00000000E+00  9.55249411E+00  9.55249411E+00
 -1.91049882E+01  0.00000000E+00  9.55249411E+00  9.55249411E+00 -1.91049882E+01
  0.00000000E+00  9.55249411E+00  9.55249411E+00 -1.91049882E+01  0.00000000E+00
  9.55249411E+00  9.55249411E+00 -1.91049882E+01  0.00000000E+00  9.55249411E+00
  9.55249411E+00 -1.91049882E+01  0.00000000E+00  9.55249411E+00  9.55249411E+00
 -1.91049882E+01  0.00000000E+00  9.55249411E+00  9.55249411E+00 -1.91049882E+01
  0.00000000E+00  9.55249411E+00  9.55249411E+00 -1.91049882E+01  0.00000000E+00
  9.55249411E+00  9.55249411E+00 -1.91049882E+01  0.00000000E+00  9.55249411E+00
  9.55249411E+00 -1.91049882E+01  0.00000000E+00  9.55249411E+00  9.55249411E+00
 -1.91049882E+01  0.00000000E+00  9.55249411E+00  9.55249411E+00 -1.91049882E+01
  0.00000000E+00  9.55249411E+00  9.55249411E+00 -1.91049882E+01  0.00000000E+00
  9.55249411E+00  9.55249411E+00 -1.91049882E+01  0.00000000E+00  9.55249411E+00
  9.55249411E+00 -1.91049882E+01  0.00000000E+00  9.55249411E+00  9.55249411E+00
 -1.91049882E+01  0.00000000E+00  9.55249411E+00  9.55249411E+00 -1.91049882E+01
  0.00000000E+00  9.55249411E+00  9.55249411E+00 -1.91049882E+01  0.00000000E+00
  9.55249411E+00  9.55249411E+00 -1.91049882E+01  0.00000000E+00  9.55249411E+00
  9.55249411E+00 -1.91049882E+01  0.00000000E+00  9.55249411E+00  9.55249411E+00
 -1.91049882E+01  0.00000000E+00  9.55249411E+00  9.55249411E+00 -1.91049882E+01
  0.00000000E+00  9.55249411E+00  9.55249411E+00 -1.91049882E+01  0.00000000E+00
  9.55249411E+00  9.55249411E+00 -1.91049882E+01  0.00000000E+00  9.55249411E+00
  9.55249411E+00 -1.91049882E+01  0.00000000E+00  9.55249411E+00  9.55249411E+00
 -1.91049882E+01  0.00000000E+00  9.55249411E+00  9.55249411E+00 -1.91049882E+01
  0.00000000E+00  9.55249411E+00  9.55249411E+00 -1.91049882E+01  0.00000000E+00
  9.55249411E+00  9.55249411E+00 -1.91049882E+01  0.00000000E+00  9.55249411E+00
  9.55249411E+00 -1.91049882E+01  0.00000000E+00  9.55249411E+00  9.55249411E+00
 -1.91049882E+01  0.00000000E+00  9.55249411E+00  9.55249411E+00 -1.91049882E+01
  0.00000000E+00  9.55249411E+00  9.55249411E+00 -1.91049882E+01  0.00000000E+00
  9.55249411E+00  9.55249411E+00 -1.91049882E+01  0.00000000E+00  9.55249411E+00
  9.55249411E+00 -1.91049882E+01  0.00000000E+00  9.55249411E+00  9.55249411E+00
 -1.91049882E+01  0.00000000E+00  9.55249411E+00  9.55249411E+00 -1.91049882E+01
  0.00000000E+00  9.55249411E+00  9.55249411E+00 -1.91049882E+01  0.00000000E+00
  9.55249411E+00  9.55249411E+00 -1.91049882E+01  0.00000000E+00  9.55249411E+00
  9.55249411E+00 -1.91049882E+01  0.00000000E+00  9.55249411E+00  9.55249411E+00
 -1.91049882E+01  0.00000000E+00  9.55249411E+00  9.55249411E+00 -1.91049882E+01
  0.00000000E+00  9.55249411E+00  9.55249411E+00 -1.91049882E+01  0.00000000E+00
  9.55249411E+00  9.55249411E+00 -1.91049882E+01  0.00000000E+00  9.55249411E+00
  9.55249411E+00 -1.91049882E+01  0.00000000E+00  9.55249411E+00  9.55249411E+00
 -1.91049882E+01  0.00000000E+00  9.55249411E+00  9.55249411E+00 -1.91049882E+01
  0.00000000E+00  9.55249411E+00  9.55249411E+00 -1.91049882E+01  0.00000000E+00
  9.55249411E+00  9.55249411E+00 -1.91049882E+01  0.00000000E+00  9.55249411E+00
  9.55249411E+00 -1.91049882E+01  0.00000000E+00  9.55249411E+00  9.55249411E+00
 -1.91049882E+01  0.00000000E+00  9.55249411E+00  9.55249411E+00 -1.91049882E+01
  0.00000000E+00  9.55249411E+00  9.55249411E+00 -1.91049882E+01  0.00000000E+00
  9.55249411E+00  9.55249411E+00 -1.91049882E+01  0.00000000E+00  9.55249411E+00
  9.55249411E+00 -1.91049882E+01  0.00000000E+00  9.55249411E+00  9.55249411E+00
 -1.91049882E+01  0.00000000E+00  9.55249411E+00  9.55249411E+00 -1.91049882E+01
  0.00000000E+00  9.55249411E+00  9.55249411E+00 -1.91049882E+01  0.00000000E+00
  9.55249411E+00  9.55249411E+00 -1.91049882E+01  0.00000000E+00  9.55249411E+00
  9.55249411E+00 -1.91049882E+01  0.00000000E+00  9.55249411E+00  9.55249411E+00
 -1.91049882E+01  0.00000000E+00  9.55249411E+00  9.55249411E+00 -1.91049882E+01
  0.00000000E+00  9.55249411E+00  9.55249411E+00 -1.91049882E+01  0.00000000E+00
  9.55249411E+00  9.55249411E+00 -1.91049882E+01  0.00000000E+00  9.55249411E+00
  9.55249411E+00 -1.91049882E+01  0.00000000E+00  9.55249411E+00  9.55249411E+00
 -1.91049882E+01  0.00000000E+00  9.55249411E+00  9.55249411E+00 -1.91049882E+01
  0.00000000E+00  9.55249411E+00  9.55249411E+00 -1.91049882E+01  0.00000000E+00
  9.55249411E+00  9.55249411E+00 -1.91049882E+01  0.00000000E+00  9.55249411E+00
  9.55249411E+00 -1.91049882E+01  0.00000000E+00  9.55249411E+00  9.55249411E+00
 -1.91049882E+01  0.00000000E+00  9.55249411E+00  9.55249411E+00 -1.91049882E+01
  0.00000000E+00  9.55249411E+00  9.55249411E+00 -1.91049882E+01  0.00000000E+00
  9.55249411E+00  9.55249411E+00 -1.91049882E+01  0.00000000E+00  9.55249411E+00
  9.55249411E+00 -1.91049882E+01  0.00000000E+00  9.55249411E+00  9.55249411E+00
 -1.91049882E+01  0.00000000E+00  9.55249411E+00  9.55249411E+00 -1.91049882E+01
  0.00000000E+00  9.55249411E+00  9.55249411E+00 -1.91049882E+01  0.00000000E+00
  9.55249411E+00  9.55249411E+00 -1.91049882E+01  0.00000000E+00  9.55249411E+00
  9.55249411E+00 -1.91049882E+01  0.00000000E+00  9.55249411E+00  9.55249411E+00
 -1.91049882E+01  0.00000000E+00  9.55249411E+00  9.55249411E+00 -1.91049882E+01
  0.00000000E+00  9.55249411E+00  9.55249411E+00 -1.91049882E+01  0.00000000E+00
  9.55249411E+00  9.55249411E+00 -1.91049882E+01  0.00000000E+00  9.55249411E+00
  9.55249411E+00 -1.91049882E+01  0.00000000E+00  9.55249411E+00  9.55249411E+00
 -1.91049882E+01  0.00000000E+00  9.55249411E+00  9.55249411E+00 -1.91049882E+01
  0.00000000E+00  9.55249411E+00  9.55249411E+00 -1.91049882E+01  0.00000000E+00
  9.55249411E+00  9.55249411E+00 -1.91049882E+01  0.00000000E+00  9.55249411E+00
  9.55249411E+00 -1.91049882E+01  0.00000000E+00  9.55249411E+00  9.55249411E+00
 -1.91049882E+01  0.00000000E+00  9.55249411E+00  9.55249411E+00 -1.91049882E+01
  0.00000000E+00  9.55249411E+00  9.55249411E+00 -1.91049882E+01  0.00000000E+00
  9.55249411E+00  9.55249411E+00 -1.91049882E+01  0.00000000E+00  9.55249411E+00
  9.55249411E+00 -1.91049882E+01  0.00000000E+00  9.55249411E+00  9.55249411E+00
 -1.91049882E+01  0.00000000E+00  9.55249411E+00  9.55249411E+00 -1.91049882E+01
  0.00000000E+00  9.55249411E+00  9.55249411E+00 -1.91049882E+01  0.00000000E+00
  9.55249411E+00  9.55249411E+00 -1.91049882E+01  0.00000000E+00  9.55249411E+00
  9.55249411E+00 -1.91049882E+01  0.00000000E+00  9.55249411E+00  9.55249411E+00
 -1.91049882E+01  0.00000000E+00  9.55249411E+00  9.55249411E+00 -1.91049882E+01
  0.00000000E+00  9.55249411E+00  9.55249411E+00 -1.91049882E+01  0.00000000E+00
  9.55249411E+00  9.55249411E+00 -1.91049882E+01  0.00000000E+00  9.55249411E+00
  9.55249411E+00 -1.91049882E+01  0.00000000E+00  9.55249411E+00  9.55249411E+00
 -1.91049882E+01  0.00000000E+00  9.55249411E+00  9.55249411E+00 -1.91049882E+01
  0.00000000E+00  9.55249411E+00  9.55249411E+00 -1.91049882E+01  0.00000000E+00
  9.55249411E+00  9.55249411E+00 -1.91049882E+01  0.00000000E+00  9.55249411E+00
  9.55249411E+00 -1.91049882E+01  0.00000000E+00  9.55249411E+00  9.55249411E+00
 -1.91049882E+01  0.00000000E+00  9.55249411E+00  9.55249411E+00 -1.91049882E+01
  0.00000000E+00  9.55249411E+00  9.55249411E+00 -1.91049882E+01  0.00000000E+00
  9.55249411E+00  9.55249411E+00 -1.91049882E+01  0.00000000E+00  9.55249411E+00
  9.55249411E+00 -1.91049882E+01  0.00000000E+00  9.55249411E+00  9.55249411E+00
 -1.91049882E+01  0.00000000E+00  9.55249411E+00  9.55249411E+00 -1.91049882E+01
  0.00000000E+00  9.55249411E+00  9.55249411E+00 -1.91049882E+01  0.00000000E+00
  9.55249411E+00  9.55249411E+00 -1.91049882E+01  0.00000000E+00  9.55249411E+00
  9.55249411E+00 -1.91049882E+01  0.00000000E+00  9.55249411E+00  9.55249411E+00
 -1.91049882E+01  0.00000000E+00  9.55249411E+00  9.55249411E+00 -1.91049882E+01
  0.00000000E+00  9.55249411E+00  9.55249411E+00 -1.91049882E+01  0.00000000E+00
  9.55249411E+00  9.55249411E+00 -1.91049882E+01  0.00000000E+00  9.55249411E+00
  9.55249411E+00 -1.91049882E+01  0.00000000E+00  9.55249411E+00  9.55249411E+00
 -1.91049882E+01  0.00000000E+00  9.55249411E+00  9.55249411E+00 -1.91049882E+01
  0.00000000E+00  9.55249411E+00  9.55249411E+00 -1.91049882E+01  0.00000000E+00
  9.55249411E+00  9.55249411E+00 -1.91049882E+01  0.00000000E+00  9.55249411E+00
  9.55249411E+00 -1.91049882E+01  0.00000000E+00  9.55249411E+00  9.55249411E+00
 -1.91049882E+01  0.00000000E+00  9.55249411E+00  9.55249411E+00 -1.91049882E+01
  0.00000000E+00  9.55249411E+00  9.55249411E+00 -1.91049882E+01  0.00000000E+00
  9.55249411E+00  9.55249411E+00 -1.91049882E+01  0.00000000E+00  9.55249411E+00
  9.55249411E+00 -1.91049882E+01  0.00000000E+00  9.55249411E+00  9.55249411E+00
 -1.91049882E+01  0.00000000E+00  9.55249411E+00  9.55249411E+00 -1.91049882E+01
  0.00000000E+00  9.55249411E+00  9.55249411E+00 -1.91049882E+01  0.00000000E+00
  9.55249411E+00  9.55249411E+00 -1.91049882E+01  0.00000000E+00  9.55249411E+00
  9.55249411E+00 -1.91049882E+01  0.00000000E+00  9.55249411E+00  9.55249411E+00
 -1.91049882E+01  0.00000000E+00  9.55249411E+00  9.55249411E+00 -1.91049882E+01
  0.00000000E+00  9.55249411E+00  9.55249411E+00 -1.91049882E+01  0.00000000E+00
  9.55249411E+00  9.55249411E+00 -1.91049882E+01  0.00000000E+00  9.55249411E+00
  9.55249411E+00 -1.91049882E+01  0.00000000E+00  9.55249411E+00  9.55249411E+00
 -1.91049882E+01  0.00000000E+00  9.55249411E+00  9.55249411E+00 -1.91049882E+01
  0.00000000E+00  9.55249411E+00  9.55249411E+00 -1.91049882E+01  0.00000000E+00
  9.55249411E+00  9.55249411E+00 -1.91049882E+01  0.00000000E+00  9.55249411E+00
  9.55249411E+00 -1.91049882E+01  0.00000000E+00  9.55249411E+00  9.55249411E+00
 -1.91049882E+01  0.00000000E+00  9.55249411E+00  9.55249411E+00 -1.91049882E+01
  0.00000000E+00  9.55249411E+00  9.55249411E+00 -1.91049882E+01  0.00000000E+00
  9.55249411E+00  9.55249411E+00 -1.91049882E+01  0.00000000E+00  9.55249411E+00
  9.55249411E+00 -1.91049882E+01  0.00000000E+00  9.55249411E+00  9.55249411E+00
 -1.91049882E+01  0.00000000E+00  9.55249411E+00  9.55249411E+00 -1.91049882E+01
  0.00000000E+00  9.55249411E+00  9.55249411E+00 -1.91049882E+01  0.00000000E+00
  9.55249411E+00  9.55249411E+00 -1.91049882E+01  0.00000000E+00  9.55249411E+00
  9.55249411E+00 -1.91049882E+01  0.00000000E+00  9.55249411E+00  9.55249411E+00
 -1.91049882E+01  0.00000000E+00  9.55249411E+00  9.55249411E+00 -1.91049882E+01
  0.00000000E+00  9.55249411E+00  9.55249411E+00 -1.91049882E+01  0.00000000E+00
  9.55249411E+00  9.55249411E+00 -1.91049882E+01  0.00000000E+00  9.55249411E+00
  9.55249411E+00 -1.91049882E+01  0.00000000E+00  9.55249411E+00  9.55249411E+00
 -1.91049882E+01  0.00000000E+00  9.55249411E+00  9.55249411E+00 -1.91049882E+01
  0.00000000E+00  9.55249411E+00  9.55249411E+00 -1.91049882E+01  0.00000000E+00
  9.55249411E+00  9.55249411E+00 -1.91049882E+01  0.00000000E+00  9.55249411E+00
  9.55249411E+00 -1.91049882E+01  0.00000000E+00  9.55249411E+00  9.55249411E+00
 -1.91049882E+01  0.00000000E+00  9.55249411E+00  9.55249411E+00 -1.91049882E+01
  0.00000000E+00  9.55249411E+00  9.55249411E+00 -1.91049882E+01  0.00000000E+00
  9.55249411E+00  9.55249411E+00 -1.91049882E+01  0.00000000E+00  9.55249411E+00
  9.55249411E+00 -1.91049882E+01  0.00000000E+00  9.55249411E+00  9.55249411E+00
 -1.91049882E+01  0.00000000E+00  9.55249411E+00  9.55249411E+00 -1.91049882E+01
  0.00000000E+00  9.55249411E+00  9.55249411E+00 -1.91049882E+01  0.00000000E+00
  9.55249411E+00  9.55249411E+00 -1.91049882E+01  0.00000000E+00  9.55249411E+00
  9.55249411E+00 -1.91049882E+01  0.00000000E+00  9.55249411E+00  9.55249411E+00
 -1.91049882E+01  0.00000000E+00  9.55249411E+00  9.55249411E+00 -1.91049882E+01
  0.00000000E+00  9.55249411E+00  9.55249411E+00 -1.91049882E+01  0.00000000E+00
  9.55249411E+00  9.55249411E+00 -1.91049882E+01  0.00000000E+00  9.55249411E+00
  9.55249411E+00 -1.91049882E+01  0.00000000E+00  9.55249411E+00  9.55249411E+00
 -1.91049882E+01  0.00000000E+00  9.55249411E+00  9.55249411E+00 -1.91049882E+01
  0.00000000E+00  9.55249411E+00  9.55249411E+00 -1.91049882E+01  0.00000000E+00
  9.55249411E+00  9.55249411E+00 -1.91049882E+01  0.00000000E+00  9.55249411E+00
  9.55249411E+00 -1.91049882E+01  0.00000000E+00  9.55249411E+00  9.55249411E+00
 -1.91049882E+01  0.00000000E+00  9.55249411E+00  9.55249411E+00 -1.91049882E+01
  0.00000000E+00  9.55249411E+00  9.55249411E+00 -1.91049882E+01  0.00000000E+00
  9.55249411E+00  9.55249411E+00 -1.91049882E+01  0.00000000E+00  9.55249411E+00
  9.55249411E+00 -1.91049882E+01  0.00000000E+00  9.55249411E+00  9.55249411E+00
 -1.91049882E+01  0.00000000E+00  9.55249411E+00  9.55249411E+00 -1.91049882E+01
  0.00000000E+00  9.55249411E+00  9.55249411E+00 -1.91049882E+01  0.00000000E+00
  9.55249411E+00  9.55249411E+00 -1.91049882E+01  0.00000000E+00  9.55249411E+00
  9.55249411E+00 -1.91049882E+01  0.00000000E+00  9.55249411E+00  9.55249411E+00
 -1.91049882E+01  0.00000000E+00  9.55249411E+00  9.55249411E+00 -1.91049882E+01
  0.00000000E+00  9.55249411E+00  9.55249411E+00 -1.91049882E+01  0.00000000E+00
  9.55249411E+00  9.55249411E+00 -1.91049882E+01  0.00000000E+00  9.55249411E+00
  9.55249411E+00 -1.91049882E+01  0.00000000E+00  9.55249411E+00  9.55249411E+00
 -1.91049882E+01  0.00000000E+00  9.55249411E+00  9.55249411E+00 -1.91049882E+01
  0.00000000E+00  9.55249411E+00  9.55249411E+00 -1.91049882E+01  0.00000000E+00
  9.55249411E+00  9.55249411E+00 -1.91049882E+01  0.00000000E+00  9.55249411E+00
  9.55249411E+00 -1.91049882E+01  0.00000000E+00  9.55249411E+00  9.55249411E+00
 -1.91049882E+01  0.00000000E+00  9.55249411E+00  9.55249411E+00 -1.91049882E+01
  0.00000000E+00  9.55249411E+00  9.55249411E+00 -1.91049882E+01  0.00000000E+00
  9.55249411E+00  9.55249411E+00 -1.91049882E+01  0.00000000E+00  9.55249411E+00
  9.55249411E+00 -1.91049882E+01  0.00000000E+00  9.55249411E+00  9.55249411E+00
 -1.91049882E+01  0.00000000E+00  9.55249411E+00  9.55249411E+00 -1.91049882E+01
  0.00000000E+00  9.55249411E+00  9.55249411E+00 -1.91049882E+01  0.00000000E+00
  9.55249411E+00  9.55249411E+00 -1.91049882E+01  0.00000000E+00  9.55249411E+00
  9.55249411E+00 -1.91049882E+01  0.00000000E+00  9.55249411E+00  9.55249411E+00
 -1.91049882E+01  0.00000000E+00  9.55249411E+00  9.55249411E+00 -1.91049882E+01
  0.00000000E+00  9.55249411E+00  9.55249411E+00 -1.91049882E+01  0.00000000E+00
  9.55249411E+00  9.55249411E+00 -1.91049882E+01  0.00000000E+00  9.55249411E+00
  9.55249411E+00 -1.91049882E+01  0.00000000E+00  9.55249411E+00  9.55249411E+00
 -1.91049882E+01  0.00000000E+00  9.55249411E+00  9.55249411E+00 -1.91049882E+01
  0.00000000E+00  9.55249411E+00  9.55249411E+00 -1.91049882E+01  0.00000000E+00
  9.55249411E+00  9.55249411E+00 -1.91049882E+01  0.00000000E+00  9.55249411E+00
  9.55249411E+00 -1.91049882E+01  0.00000000E+00  9.55249411E+00  9.55249411E+00
 -1.91049882E+01  0.00000000E+00  9.55249411E+00  9.55249411E+00 -1.91049882E+01
  0.00000000E+00  9.55249411E+00  9.55249411E+00 -1.91049882E+01  0.00000000E+00
  9.55249411E+00  9.55249411E+00 -1.91049882E+01  0.00000000E+00  9.55249411E+00
  9.55249411E+00 -1.91049882E+01  0.00000000E+00  9.55249411E+00  9.55249411E+00
 -1.91049882E+01  0.00000000E+00  9.55249411E+00  9.55249411E+00 -1.91049882E+01
  0.00000000E+00  9.55249411E+00  9.55249411E+00 -1.91049882E+01  0.00000000E+00
  9.55249411E+00  9.55249411E+00 -1.91049882E+01  0.00000000E+00  9.55249411E+00
  9.55249411E+00 -1.91049882E+01  0.00000000E+00  9.55249411E+00  9.55249411E+00
 -1.91049882E+01  0.00000000E+00  9.55249411E+00  9.55249411E+00 -1.91049882E+01
  0.00000000E+00  9.55249411E+00  9.55249411E+00 -1.91049882E+01  0.00000000E+00
  9.55249411E+00  9.55249411E+00 -1.91049882E+01  0.00000000E+00  9.55249411E+00
  9.55249411E+00 -1.91049882E+01  0.00000000E+00  9.55249411E+00  9.55249411E+00
 -1.91049882E+01  0.00000000E+00  9.55249411E+00  9.55249411E+00 -1.91049882E+01
  0.00000000E+00  9.55249411E+00  9.55249411E+00 -1.91049882E+01  0.00000000E+00
  9.55249411E+00  9.55249411E+00 -1.91049882E+01  0.00000000E+00  9.55249411E+00
  9.55249411E+00 -1.91049882E+01  0.00000000E+00  9.55249411E+00  9.55249411E+00
 -1.91049882E+01  0.00000000E+00  9.55249411E+00  9.55249411E+00 -1.91049882E+01
  0.00000000E+00  9.55249411E+00  9.55249411E+00 -1.91049882E+01  0.00000000E+00
  9.55249411E+00  9.55249411E+00 -1.91049882E+01  0.00000000E+00  9.55249411E+00
  9.55249411E+00 -1.91049882E+01  0.00000000E+00  9.55249411E+00  9.55249411E+00
 -1.91049882E+01  0.00000000E+00  9.55249411E+00  9.55249411E+00 -1.91049882E+01
  0.00000000E+00  9.55249411E+00  9.55249411E+00 -1.91049882E+01  0.00000000E+00
  9.55249411E+00  9.55249411E+00 -1.91049882E+01  0.00000000E+00  9.55249411E+00
  9.55249411E+00 -1.91049882E+01  0.00000000E+00  9.55249411E+00  9.55249411E+00
 -1.91049882E+01  0.00000000E+00  9.55249411E+00  9.55249411E+00 -1.91049882E+01
  0.00000000E+00  9.55249411E+00  9.55249411E+00 -1.91049882E+01  0.00000000E+00
  9.55249411E+00  9.55249411E+00 -1.91049882E+01  0.00000000E+00  9.55249411E+00
  9.55249411E+00 -1.91049882E+01  0.00000000E+00  9.55249411E+00  9.55249411E+00
 -1.91049882E+01  0.00000000E+00  9.55249411E+00  9.55249411E+00 -1.91049882E+01
  0.00000000E+00  9.55249411E+00  9.55249411E+00 -1.91049882E+01  0.00000000E+00
  9.55249411E+00  9.55249411E+00 -1.91049882E+01  0.00000000E+00  9.55249411E+00
  9.55249411E+00 -1.91049882E+01  0.00000000E+00  9.55249411E+00  9.55249411E+00
 -1.91049882E+01  0.00000000E+00  9.55249411E+00  9.55249411E+00 -1.91049882E+01
  0.00000000E+00  9.55249411E+00  9.55249411E+00 -1.91049882E+01  0.00000000E+00
  9.55249411E+00  9.55249411E+00 -1.91049882E+01  0.00000000E+00  9.55249411E+00
  9.55249411E+00 -1.91049882E+01  0.00000000E+00  9.55249411E+00  9.55249411E+00
 -1.91049882E+01  0.00000000E+00  9.55249411E+00  9.55249411E+00 -1.91049882E+01
  0.00000000E+00  9.55249411E+00  9.55249411E+00 -1.91049882E+01  0.00000000E+00
  9.55249411E+00  9.55249411E+00 -1.91049882E+01  0.00000000E+00  9.55249411E+00
  9.55249411E+00 -1.91049882E+01  0.00000000E+00  9.55249411E+00  9.55249411E+00
 -1.91049882E+01  0.00000000E+00  9.55249411E+00  9.55249411E+00 -1.91049882E+01
  0.00000000E+00  9.55249411E+00  9.55249411E+00 -1.91049882E+01  0.00000000E+00
  9.55249411E+00  9.55249411E+00 -1.91049882E+01  0.00000000E+00  9.55249411E+00
  9.55249411E+00 -1.91049882E+01  0.00000000E+00  9.55249411E+00  9.55249411E+00
 -1.91049882E+01  0.00000000E+00  9.55249411E+00  9.55249411E+00 -1.91049882E+01
  0.00000000E+00  9.55249411E+00  9.55249411E+00 -1.91049882E+01  0.00000000E+00
  9.55249411E+00  9.55249411E+00 -1.91049882E+01  0.00000000E+00  9.55249411E+00
  9.55249411E+00 -1.91049882E+01  0.00000000E+00  9.55249411E+00  9.55249411E+00
 -1.91049882E+01  0.00000000E+00  9.55249411E+00  9.55249411E+00 -1.91049882E+01
  0.00000000E+00  9.55249411E+00  9.55249411E+00 -1.91049882E+01  0.00000000E+00
  9.55249411E+00  9.55249411E+00 -1.91049882E+01  0.00000000E+00  9.55249411E+00
  9.55249411E+00 -1.91049882E+01  0.00000000E+00  9.55249411E+00  9.55249411E+00
 -1.91049882E+01  0.00000000E+00  9.55249411E+00  9.55249411E+00 -1.91049882E+01
  0.00000000E+00  9.55249411E+00  9.55249411E+00 -1.91049882E+01  0.00000000E+00
  9.55249411E+00  9.55249411E+00 -1.91049882E+01  0.00000000E+00  9.55249411E+00
  9.55249411E+00 -1.91049882E+01  0.00000000E+00  9.55249411E+00  9.55249411E+00
 -1.91049882E+01  0.00000000E+00  9.55249411E+00  9.55249411E+00 -1.91049882E+01
  0.00000000E+00  9.55249411E+00  9.55249411E+00 -1.91049882E+01  0.00000000E+00
  9.55249411E+00  9.55249411E+00 -1.91049882E+01  0.00000000E+00  9.55249411E+00
  9.55249411E+00 -1.91049882E+01  0.00000000E+00  9.55249411E+00  9.55249411E+00
 -1.91049882E+01  0.00000000E+00  9.55249411E+00  9.55249411E+00 -1.91049882E+01
  0.00000000E+00  9.55249411E+00  9.55249411E+00 -1.91049882E+01  0.00000000E+00
  9.55249411E+00  9.55249411E+00 -1.91049882E+01  0.00000000E+00  9.55249411E+00
  9.55249411E+00 -1.91049882E+01  0.00000000E+00  9.55249411E+00  9.55249411E+00
 -1.91049882E+01  0.00000000E+00  9.55249411E+00  9.55249411E+00 -1.91049882E+01
  0.00000000E+00  9.55249411E+00  9.55249411E+00 -1.91049882E+01  0.00000000E+00
  9.55249411E+00  9.55249411E+00 -1.91049882E+01  0.00000000E+00  9.55249411E+00
  9.55249411E+00 -1.91049882E+01  0.00000000E+00  9.55249411E+00  9.55249411E+00
 -1.91049882E+01  0.00000000E+00  9.55249411E+00  9.55249411E+00 -1.91049882E+01
  0.00000000E+00  9.55249411E+00  9.55249411E+00 -1.91049882E+01  0.00000000E+00
  9.55249411E+00  9.55249411E+00 -1.91049882E+01  0.00000000E+00  9.55249411E+00
  9.55249411E+00 -1.91049882E+01  0.00000000E+00  9.55249411E+00  9.55249411E+00
 -1.91049882E+01  0.00000000E+00  9.55249411E+00  9.55249411E+00 -1.91049882E+01
  0.00000000E+00  9.55249411E+00  9.55249411E+00 -1.91049882E+01  0.00000000E+00
  9.55249411E+00  9.55249411E+00 -1.91049882E+01  0.00000000E+00  9.55249411E+00
  9.55249411E+00 -1.91049882E+01  0.00000000E+00  9.55249411E+00  9.55249411E+00
 -1.91049882E+01  0.00000000E+00  9.55249411E+00  9.55249411E+00 -1.91049882E+01
  0.00000000E+00  9.55249411E+00  9.55249411E+00 -1.91049882E+01  0.00000000E+00
  9.55249411E+00  9.55249411E+00 -1.91049882E+01  0.00000000E+00  9.55249411E+00
  9.55249411E+00 -1.91049882E+01  0.00000000E+00  9.55249411E+00  9.55249411E+00
 -1.91049882E+01  0.00000000E+00  9.55249411E+00  9.55249411E+00 -1.91049882E+01
  0.00000000E+00  9.55249411E+00  9.55249411E+00 -1.91049882E+01  0.00000000E+00
  9.55249411E+00  9.55249411E+00 -1.91049882E+01  0.00000000E+00  9.55249411E+00
  9.55249411E+00 -1.91049882E+01  0.00000000E+00  9.55249411E+00  9.55249411E+00
 -1.91049882E+01  0.00000000E+00  9.55249411E+00  9.55249411E+00 -1.91049882E+01
  0.00000000E+00  9.55249411E+00  9.55249411E+00 -1.91049882E+01  0.00000000E+00
  9.55249411E+00  9.55249411E+00 -1.91049882E+01  0.00000000E+00  9.55249411E+00
  9.55249411E+00 -1.91049882E+01  0.00000000E+00  9.55249411E+00  9.55249411E+00
 -1.91049882E+01  0.00000000E+00  9.55249411E+00  9.55249411E+00 -1.91049882E+01
  0.00000000E+00  9.55249411E+00  9.55249411E+00 -1.91049882E+01  0.00000000E+00
  9.55249411E+00  9.55249411E+00 -1.91049882E+01  0.00000000E+00  9.55249411E+00
  9.55249411E+00 -1.91049882E+01  0.00000000E+00  9.55249411E+00  9.55249411E+00
 -1.91049882E+01  0.00000000E+00  9.55249411E+00  9.55249411E+00 -1.91049882E+01
  0.00000000E+00  9.55249411E+00  9.55249411E+00 -1.91049882E+01  0.00000000E+00
  9.55249411E+00  9.55249411E+00 -1.91049882E+01  0.00000000E+00  9.55249411E+00
  9.55249411E+00 -1.91049882E+01  0.00000000E+00  9.55249411E+00  9.55249411E+00
 -1.91049882E+01  0.00000000E+00  9.55249411E+00  9.55249411E+00 -1.91049882E+01
  0.00000000E+00  9.55249411E+00  9.55249411E+00 -1.91049882E+01  0.00000000E+00
  9.55249411E+00  9.55249411E+00 -1.91049882E+01  0.00000000E+00  9.55249411E+00
  9.55249411E+00 -1.91049882E+01  0.00000000E+00  9.55249411E+00  9.55249411E+00
 -1.91049882E+01  0.00000000E+00  9.55249411E+00  9.55249411E+00 -1.91049882E+01
  0.00000000E+00  9.55249411E+00  9.55249411E+00 -1.91049882E+01  0.00000000E+00
  9.55249411E+00  9.55249411E+00 -1.91049882E+01  0.00000000E+00  9.55249411E+00
  9.55249411E+00 -1.91049882E+01  0.00000000E+00  9.55249411E+00  9.55249411E+00
 -1.91049882E+01  0.00000000E+00  9.55249411E+00  9.55249411E+00 -1.91049882E+01
  0.00000000E+00  9.55249411E+00  9.55249411E+00 -1.91049882E+01  0.00000000E+00
  9.55249411E+00  9.55249411E+00 -1.91049882E+01  0.00000000E+00  9.55249411E+00
  9.55249411E+00 -1.91049882E+01  0.00000000E+00  9.55249411E+00  9.55249411E+00
 -1.91049882E+01  0.00000000E+00  9.55249411E+00  9.55249411E+00 -1.91049882E+01
  0.00000000E+00  9.55249411E+00  9.55249411E+00 -1.91049882E+01  0.00000000E+00
  9.55249411E+00  9.55249411E+00 -1.91049882E+01  0.00000000E+00  9.55249411E+00
  9.55249411E+00 -1.91049882E+01  0.00000000E+00  9.55249411E+00  9.55249411E+00
 -1.91049882E+01  0.00000000E+00  9.55249411E+00  9.55249411E+00 -1.91049882E+01
  0.00000000E+00  9.55249411E+00  9.55249411E+00 -1.91049882E+01  0.00000000E+00
  9.55249411E+00  9.55249411E+00 -1.91049882E+01  0.00000000E+00  9.55249411E+00
  9.55249411E+00 -1.91049882E+01  0.00000000E+00  9.55249411E+00  9.55249411E+00
 -1.91049882E+01  0.00000000E+00  9.55249411E+00  9.55249411E+00 -1.91049882E+01
  0.00000000E+00  9.55249411E+00  9.55249411E+00 -1.91049882E+01  0.00000000E+00
  9.55249411E+00  9.55249411E+00 -1.91049882E+01  0.00000000E+00  9.55249411E+00
  9.55249411E+00 -1.91049882E+01  0.00000000E+00  9.55249411E+00  9.55249411E+00
 -1.91049882E+01  0.00000000E+00  9.55249411E+00  9.55249411E+00 -1.91049882E+01
  0.00000000E+00  9.55249411E+00  9.55249411E+00 -1.91049882E+01  0.00000000E+00
  9.55249411E+00  9.55249411E+00 -1.91049882E+01  0.00000000E+00  9.55249411E+00
  9.55249411E+00 -1.91049882E+01  0.00000000E+00  9.55249411E+00  9.55249411E+00
 -1.91049882E+01  0.00000000E+00  9.55249411E+00  9.55249411E+00 -1.91049882E+01
  0.00000000E+00  9.55249411E+00  9.55249411E+00 -1.91049882E+01  0.00000000E+00
  9.55249411E+00  9.55249411E+00 -1.91049882E+01  0.00000000E+00  9.55249411E+00
  9.55249411E+00 -1.91049882E+01  0.00000000E+00  9.55249411E+00  9.55249411E+00
 -1.91049882E+01  0.00000000E+00  9.55249411E+00  9.55249411E+00 -1.91049882E+01
  0.00000000E+00  9.55249411E+00  9.55249411E+00 -1.91049882E+01  0.00000000E+00
  9.55249411E+00  9.55249411E+00 -1.91049882E+01  0.00000000E+00  9.55249411E+00
  9.55249411E+00 -1.91049882E+01  0.00000000E+00  9.55249411E+00  9.55249411E+00
 -1.91049882E+01  0.00000000E+00  9.55249411E+00  9.55249411E+00 -1.91049882E+01
  0.00000000E+00  9.55249411E+00  9.55249411E+00 -1.91049882E+01  0.00000000E+00
  9.55249411E+00  9.55249411E+00 -1.91049882E+01  0.00000000E+00  9.55249411E+00
  9.55249411E+00 -1.91049882E+01  0.00000000E+00  9.55249411E+00  9.55249411E+00
 -1.91049882E+01  0.00000000E+00  9.55249411E+00  9.55249411E+00 -1.91049882E+01
  0.00000000E+00  9.55249411E+00  9.55249411E+00 -1.91049882E+01  0.00000000E+00
  9.55249411E+00  9.55249411E+00 -1.91049882E+01  0.00000000E+00  9.55249411E+00
  9.55249411E+00 -1.91049882E+01  0.00000000E+00  9.55249411E+00  9.55249411E+00
 -1.91049882E+01  0.00000000E+00  9.55249411E+00  9.55249411E+00 -1.91049882E+01
  0.00000000E+00  9.55249411E+00  9.55249411E+00 -1.91049882E+01  0.00000000E+00
  9.55249411E+00  9.55249411E+00 -1.91049882E+01  0.00000000E+00  9.55249411E+00
  9.55249411E+00 -1.91049882E+01  0.00000000E+00  9.55249411E+00  9.55249411E+00
 -1.91049882E+01  0.00000000E+00  9.55249411E+00  9.55249411E+00 -1.91049882E+01
  0.00000000E+00  9.55249411E+00  9.55249411E+00 -1.91049882E+01  0.00000000E+00
  9.55249411E+00  9.55249411E+00 -1.91049882E+01  0.00000000E+00  9.55249411E+00
  9.55249411E+00 -1.91049882E+01  0.00000000E+00  9.55249411E+00  9.55249411E+00
 -1.91049882E+01  0.00000000E+00  9.55249411E+00  9.55249411E+00 -1.91049882E+01
  0.00000000E+00  9.55249411E+00  9.55249411E+00 -1.91049882E+01  0.00000000E+00
  9.55249411E+00  9.55249411E+00 -1.91049882E+01  0.00000000E+00  9.55249411E+00
  9.55249411E+00 -1.91049882E+01  0.00000000E+00  9.55249411E+00  9.55249411E+00
 -1.91049882E+01  0.00000000E+00  9.55249411E+00  9.55249411E+00 -1.91049882E+01
  0.00000000E+00  9.55249411E+00  9.55249411E+00 -1.91049882E+01  0.00000000E+00
  9.55249411E+00  9.55249411E+00 -1.91049882E+01  0.00000000E+00  9.55249411E+00
  9.55249411E+00 -1.91049882E+01  0.00000000E+00  9.55249411E+00  9.55249411E+00
 -1.91049882E+01  0.00000000E+00  9.55249411E+00  9.55249411E+00 -1.91049882E+01
  0.00000000E+00  9.55249411E+00  9.55249411E+00 -1.91049882E+01  0.00000000E+00
  9.55249411E+00  9.55249411E+00 -1.91049882E+01  0.00000000E+00  9.55249411E+00
  9.55249411E+00 -1.91049882E+01  0.00000000E+00  9.55249411E+00  9.55249411E+00
 -1.91049882E+01  0.00000000E+00  9.55249411E+00  9.55249411E+00 -1.91049882E+01
  0.00000000E+00  9.55249411E+00  9.55249411E+00 -1.91049882E+01  0.00000000E+00
  9.55249411E+00  9.55249411E+00 -1.91049882E+01  0.00000000E+00  9.55249411E+00
  9.55249411E+00 -1.91049882E+01  0.00000000E+00  9.55249411E+00  9.55249411E+00
 -1.91049882E+01  0.00000000E+00  9.55249411E+00  9.55249411E+00 -1.91049882E+01
  0.00000000E+00  9.55249411E+00  9.55249411E+00 -1.91049882E+01  0.00000000E+00
  9.55249411E+00  9.55249411E+00 -1.91049882E+01  0.00000000E+00  9.55249411E+00
  9.55249411E+00 -1.91049882E+01  0.00000000E+00  9.55249411E+00  9.55249411E+00
 -1.91049882E+01  0.00000000E+00  9.55249411E+00  9.55249411E+00 -1.91049882E+01
  0.00000000E+00  9.55249411E+00  9.55249411E+00 -1.91049882E+01  0.00000000E+00
  9.55249411E+00  9.55249411E+00 -1.91049882E+01  0.00000000E+00  9.55249411E+00
  9.55249411E+00 -1.91049882E+01  0.00000000E+00  9.55249411E+00  9.55249411E+00
 -1.91049882E+01  0.00000000E+00  9.55249411E+00  9.55249411E+00 -1.91049882E+01
  0.00000000E+00  9.55249411E+00  9.55249411E+00 -1.91049882E+01  0.00000000E+00
  9.55249411E+00  9.55249411E+00 -1.91049882E+01  0.00000000E+00  9.55249411E+00
  9.55249411E+00 -1.91049882E+01  0.00000000E+00  9.55249411E+00  9.55249411E+00
 -1.91049882E+01  0.00000000E+00  9.55249411E+00  9.55249411E+00 -1.91049882E+01
  0.00000000E+00  9.55249411E+00  9.55249411E+00 -1.91049882E+01  0.00000000E+00
  9.55249411E+00  9.55249411E+00 -1.91049882E+01  0.00000000E+00  9.55249411E+00
  9.55249411E+00 -1.91049882E+01  0.00000000E+00  9.55249411E+00  9.55249411E+00
 -1.91049882E+01  0.00000000E+00  9.55249411E+00  9.55249411E+00 -1.91049882E+01
  0.00000000E+00  9.55249411E+00  9.55249411E+00 -1.91049882E+01  0.00000000E+00
  9.55249411E+00  9.55249411E+00 -1.91049882E+01  0.00000000E+00  9.55249411E+00
  9.55249411E+00 -1.91049882E+01  0.00000000E+00  9.55249411E+00  9.55249411E+00
 -1.91049882E+01  0.00000000E+00  9.55249411E+00  9.55249411E+00 -1.91049882E+01
  0.00000000E+00  9.55249411E+00  9.55249411E+00 -1.91049882E+01  0.00000000E+00
  9.55249411E+00  9.55249411E+00 -1.91049882E+01  0.00000000E+00  9.55249411E+00
  9.55249411E+00 -1.91049882E+01  0.00000000E+00  9.55249411E+00  9.55249411E+00
 -1.91049882E+01  0.00000000E+00  9.55249411E+00  9.55249411E+00 -1.91049882E+01
  0.00000000E+00  9.55249411E+00  9.55249411E+00 -1.91049882E+01  0.00000000E+00
  9.55249411E+00  9.55249411E+00 -1.91049882E+01  0.00000000E+00  9.55249411E+00
  9.55249411E+00 -1.91049882E+01  0.00000000E+00  9.55249411E+00  9.55249411E+00
 -1.91049882E+01  0.00000000E+00  9.55249411E+00  9.55249411E+00 -1.91049882E+01
  0.00000000E+00  9.55249411E+00  9.55249411E+00 -1.91049882E+01  0.00000000E+00
  9.55249411E+00  9.55249411E+00 -1.91049882E+01  0.00000000E+00  9.55249411E+00
  9.55249411E+00 -1.91049882E+01  0.00000000E+00  9.55249411E+00  9.55249411E+00
 -1.91049882E+01  0.00000000E+00  9.55249411E+00  9.55249411E+00 -1.91049882E+01
  0.00000000E+00  9.55249411E+00  9.55249411E+00 -1.91049882E+01  0.00000000E+00
  9.55249411E+00  9.55249411E+00 -1.91049882E+01  0.00000000E+00  9.55249411E+00
  9.55249411E+00 -1.91049882E+01  0.00000000E+00  9.55249411E+00  9.55249411E+00
 -1.91049882E+01  0.00000000E+00  9.55249411E+00  9.55249411E+00 -1.91049882E+01
  0.00000000E+00  9.55249411E+00  9.55249411E+00 -1.91049882E+01  0.00000000E+00
  9.55249411E+00  9.55249411E+00 -1.91049882E+01  0.00000000E+00  9.55249411E+00
  9.55249411E+00 -1.91049882E+01  0.00000000E+00  9.55249411E+00  9.55249411E+00
 -1.91049882E+01  0.00000000E+00  9.55249411E+00  9.55249411E+00 -1.91049882E+01
  0.00000000E+00  9.55249411E+00  9.55249411E+00 -1.91049882E+01  0.00000000E+00
  9.55249411E+00  9.55249411E+00 -1.91049882E+01  0.00000000E+00  9.55249411E+00
  9.55249411E+00 -1.91049882E+01  0.00000000E+00  9.55249411E+00  9.55249411E+00
 -1.91049882E+01  0.00000000E+00  9.55249411E+00  9.55249411E+00 -1.91049882E+01
  0.00000000E+00  9.55249411E+00  9.55249411E+00 -1.91049882E+01  0.00000000E+00
  9.55249411E+00  9.55249411E+00 -1.91049882E+01  0.00000000E+00  9.55249411E+00
  9.55249411E+00 -1.91049882E+01  0.00000000E+00  9.55249411E+00  9.55249411E+00
 -1.91049882E+01  0.00000000E+00  9.55249411E+00  9.55249411E+00 -1.91049882E+01
  0.00000000E+00  9.55249411E+00  9.55249411E+00 -1.91049882E+01  0.00000000E+00
  9.55249411E+00  9.55249411E+00 -1.91049882E+01  0.00000000E+00  9.55249411E+00
  9.55249411E+00 -1.91049882E+01  0.00000000E+00  9.55249411E+00  9.55249411E+00
 -1.91049882E+01  0.00000000E+00  9.55249411E+00  9.55249411E+00 -1.91049882E+01
  0.00000000E+00  9.55249411E+00  9.55249411E+00 -1.91049882E+01  0.00000000E+00
  9.55249411E+00  9.55249411E+00 -1.91049882E+01  0.00000000E+00  9.55249411E+00
  9.55249411E+00 -1.91049882E+01  0.00000000E+00  9.55249411E+00  9.55249411E+00
 -1.91049882E+01  0.00000000E+00  9.55249411E+00  9.55249411E+00 -1.91049882E+01
  0.00000000E+00  9.55249411E+00  9.55249411E+00 -1.91049882E+01  0.00000000E+00
  9.55249411E+00  9.55249411E+00 -1.91049882E+01  0.00000000E+00  9.55249411E+00
  9.55249411E+00 -1.91049882E+01  0.00000000E+00  9.55249411E+00  9.55249411E+00
 -1.91049882E+01  0.00000000E+00  9.55249411E+00  9.55249411E+00 -1.91049882E+01
  0.00000000E+00  9.55249411E+00  9.55249411E+00 -1.91049882E+01  0.00000000E+00
  9.55249411E+00  9.55249411E+00 -1.91049882E+01  0.00000000E+00  9.55249411E+00
  9.55249411E+00 -1.91049882E+01  0.00000000E+00  9.55249411E+00  9.55249411E+00
 -1.91049882E+01  0.00000000E+00  9.55249411E+00  9.55249411E+00 -1.91049882E+01
  0.00000000E+00  9.55249411E+00  9.55249411E+00 -1.91049882E+01  0.00000000E+00
  9.55249411E+00  9.55249411E+00 -1.91049882E+01  0.00000000E+00  9.55249411E+00
  9.55249411E+00 -1.91049882E+01  0.00000000E+00  9.55249411E+00  9.55249411E+00
 -1.91049882E+01  0.00000000E+00  9.55249411E+00  9.55249411E+00 -1.91049882E+01
  0.00000000E+00  9.55249411E+00  9.55249411E+00 -1.91049882E+01  0.00000000E+00
  9.55249411E+00  9.55249411E+00 -1.91049882E+01  0.00000000E+00  9.55249411E+00
  9.55249411E+00 -1.91049882E+01  0.00000000E+00  9.55249411E+00  9.55249411E+00
 -1.91049882E+01  0.00000000E+00  9.55249411E+00  9.55249411E+00 -1.91049882E+01
  0.00000000E+00  9.55249411E+00  9.55249411E+00 -1.91049882E+01  0.00000000E+00
  9.55249411E+00  9.55249411E+00 -1.91049882E+01  0.00000000E+00  9.55249411E+00
  9.55249411E+00 -1.91049882E+01  0.00000000E+00  9.55249411E+00  9.55249411E+00
 -1.91049882E+01  0.00000000E+00  9.55249411E+00  9.55249411E+00 -1.91049882E+01
  0.00000000E+00  9.55249411E+00  9.55249411E+00 -1.91049882E+01  0.00000000E+00
  9.55249411E+00  9.55249411E+00 -1.91049882E+01  0.00000000E+00  9.55249411E+00
  9.55249411E+00 -1.91049882E+01  0.00000000E+00  9.55249411E+00  9.55249411E+00
 -1.91049882E+01  0.00000000E+00  9.55249411E+00  9.55249411E+00 -1.91049882E+01
  0.00000000E+00  9.55249411E+00  9.55249411E+00 -1.91049882E+01  0.00000000E+00
  9.55249411E+00  9.55249411E+00 -1.91049882E+01  0.00000000E+00  9.55249411E+00
  9.55249411E+00 -1.91049882E+01  0.00000000E+00  9.55249411E+00  9.55249411E+00
 -1.91049882E+01  0.00000000E+00  9.55249411E+00  9.55249411E+00 -1.91049882E+01
  0.00000000E+00  9.55249411E+00  9.55249411E+00 -1.91049882E+01  0.00000000E+00
  9.55249411E+00  9.55249411E+00 -1.91049882E+01  0.00000000E+00  9.55249411E+00
  9.55249411E+00 -1.91049882E+01  0.00000000E+00  9.55249411E+00  9.55249411E+00
 -1.91049882E+01  0.00000000E+00  9.55249411E+00  9.55249411E+00 -1.91049882E+01
  0.00000000E+00  9.55249411E+00  9.55249411E+00 -1.91049882E+01  0.00000000E+00
  9.55249411E+00  9.55249411E+00 -1.91049882E+01  0.00000000E+00  9.55249411E+00
  9.55249411E+00 -1.91049882E+01  0.00000000E+00  9.55249411E+00  9.55249411E+00
 -1.91049882E+01  0.00000000E+00  9.55249411E+00  9.55249411E+00 -1.91049882E+01
  0.00000000E+00  9.55249411E+00  9.55249411E+00 -1.91049882E+01  0.00000000E+00
  9.55249411E+00  9.55249411E+00 -1.91049882E+01  0.00000000E+00  9.55249411E+00
  9.55249411E+00 -1.91049882E+01  0.00000000E+00  9.55249411E+00  9.55249411E+00
 -1.91049882E+01  0.00000000E+00  9.55249411E+00  9.55249411E+00 -1.91049882E+01
  0.00000000E+00  9.55249411E+00  9.55249411E+00 -1.91049882E+01  0.00000000E+00
  9.55249411E+00  9.55249411E+00 -1.91049882E+01  0.00000000E+00  9.55249411E+00
  9.55249411E+00 -1.91049882E+01  0.00000000E+00  9.55249411E+00  9.55249411E+00
 -1.91049882E+01  0.00000000E+00  9.55249411E+00  9.55249411E+00 -1.91049882E+01
  0.00000000E+00  9.55249411E+00  9.55249411E+00 -1.91049882E+01  0.00000000E+00
  9.55249411E+00  9.55249411E+00 -1.91049882E+01  0.00000000E+00  9.55249411E+00
  9.55249411E+00 -1.91049882E+01  0.00000000E+00  9.55249411E+00  9.55249411E+00
 -1.91049882E+01  0.00000000E+00  9.55249411E+00  9.55249411E+00 -1.91049882E+01
  0.00000000E+00  9.55249411E+00  9.55249411E+00 -1.91049882E+01  0.00000000E+00
  9.55249411E+00  9.55249411E+00 -1.91049882E+01  0.00000000E+00  9.55249411E+00
  9.55249411E+00 -1.91049882E+01  0.00000000E+00  9.55249411E+00  9.55249411E+00
 -1.91049882E+01  0.00000000E+00  9.55249411E+00  9.55249411E+00 -1.91049882E+01
  0.00000000E+00  9.55249411E+00  9.55249411E+00 -1.91049882E+01  0.00000000E+00
  9.55249411E+00  9.55249411E+00 -1.91049882E+01  0.00000000E+00  9.55249411E+00
  9.55249411E+00 -1.91049882E+01  0.00000000E+00  9.55249411E+00  9.55249411E+00
 -1.91049882E+01  0.00000000E+00  9.55249411E+00  9.55249411E+00 -1.91049882E+01
  0.00000000E+00  9.55249411E+00  9.55249411E+00 -1.91049882E+01  0.00000000E+00
  9.55249411E+00  9.55249411E+00 -1.91049882E+01  0.00000000E+00  9.55249411E+00
  9.55249411E+00 -1.91049882E+01  0.00000000E+00  9.55249411E+00  9.55249411E+00
 -1.91049882E+01  0.00000000E+00  9.55249411E+00  9.55249411E+00 -1.91049882E+01
  0.00000000E+00  9.55249411E+00  9.55249411E+00 -1.91049882E+01  0.00000000E+00
  9.55249411E+00  9.55249411E+00 -1.91049882E+01  0.00000000E+00  9.55249411E+00
  9.55249411E+00 -1.91049882E+01  0.00000000E+00  9.55249411E+00  9.55249411E+00
 -1.91049882E+01  0.00000000E+00  9.55249411E+00  9.55249411E+00 -1.91049882E+01
  0.00000000E+00  9.55249411E+00  9.55249411E+00 -1.91049882E+01  0.00000000E+00
  9.55249411E+00  9.55249411E+00 -1.91049882E+01  0.00000000E+00  9.55249411E+00
  9.55249411E+00 -1.91049882E+01  0.00000000E+00  9.55249411E+00  9.55249411E+00
 -1.91049882E+01  0.00000000E+00  9.55249411E+00  9.55249411E+00 -1.91049882E+01
  0.00000000E+00  9.55249411E+00  9.55249411E+00 -1.91049882E+01  0.00000000E+00
  9.55249411E+00  9.55249411E+00 -1.91049882E+01  0.00000000E+00  9.55249411E+00
  9.55249411E+00 -1.91049882E+01  0.00000000E+00  9.55249411E+00  9.55249411E+00
 -1.91049882E+01  0.00000000E+00  9.55249411E+00  9.55249411E+00 -1.91049882E+01
  0.00000000E+00  9.55249411E+00  9.55249411E+00 -1.91049882E+01  0.00000000E+00
  9.55249411E+00  9.55249411E+00 -1.91049882E+01  0.00000000E+00  9.55249411E+00
  9.55249411E+00 -1.91049882E+01  0.00000000E+00  9.55249411E+00  9.55249411E+00
 -1.91049882E+01  0.00000000E+00  9.55249411E+00  9.55249411E+00 -1.91049882E+01
  0.00000000E+00  9.55249411E+00  9.55249411E+00 -1.91049882E+01  0.00000000E+00
  9.55249411E+00  9.55249411E+00 -1.91049882E+01  0.00000000E+00  9.55249411E+00
  9.55249411E+00 -1.91049882E+01  0.00000000E+00  9.55249411E+00  9.55249411E+00
 -1.91049882E+01  0.00000000E+00  9.55249411E+00  9.55249411E+00 -1.91049882E+01
  0.00000000E+00  9.55249411E+00  9.55249411E+00 -1.91049882E+01  0.00000000E+00
  9.55249411E+00  9.55249411E+00 -1.91049882E+01  0.00000000E+00  9.55249411E+00
  9.55249411E+00 -1.91049882E+01  0.00000000E+00  9.55249411E+00  9.55249411E+00
 -1.91049882E+01  0.00000000E+00  9.55249411E+00  9.55249411E+00 -1.91049882E+01
  0.00000000E+00  9.55249411E+00  9.55249411E+00 -1.91049882E+01  0.00000000E+00
  9.55249411E+00  9.55249411E+00 -1.91049882E+01  0.00000000E+00  9.55249411E+00
  9.55249411E+00 -1.91049882E+01  0.00000000E+00  9.55249411E+00  9.55249411E+00
 -1.91049882E+01  0.00000000E+00  9.55249411E+00  9.55249411E+00 -1.91049882E+01
  0.00000000E+00  9.55249411E+00  9.55249411E+00 -1.91049882E+01  0.00000000E+00
  9.55249411E+00  9.55249411E+00 -1.91049882E+01  0.00000000E+00  9.55249411E+00
  9.55249411E+00 -1.91049882E+01  0.00000000E+00  9.55249411E+00  9.55249411E+00
 -1.91049882E+01  0.00000000E+00  9.55249411E+00  9.55249411E+00 -1.91049882E+01
  0.00000000E+00  9.55249411E+00  9.55249411E+00 -1.91049882E+01  0.00000000E+00
  9.55249411E+00  9.55249411E+00 -1.91049882E+01  0.00000000E+00  9.55249411E+00
  9.55249411E+00 -1.91049882E+01  0.00000000E+00  9.55249411E+00  9.55249411E+00
 -1.91049882E+01  0.00000000E+00  9.55249411E+00  9.55249411E+00 -1.91049882E+01
  0.00000000E+00  9.55249411E+00  9.55249411E+00 -1.91049882E+01  0.00000000E+00
  9.55249411E+00  9.55249411E+00 -1.91049882E+01  0.00000000E+00  9.55249411E+00
  9.55249411E+00 -1.91049882E+01  0.00000000E+00  9.55249411E+00  9.55249411E+00
 -1.91049882E+01  0.00000000E+00  9.55249411E+00  9.55249411E+00 -1.91049882E+01
  0.00000000E+00  9.55249411E+00  9.55249411E+00 -1.91049882E+01  0.00000000E+00
  9.55249411E+00  9.55249411E+00 -1.91049882E+01  0.00000000E+00  9.55249411E+00
  9.55249411E+00 -1.91049882E+01  0.00000000E+00  9.55249411E+00  9.55249411E+00
 -1.91049882E+01  0.00000000E+00  9.55249411E+00  9.55249411E+00 -1.91049882E+01
  0.00000000E+00  9.55249411E+00  9.55249411E+00 -1.91049882E+01  0.00000000E+00
  9.55249411E+00  9.55249411E+00 -1.91049882E+01  0.00000000E+00  9.55249411E+00
  9.55249411E+00 -1.91049882E+01  0.00000000E+00  9.55249411E+00  9.55249411E+00
 -1.91049882E+01  0.00000000E+00  9.55249411E+00  9.55249411E+00 -1.91049882E+01
  0.00000000E+00  9.55249411E+00  9.55249411E+00 -1.91049882E+01  0.00000000E+00
  9.55249411E+00  9.55249411E+00 -1.91049882E+01  0.00000000E+00  9.55249411E+00
  9.55249411E+00 -1.91049882E+01  0.00000000E+00  9.55249411E+00  9.55249411E+00
 -1.91049882E+01  0.00000000E+00  9.55249411E+00  9.55249411E+00 -1.91049882E+01
  0.00000000E+00  9.55249411E+00  9.55249411E+00 -1.91049882E+01  0.00000000E+00
  9.55249411E+00  9.55249411E+00 -1.91049882E+01  0.00000000E+00  9.55249411E+00
  9.55249411E+00 -1.91049882E+01  0.00000000E+00  9.55249411E+00  9.55249411E+00
 -1.91049882E+01  0.00000000E+00  9.55249411E+00  9.55249411E+00 -1.91049882E+01
  0.00000000E+00  9.55249411E+00  9.55249411E+00 -1.91049882E+01  0.00000000E+00
  9.55249411E+00  9.55249411E+00 -1.91049882E+01  0.00000000E+00  9.55249411E+00
  9.55249411E+00 -1.91049882E+01  0.00000000E+00  9.55249411E+00  9.55249411E+00
 -1.91049882E+01  0.00000000E+00  9.55249411E+00  9.55249411E+00 -1.91049882E+01
  0.00000000E+00  9.55249411E+00  9.55249411E+00 -1.91049882E+01  0.00000000E+00
  9.55249411E+00  9.55249411E+00 -1.91049882E+01  0.00000000E+00  9.55249411E+00
  9.55249411E+00 -1.91049882E+01  0.00000000E+00  9.55249411E+00  9.55249411E+00
 -1.91049882E+01  0.00000000E+00  9.55249411E+00  9.55249411E+00 -1.91049882E+01
  0.00000000E+00  9.55249411E+00  9.55249411E+00 -1.91049882E+01  0.00000000E+00
  9.55249411E+00  9.55249411E+00 -1.91049882E+01  0.00000000E+00  9.55249411E+00
  9.55249411E+00 -1.91049882E+01  0.00000000E+00  9.55249411E+00  9.55249411E+00
 -1.91049882E+01  0.00000000E+00  9.55249411E+00  9.55249411E+00 -1.91049882E+01
  0.00000000E+00  9.55249411E+00  9.55249411E+00 -1.91049882E+01  0.00000000E+00
  9.55249411E+00  9.55249411E+00 -1.91049882E+01  0.00000000E+00  9.55249411E+00
  9.55249411E+00 -1.91049882E+01  0.00000000E+00  9.55249411E+00  9.55249411E+00
 -1.91049882E+01  0.00000000E+00  9.55249411E+00  9.55249411E+00 -1.91049882E+01
  0.00000000E+00  9.55249411E+00  9.55249411E+00 -1.91049882E+01  0.00000000E+00
  9.55249411E+00  9.55249411E+00 -1.91049882E+01  0.00000000E+00  9.55249411E+00
  9.55249411E+00 -1.91049882E+01  0.00000000E+00  9.55249411E+00  9.55249411E+00
 -1.91049882E+01  0.00000000E+00  9.55249411E+00  9.55249411E+00 -1.91049882E+01
  0.00000000E+00  9.55249411E+00  9.55249411E+00 -1.91049882E+01  0.00000000E+00
  9.55249411E+00  9.55249411E+00 -1.91049882E+01  0.00000000E+00  9.55249411E+00
  9.55249411E+00 -1.91049882E+01  0.00000000E+00  9.55249411E+00  9.55249411E+00
 -1.91049882E+01  0.00000000E+00  9.55249411E+00  9.55249411E+00 -1.91049882E+01
  0.00000000E+00  9.55249411E+00  9.55249411E+00 -1.91049882E+01  0.00000000E+00
  9.55249411E+00  9.55249411E+00 -1.91049882E+01  0.00000000E+00  9.55249411E+00
  9.55249411E+00 -1.91049882E+01  0.00000000E+00  9.55249411E+00  9.55249411E+00
 -1.91049882E+01  0.00000000E+00  9.55249411E+00  9.55249411E+00 -1.91049882E+01
  0.00000000E+00  9.55249411E+00  9.55249411E+00 -1.91049882E+01  0.00000000E+00
  9.55249411E+00  9.55249411E+00 -1.91049882E+01  0.00000000E+00  9.55249411E+00
  9.55249411E+00 -1.91049882E+01  0.00000000E+00  9.55249411E+00  9.55249411E+00
 -1.91049882E+01  0.00000000E+00  9.55249411E+00  9.55249411E+00 -1.91049882E+01
  0.00000000E+00  9.55249411E+00  9.55249411E+00 -1.91049882E+01  0.00000000E+00
  9.55249411E+00  9.55249411E+00 -1.91049882E+01  0.00000000E+00  9.55249411E+00
  9.55249411E+00 -1.91049882E+01  0.00000000E+00  9.55249411E+00  9.55249411E+00
 -1.91049882E+01  0.00000000E+00  9.55249411E+00  9.55249411E+00 -1.91049882E+01
  0.00000000E+00  9.55249411E+00  9.55249411E+00 -1.91049882E+01  0.00000000E+00
  9.55249411E+00  9.55249411E+00 -1.91049882E+01  0.00000000E+00  9.55249411E+00
  9.55249411E+00 -1.91049882E+01  0.00000000E+00  9.55249411E+00  9.55249411E+00
 -1.91049882E+01  0.00000000E+00  9.55249411E+00  9.55249411E+00 -1.91049882E+01
  0.00000000E+00  9.55249411E+00  9.55249411E+00 -1.91049882E+01  0.00000000E+00
  9.55249411E+00  9.55249411E+00 -1.91049882E+01  0.00000000E+00  9.55249411E+00
  9.55249411E+00 -1.91049882E+01  0.00000000E+00  9.55249411E+00  9.55249411E+00
 -1.91049882E+01  0.00000000E+00  9.55249411E+00  9.55249411E+00 -1.91049882E+01
  0.00000000E+00  9.55249411E+00  9.55249411E+00 -1.91049882E+01  0.00000000E+00
  9.55249411E+00  9.55249411E+00 -1.91049882E+01  0.00000000E+00  9.55249411E+00
  9.55249411E+00 -1.91049882E+01  0.00000000E+00  9.55249411E+00  9.55249411E+00
 -1.91049882E+01  0.00000000E+00  9.55249411E+00  9.55249411E+00 -1.91049882E+01
  0.00000000E+00  9.55249411E+00  9.55249411E+00 -1.91049882E+01  0.00000000E+00
  9.55249411E+00  9.55249411E+00 -1.91049882E+01  0.00000000E+00  9.55249411E+00
  9.55249411E+00 -1.91049882E+01  0.00000000E+00  9.55249411E+00  9.55249411E+00
 -1.91049882E+01  0.00000000E+00  9.55249411E+00  9.55249411E+00 -1.91049882E+01
  0.00000000E+00  9.55249411E+00  9.55249411E+00 -1.91049882E+01  0.00000000E+00
  9.55249411E+00  9.55249411E+00 -1.91049882E+01  0.00000000E+00  9.55249411E+00
  9.55249411E+00 -1.91049882E+01  0.00000000E+00  9.55249411E+00  9.55249411E+00
 -1.91049882E+01  0.00000000E+00  9.55249411E+00  9.55249411E+00 -1.91049882E+01
  0.00000000E+00  9.55249411E+00  9.55249411E+00 -1.91049882E+01  0.00000000E+00
  9.55249411E+00  9.55249411E+00 -1.91049882E+01  0.00000000E+00  9.55249411E+00
  9.55249411E+00 -1.91049882E+01  0.00000000E+00  9.55249411E+00  9.55249411E+00
 -1.91049882E+01  0.00000000E+00  9.55249411E+00  9.55249411E+00 -1.91049882E+01
  0.00000000E+00  9.55249411E+00  9.55249411E+00 -1.91049882E+01  0.00000000E+00
  9.55249411E+00  9.55249411E+00 -1.91049882E+01  0.00000000E+00  9.55249411E+00
  9.55249411E+00 -1.91049882E+01  0.00000000E+00  9.55249411E+00  9.55249411E+00
 -1.91049882E+01  0.00000000E+00  9.55249411E+00  9.55249411E+00 -1.91049882E+01
  0.00000000E+00  9.55249411E+00  9.55249411E+00 -1.91049882E+01  0.00000000E+00
  9.55249411E+00  9.55249411E+00 -1.91049882E+01  0.00000000E+00  9.55249411E+00
  9.55249411E+00 -1.91049882E+01  0.00000000E+00  9.55249411E+00  9.55249411E+00
 -1.91049882E+01  0.00000000E+00  9.55249411E+00  9.55249411E+00 -1.91049882E+01
  0.00000000E+00  9.55249411E+00  9.55249411E+00 -1.91049882E+01  0.00000000E+00
  9.55249411E+00  9.55249411E+00 -1.91049882E+01  0.00000000E+00  9.55249411E+00
  9.55249411E+00 -1.91049882E+01  0.00000000E+00  9.55249411E+00  9.55249411E+00
 -1.91049882E+01  0.00000000E+00  9.55249411E+00  9.55249411E+00 -1.91049882E+01
  0.00000000E+00  9.55249411E+00  9.55249411E+00 -1.91049882E+01  0.00000000E+00
  9.55249411E+00  9.55249411E+00 -1.91049882E+01  0.00000000E+00  9.55249411E+00
  9.55249411E+00 -1.91049882E+01  0.00000000E+00  9.55249411E+00  9.55249411E+00
 -1.91049882E+01  0.00000000E+00  9.55249411E+00  9.55249411E+00 -1.91049882E+01
  0.00000000E+00  9.55249411E+00  9.55249411E+00 -1.91049882E+01  0.00000000E+00
  9.55249411E+00  9.55249411E+00 -1.91049882E+01  0.00000000E+00  9.55249411E+00
  9.55249411E+00 -1.91049882E+01  0.00000000E+00  9.55249411E+00  9.55249411E+00
 -1.91049882E+01  0.00000000E+00  9.55249411E+00  9.55249411E+00 -1.91049882E+01
  0.00000000E+00  9.55249411E+00  9.55249411E+00 -1.91049882E+01  0.00000000E+00
  9.55249411E+00  9.55249411E+00 -1.91049882E+01  0.00000000E+00  9.55249411E+00
  9.55249411E+00 -1.91049882E+01  0.00000000E+00  9.55249411E+00  9.55249411E+00
 -1.91049882E+01  0.00000000E+00  9.55249411E+00  9.55249411E+00 -1.91049882E+01
  0.00000000E+00  9.55249411E+00  9.55249411E+00 -1.91049882E+01  0.00000000E+00
  9.55249411E+00  9.55249411E+00 -1.91049882E+01  0.00000000E+00  9.55249411E+00
  9.55249411E+00 -1.91049882E+01  0.00000000E+00  9.55249411E+00  9.55249411E+00
 -1.91049882E+01  0.00000000E+00  9.55249411E+00  9.55249411E+00 -1.91049882E+01
  0.00000000E+00  9.55249411E+00  9.55249411E+00 -1.91049882E+01  0.00000000E+00
  9.55249411E+00  9.55249411E+00 -1.91049882E+01  0.00000000E+00  9.55249411E+00
  9.55249411E+00 -1.91049882E+01  0.00000000E+00  9.55249411E+00  9.55249411E+00
 -1.91049882E+01  0.00000000E+00  9.55249411E+00  9.55249411E+00 -1.91049882E+01
  0.00000000E+00  9.55249411E+00  9.55249411E+00 -1.91049882E+01  0.00000000E+00
  9.55249411E+00  9.55249411E+00 -1.91049882E+01  0.00000000E+00  9.55249411E+00
  9.55249411E+00 -1.91049882E+01  0.00000000E+00  9.55249411E+00  9.55249411E+00
 -1.91049882E+01  0.00000000E+00  9.55249411E+00  9.55249411E+00 -1.91049882E+01
  0.00000000E+00  9.55249411E+00  9.55249411E+00 -1.91049882E+01  0.00000000E+00
  9.55249411E+00  9.55249411E+00 -1.91049882E+01  0.00000000E+00  9.55249411E+00
  9.55249411E+00 -1.91049882E+01  0.00000000E+00  9.55249411E+00  9.55249411E+00
 -1.91049882E+01  0.00000000E+00  9.55249411E+00  9.55249411E+00 -1.91049882E+01
  0.00000000E+00  9.55249411E+00  9.55249411E+00 -1.91049882E+01  0.00000000E+00
  9.55249411E+00  9.55249411E+00 -1.91049882E+01  0.00000000E+00  9.55249411E+00
  9.55249411E+00 -1.91049882E+01  0.00000000E+00  9.55249411E+00  9.55249411E+00
 -1.91049882E+01  0.00000000E+00  9.55249411E+00  9.55249411E+00 -1.91049882E+01
  0.00000000E+00  9.55249411E+00  9.55249411E+00 -1.91049882E+01  0.00000000E+00
  9.55249411E+00  9.55249411E+00 -1.91049882E+01  0.00000000E+00  9.55249411E+00
  9.55249411E+00 -1.91049882E+01  0.00000000E+00  9.55249411E+00  9.55249411E+00
 -1.91049882E+01  0.00000000E+00  9.55249411E+00  9.55249411E+00 -1.91049882E+01
  0.00000000E+00  9.55249411E+00  9.55249411E+00 -1.91049882E+01  0.00000000E+00
  9.55249411E+00  9.55249411E+00 -1.91049882E+01  0.00000000E+00  9.55249411E+00
  9.55249411E+00 -1.91049882E+01  0.00000000E+00  9.55249411E+00  9.55249411E+00
 -1.91049882E+01  0.00000000E+00  9.55249411E+00  9.55249411E+00 -1.91049882E+01
  0.00000000E+00  9.55249411E+00  9.55249411E+00 -1.91049882E+01  0.00000000E+00
  9.55249411E+00  9.55249411E+00 -1.91049882E+01  0.00000000E+00  9.55249411E+00
  9.55249411E+00 -1.91049882E+01  0.00000000E+00  9.55249411E+00  9.55249411E+00
 -1.91049882E+01  0.00000000E+00  9.55249411E+00  9.55249411E+00 -1.91049882E+01
  0.00000000E+00  9.55249411E+00  9.55249411E+00 -1.91049882E+01  0.00000000E+00
  9.55249411E+00  9.55249411E+00 -1.91049882E+01  0.00000000E+00  9.55249411E+00
  9.55249411E+00 -1.91049882E+01  0.00000000E+00  9.55249411E+00  9.55249411E+00
 -1.91049882E+01  0.00000000E+00  9.55249411E+00  9.55249411E+00 -1.91049882E+01
  0.00000000E+00  9.55249411E+00  9.55249411E+00 -1.91049882E+01  0.00000000E+00
  9.55249411E+00  9.55249411E+00 -1.91049882E+01  0.00000000E+00  9.55249411E+00
  9.55249411E+00 -1.91049882E+01  0.00000000E+00  9.55249411E+00  9.55249411E+00
 -1.91049882E+01  0.00000000E+00  9.55249411E+00  9.55249411E+00 -1.91049882E+01
  0.00000000E+00  9.55249411E+00  9.55249411E+00 -1.91049882E+01  0.00000000E+00
  9.55249411E+00  9.55249411E+00 -1.91049882E+01  0.00000000E+00  9.55249411E+00
  9.55249411E+00 -1.91049882E+01  0.00000000E+00  9.55249411E+00  9.55249411E+00
 -1.91049882E+01  0.00000000E+00  9.55249411E+00  9.55249411E+00 -1.91049882E+01
  0.00000000E+00  9.55249411E+00  9.55249411E+00 -1.91049882E+01  0.00000000E+00
  9.55249411E+00  9.55249411E+00 -1.91049882E+01  0.00000000E+00  9.55249411E+00
  9.55249411E+00 -1.91049882E+01  0.00000000E+00  9.55249411E+00  9.55249411E+00
 -1.91049882E+01  0.00000000E+00  9.55249411E+00  9.55249411E+00 -1.91049882E+01
  0.00000000E+00  9.55249411E+00  9.55249411E+00 -1.91049882E+01  0.00000000E+00
  9.55249411E+00  9.55249411E+00 -1.91049882E+01  0.00000000E+00  9.55249411E+00
  9.55249411E+00 -1.91049882E+01  0.00000000E+00  9.55249411E+00  9.55249411E+00
 -1.91049882E+01  0.00000000E+00  9.55249411E+00  9.55249411E+00 -1.91049882E+01
  0.00000000E+00  9.55249411E+00  9.55249411E+00 -1.91049882E+01  0.00000000E+00
  9.55249411E+00  9.55249411E+00 -1.91049882E+01  0.00000000E+00  9.55249411E+00
  9.55249411E+00 -1.91049882E+01  0.00000000E+00  9.55249411E+00  9.55249411E+00
 -1.91049882E+01  0.00000000E+00  9.55249411E+00  9.55249411E+00 -1.91049882E+01
  0.00000000E+00  9.55249411E+00  9.55249411E+00 -1.91049882E+01  0.00000000E+00
  9.55249411E+00  9.55249411E+00 -1.91049882E+01  0.00000000E+00  9.55249411E+00
  9.55249411E+00 -1.91049882E+01  0.00000000E+00  9.55249411E+00  9.55249411E+00
 -1.91049882E+01  0.00000000E+00  9.55249411E+00  9.55249411E+00 -1.91049882E+01
  0.00000000E+00  9.55249411E+00  9.55249411E+00 -1.91049882E+01  0.00000000E+00
  9.55249411E+00  9.55249411E+00 -1.91049882E+01  0.00000000E+00  9.55249411E+00
  9.55249411E+00 -1.91049882E+01  0.00000000E+00  9.55249411E+00  9.55249411E+00
 -1.91049882E+01  0.00000000E+00  9.55249411E+00  9.55249411E+00 -1.91049882E+01
  0.00000000E+00  9.55249411E+00  9.55249411E+00 -1.91049882E+01  0.00000000E+00
  9.55249411E+00  9.55249411E+00 -1.91049882E+01  0.00000000E+00  9.55249411E+00
  9.55249411E+00 -1.91049882E+01  0.00000000E+00  9.55249411E+00  9.55249411E+00
 -1.91049882E+01  0.00000000E+00  9.55249411E+00  9.55249411E+00 -1.91049882E+01
  0.00000000E+00  9.55249411E+00  9.55249411E+00 -1.91049882E+01  0.00000000E+00
  9.55249411E+00  9.55249411E+00 -1.91049882E+01  0.00000000E+00  9.55249411E+00
  9.55249411E+00 -1.91049882E+01  0.00000000E+00  9.55249411E+00  9.55249411E+00
 -1.91049882E+01  0.00000000E+00  9.55249411E+00  9.55249411E+00 -1.91049882E+01
  0.00000000E+00  9.55249411E+00  9.55249411E+00 -1.91049882E+01  0.00000000E+00
  9.55249411E+00  9.55249411E+00 -1.91049882E+01  0.00000000E+00  9.55249411E+00
  9.55249411E+00 -1.91049882E+01  0.00000000E+00  9.55249411E+00  9.55249411E+00
 -1.91049882E+01  0.00000000E+00  9.55249411E+00  9.55249411E+00 -1.91049882E+01
  0.00000000E+00  9.55249411E+00  9.55249411E+00 -1.91049882E+01  0.00000000E+00
  9.55249411E+00  9.55249411E+00 -1.91049882E+01  0.00000000E+00  9.55249411E+00
  9.55249411E+00 -1.91049882E+01  0.00000000E+00  9.55249411E+00  9.55249411E+00
 -1.91049882E+01  0.00000000E+00  9.55249411E+00  9.55249411E+00 -1.91049882E+01
  0.00000000E+00  9.55249411E+00  9.55249411E+00 -1.91049882E+01  0.00000000E+00
  9.55249411E+00  9.55249411E+00 -1.91049882E+01  0.00000000E+00  9.55249411E+00
  9.55249411E+00 -1.91049882E+01  0.00000000E+00  9.55249411E+00  9.55249411E+00
 -1.91049882E+01  0.00000000E+00  9.55249411E+00  9.55249411E+00 -1.91049882E+01
  0.00000000E+00  9.55249411E+00  9.55249411E+00 -1.91049882E+01  0.00000000E+00
  9.55249411E+00  9.55249411E+00 -1.91049882E+01  0.00000000E+00  9.55249411E+00
  9.55249411E+00 -1.91049882E+01  0.00000000E+00  9.55249411E+00  9.55249411E+00
 -1.91049882E+01  0.00000000E+00  9.55249411E+00  9.55249411E+00 -1.91049882E+01
  0.00000000E+00  9.55249411E+00  9.55249411E+00 -1.91049882E+01  0.00000000E+00
  9.55249411E+00  9.55249411E+00 -1.91049882E+01  0.00000000E+00  9.55249411E+00
  9.55249411E+00 -1.91049882E+01  0.00000000E+00  9.55249411E+00  9.55249411E+00
 -1.91049882E+01  0.00000000E+00  9.55249411E+00  9.55249411E+00 -1.91049882E+01
  0.00000000E+00  9.55249411E+00  9.55249411E+00 -1.91049882E+01  0.00000000E+00
  9.55249411E+00  9.55249411E+00 -1.91049882E+01  0.00000000E+00  9.55249411E+00
  9.55249411E+00 -1.91049882E+01  0.00000000E+00  9.55249411E+00  9.55249411E+00
 -1.91049882E+01  0.00000000E+00  9.55249411E+00  9.55249411E+00 -1.91049882E+01
  0.00000000E+00  9.55249411E+00  9.55249411E+00 -1.91049882E+01  0.00000000E+00
  9.55249411E+00  9.55249411E+00 -1.91049882E+01  0.00000000E+00  9.55249411E+00
  9.55249411E+00 -1.91049882E+01  0.00000000E+00  9.55249411E+00  9.55249411E+00
 -1.91049882E+01  0.00000000E+00  9.55249411E+00  9.55249411E+00 -1.91049882E+01
  0.00000000E+00  9.55249411E+00  9.55249411E+00 -1.91049882E+01  0.00000000E+00
  9.55249411E+00  9.55249411E+00 -1.91049882E+01  0.00000000E+00  9.55249411E+00
  9.55249411E+00 -1.91049882E+01  0.00000000E+00  9.55249411E+00  9.55249411E+00
 -1.91049882E+01  0.00000000E+00  9.55249411E+00  9.55249411E+00 -1.91049882E+01
  0.00000000E+00  9.55249411E+00  9.55249411E+00 -1.91049882E+01  0.00000000E+00
  9.55249411E+00  9.55249411E+00 -1.91049882E+01  0.00000000E+00  9.55249411E+00
  9.55249411E+00 -1.91049882E+01  0.00000000E+00  9.55249411E+00  9.55249411E+00
 -1.91049882E+01  0.00000000E+00  9.55249411E+00  9.55249411E+00 -1.91049882E+01
  0.00000000E+00  9.55249411E+00  9.55249411E+00 -1.91049882E+01  0.00000000E+00
  9.55249411E+00  9.55249411E+00 -1.91049882E+01  0.00000000E+00  9.55249411E+00
  9.55249411E+00 -1.91049882E+01  0.00000000E+00  9.55249411E+00  9.55249411E+00
 -1.91049882E+01  0.00000000E+00  9.55249411E+00  9.55249411E+00 -1.91049882E+01
  0.00000000E+00  9.55249411E+00  9.55249411E+00 -1.91049882E+01  0.00000000E+00
  9.55249411E+00  9.55249411E+00 -1.91049882E+01  0.00000000E+00  9.55249411E+00
  9.55249411E+00 -1.91049882E+01  0.00000000E+00  9.55249411E+00  9.55249411E+00
 -1.91049882E+01  0.00000000E+00  9.55249411E+00  9.55249411E+00 -1.91049882E+01
  0.00000000E+00  9.55249411E+00  9.55249411E+00 -1.91049882E+01  0.00000000E+00
  9.55249411E+00  9.55249411E+00 -1.91049882E+01  0.00000000E+00  9.55249411E+00
  9.55249411E+00 -1.91049882E+01  0.00000000E+00  9.55249411E+00  9.55249411E+00
 -1.91049882E+01  0.00000000E+00  9.55249411E+00  9.55249411E+00 -1.91049882E+01
  0.00000000E+00  9.55249411E+00  9.55249411E+00 -1.91049882E+01  0.00000000E+00
  9.55249411E+00  9.55249411E+00 -1.91049882E+01  0.00000000E+00  9.55249411E+00
  9.55249411E+00 -1.91049882E+01  0.00000000E+00  9.55249411E+00  9.55249411E+00
 -1.91049882E+01  0.00000000E+00  9.55249411E+00  9.55249411E+00 -1.91049882E+01
  0.00000000E+00  9.55249411E+00  9.55249411E+00 -1.91049882E+01  0.00000000E+00
  9.55249411E+00  9.55249411E+00 -1.91049882E+01  0.00000000E+00  9.55249411E+00
  9.55249411E+00 -1.91049882E+01  0.00000000E+00  9.55249411E+00  9.55249411E+00
 -1.91049882E+01  0.00000000E+00  9.55249411E+00  9.55249411E+00 -1.91049882E+01
  0.00000000E+00  9.55249411E+00  9.55249411E+00 -1.91049882E+01  0.00000000E+00
  9.55249411E+00  9.55249411E+00 -1.91049882E+01  0.00000000E+00  9.55249411E+00
  9.55249411E+00 -1.91049882E+01  0.00000000E+00  9.55249411E+00  9.55249411E+00
 -1.91049882E+01  0.00000000E+00  9.55249411E+00  9.55249411E+00 -1.91049882E+01
  0.00000000E+00  9.55249411E+00  9.55249411E+00 -1.91049882E+01  0.00000000E+00
  9.55249411E+00  9.55249411E+00 -1.91049882E+01  0.00000000E+00  9.55249411E+00
  9.55249411E+00 -1.91049882E+01  0.00000000E+00  9.55249411E+00  9.55249411E+00
 -1.91049882E+01  0.00000000E+00  9.55249411E+00  9.55249411E+00 -1.91049882E+01
  0.00000000E+00  9.55249411E+00  9.55249411E+00 -1.91049882E+01  0.00000000E+00
  9.55249411E+00  9.55249411E+00 -1.91049882E+01  0.00000000E+00  9.55249411E+00
  9.55249411E+00 -1.91049882E+01  0.00000000E+00  9.55249411E+00  9.55249411E+00
 -1.91049882E+01  0.00000000E+00  9.55249411E+00  9.55249411E+00 -1.91049882E+01
  0.00000000E+00  9.55249411E+00  9.55249411E+00 -1.91049882E+01  0.00000000E+00
  9.55249411E+00  9.55249411E+00 -1.91049882E+01  0.00000000E+00  9.55249411E+00
  9.55249411E+00 -1.91049882E+01  0.00000000E+00  9.55249411E+00  9.55249411E+00
 -1.91049882E+01  0.00000000E+00  9.55249411E+00  9.55249411E+00 -1.91049882E+01
  0.00000000E+00  9.55249411E+00  9.55249411E+00 -1.91049882E+01  0.00000000E+00
  9.55249411E+00  9.55249411E+00 -1.91049882E+01  0.00000000E+00  9.55249411E+00
  9.55249411E+00 -1.91049882E+01  0.00000000E+00  9.55249411E+00  9.55249411E+00
 -1.91049882E+01  0.00000000E+00  9.55249411E+00  9.55249411E+00 -1.91049882E+01
  0.00000000E+00  9.55249411E+00  9.55249411E+00 -1.91049882E+01  0.00000000E+00
  9.55249411E+00  9.55249411E+00 -1.91049882E+01  0.00000000E+00  9.55249411E+00
  9.55249411E+00 -1.91049882E+01  0.00000000E+00  9.55249411E+00  9.55249411E+00
 -1.91049882E+01  0.00000000E+00  9.55249411E+00  9.55249411E+00 -1.91049882E+01
  0.00000000E+00  9.55249411E+00  9.55249411E+00 -1.91049882E+01  0.00000000E+00
  9.55249411E+00  9.55249411E+00 -1.91049882E+01  0.00000000E+00  9.55249411E+00
  9.55249411E+00 -1.91049882E+01  0.00000000E+00  9.55249411E+00  9.55249411E+00
 -1.91049882E+01  0.00000000E+00  9.55249411E+00  9.55249411E+00 -1.91049882E+01
  0.00000000E+00  9.55249411E+00  9.55249411E+00 -1.91049882E+01  0.00000000E+00
  9.55249411E+00  9.55249411E+00 -1.91049882E+01  0.00000000E+00  9.55249411E+00
  9.55249411E+00 -1.91049882E+01  0.00000000E+00  9.55249411E+00  9.55249411E+00
 -1.91049882E+01  0.00000000E+00  9.55249411E+00  9.55249411E+00 -1.91049882E+01
  0.00000000E+00  9.55249411E+00  9.55249411E+00 -1.91049882E+01  0.00000000E+00
  9.55249411E+00  9.55249411E+00 -1.91049882E+01  0.00000000E+00  9.55249411E+00
  9.55249411E+00 -1.91049882E+01  0.00000000E+00  9.55249411E+00  9.55249411E+00
 -1.91049882E+01  0.00000000E+00  9.55249411E+00  9.55249411E+00 -1.91049882E+01
  0.00000000E+00  9.55249411E+00  9.55249411E+00 -1.91049882E+01  0.00000000E+00
  9.55249411E+00  9.55249411E+00 -1.91049882E+01  0.00000000E+00  9.55249411E+00
  9.55249411E+00 -1.91049882E+01  0.00000000E+00  9.55249411E+00  9.55249411E+00
 -1.91049882E+01  0.00000000E+00  9.55249411E+00  9.55249411E+00 -1.91049882E+01
  0.00000000E+00  9.55249411E+00  9.55249411E+00 -1.91049882E+01  0.00000000E+00
  9.55249411E+00  9.55249411E+00 -1.91049882E+01  0.00000000E+00  9.55249411E+00
  9.55249411E+00 -1.91049882E+01  0.00000000E+00  9.55249411E+00  9.55249411E+00
 -1.91049882E+01  0.00000000E+00  9.55249411E+00  9.55249411E+00 -1.91049882E+01
  0.00000000E+00  9.55249411E+00  9.55249411E+00 -1.91049882E+01  0.00000000E+00
  9.55249411E+00  9.55249411E+00 -1.91049882E+01  0.00000000E+00  9.55249411E+00
  9.55249411E+00 -1.91049882E+01  0.00000000E+00  9.55249411E+00  9.55249411E+00
 -1.91049882E+01  0.00000000E+00  9.55249411E+00  9.55249411E+00 -1.91049882E+01
  0.00000000E+00  9.55249411E+00  9.55249411E+00 -1.91049882E+01  0.00000000E+00
  9.55249411E+00  9.55249411E+00 -1.91049882E+01  0.00000000E+00  9.55249411E+00
  9.55249411E+00 -1.91049882E+01  0.00000000E+00  9.55249411E+00  9.55249411E+00
 -1.91049882E+01  0.00000000E+00  9.55249411E+00  9.55249411E+00 -1.91049882E+01
  0.00000000E+00  9.55249411E+00  9.55249411E+00 -1.91049882E+01  0.00000000E+00
  9.55249411E+00  9.55249411E+00 -1.91049882E+01  0.00000000E+00  9.55249411E+00
  9.55249411E+00 -1.91049882E+01  0.00000000E+00  9.55249411E+00  9.55249411E+00
 -1.91049882E+01  0.00000000E+00  9.55249411E+00  9.55249411E+00 -1.91049882E+01
  0.00000000E+00  9.55249411E+00  9.55249411E+00 -1.91049882E+01  0.00000000E+00
  9.55249411E+00  9.55249411E+00 -1.91049882E+01  0.00000000E+00  9.55249411E+00
  9.55249411E+00 -1.91049882E+01  0.00000000E+00  9.55249411E+00  9.55249411E+00
 -1.91049882E+01  0.00000000E+00  9.55249411E+00  9.55249411E+00 -1.91049882E+01
  0.00000000E+00  9.55249411E+00  9.55249411E+00 -1.91049882E+01  0.00000000E+00
  9.55249411E+00  9.55249411E+00 -1.91049882E+01  0.00000000E+00  9.55249411E+00
  9.55249411E+00 -1.91049882E+01  0.00000000E+00  9.55249411E+00  9.55249411E+00
 -1.91049882E+01  0.00000000E+00  9.55249411E+00  9.55249411E+00 -1.91049882E+01
  0.00000000E+00  9.55249411E+00  9.55249411E+00 -1.91049882E+01  0.00000000E+00
  9.55249411E+00  9.55249411E+00 -1.91049882E+01  0.00000000E+00  9.55249411E+00
  9.55249411E+00 -1.91049882E+01  0.00000000E+00  9.55249411E+00  9.55249411E+00
 -1.91049882E+01  0.00000000E+00  9.55249411E+00  9.55249411E+00 -1.91049882E+01
  0.00000000E+00  9.55249411E+00  9.55249411E+00 -1.91049882E+01  0.00000000E+00
  9.55249411E+00  9.55249411E+00 -1.91049882E+01  0.00000000E+00  9.55249411E+00
  9.55249411E+00 -1.91049882E+01  0.00000000E+00  9.55249411E+00  9.55249411E+00
 -1.91049882E+01  0.00000000E+00  9.55249411E+00  9.55249411E+00 -1.91049882E+01
  0.00000000E+00  9.55249411E+00  9.55249411E+00 -1.91049882E+01  0.00000000E+00
  9.55249411E+00  9.55249411E+00 -1.91049882E+01  0.00000000E+00  9.55249411E+00
  9.55249411E+00 -1.91049882E+01  0.00000000E+00  9.55249411E+00  9.55249411E+00
 -1.91049882E+01  0.00000000E+00  9.55249411E+00  9.55249411E+00 -1.91049882E+01
  0.00000000E+00  9.55249411E+00  9.55249411E+00 -1.91049882E+01  0.00000000E+00
  9.55249411E+00  9.55249411E+00 -1.91049882E+01  0.00000000E+00  9.55249411E+00
  9.55249411E+00 -1.91049882E+01  0.00000000E+00  9.55249411E+00  9.55249411E+00
 -1.91049882E+01  0.00000000E+00  9.55249411E+00  9.55249411E+00 -1.91049882E+01
  0.00000000E+00  9.55249411E+00  9.55249411E+00 -1.91049882E+01  0.00000000E+00
  9.55249411E+00  9.55249411E+00 -1.91049882E+01  0.00000000E+00  9.55249411E+00
  9.55249411E+00 -1.91049882E+01  0.00000000E+00  9.55249411E+00  9.55249411E+00
 -1.91049882E+01  0.00000000E+00  9.55249411E+00  9.55249411E+00 -1.91049882E+01
  0.00000000E+00  9.55249411E+00  9.55249411E+00 -1.91049882E+01  0.00000000E+00
  9.55249411E+00  9.55249411E+00 -1.91049882E+01  0.00000000E+00  9.55249411E+00
  9.55249411E+00 -1.91049882E+01  0.00000000E+00  9.55249411E+00  9.55249411E+00
 -1.91049882E+01  0.00000000E+00  9.55249411E+00  9.55249411E+00 -1.91049882E+01
  0.00000000E+00  9.55249411E+00  9.55249411E+00 -1.91049882E+01  0.00000000E+00
  9.55249411E+00  9.55249411E+00 -1.91049882E+01  0.00000000E+00  9.55249411E+00
  9.55249411E+00 -1.91049882E+01  0.00000000E+00  9.55249411E+00  9.55249411E+00
 -1.91049882E+01  0.00000000E+00  9.55249411E+00  9.55249411E+00 -1.91049882E+01
  0.00000000E+00  9.55249411E+00  9.55249411E+00 -1.91049882E+01  0.00000000E+00
  9.55249411E+00  9.55249411E+00 -1.91049882E+01  0.00000000E+00  9.55249411E+00
  9.55249411E+00 -1.91049882E+01  0.00000000E+00  9.55249411E+00  9.55249411E+00
 -1.91049882E+01  0.00000000E+00  9.55249411E+00  9.55249411E+00 -1.91049882E+01
  0.00000000E+00  9.55249411E+00  9.55249411E+00 -1.91049882E+01  0.00000000E+00
  9.55249411E+00  9.55249411E+00 -1.91049882E+01  0.00000000E+00  9.55249411E+00
  9.55249411E+00 -1.91049882E+01  0.00000000E+00  9.55249411E+00  9.55249411E+00
 -1.91049882E+01  0.00000000E+00  9.55249411E+00  9.55249411E+00 -1.91049882E+01
  0.00000000E+00  9.55249411E+00  9.55249411E+00 -1.91049882E+01  0.00000000E+00
  9.55249411E+00  9.55249411E+00 -1.91049882E+01  0.00000000E+00  9.55249411E+00
  9.55249411E+00 -1.91049882E+01  0.00000000E+00  9.55249411E+00  9.55249411E+00
 -1.91049882E+01  0.00000000E+00  9.55249411E+00  9.55249411E+00 -1.91049882E+01
  0.00000000E+00  9.55249411E+00  9.55249411E+00 -1.91049882E+01  0.00000000E+00
  9.55249411E+00  9.55249411E+00 -1.91049882E+01  0.00000000E+00  9.55249411E+00
  9.55249411E+00 -1.91049882E+01  0.00000000E+00  9.55249411E+00  9.55249411E+00
 -1.91049882E+01  0.00000000E+00  9.55249411E+00  9.55249411E+00 -1.91049882E+01
  0.00000000E+00  9.55249411E+00  9.55249411E+00 -1.91049882E+01  0.00000000E+00
  9.55249411E+00  9.55249411E+00 -1.91049882E+01  0.00000000E+00  9.55249411E+00
  9.55249411E+00 -1.91049882E+01  0.00000000E+00  9.55249411E+00  9.55249411E+00
 -1.91049882E+01  0.00000000E+00  9.55249411E+00  9.55249411E+00 -1.91049882E+01
  0.00000000E+00  9.55249411E+00  9.55249411E+00 -1.91049882E+01  0.00000000E+00
  9.55249411E+00  9.55249411E+00 -1.91049882E+01  0.00000000E+00  9.55249411E+00
  9.55249411E+00 -1.91049882E+01  0.00000000E+00  9.55249411E+00  9.55249411E+00
 -1.91049882E+01  0.00000000E+00  9.55249411E+00  9.55249411E+00 -1.91049882E+01
  0.00000000E+00  9.55249411E+00  9.55249411E+00 -1.91049882E+01  0.00000000E+00
  9.55249411E+00  9.55249411E+00 -1.91049882E+01  0.00000000E+00  9.55249411E+00
  9.55249411E+00 -1.91049882E+01  0.00000000E+00  9.55249411E+00  9.55249411E+00
 -1.91049882E+01  0.00000000E+00  9.55249411E+00  9.55249411E+00 -1.91049882E+01
  0.00000000E+00  9.55249411E+00  9.55249411E+00 -1.91049882E+01  0.00000000E+00
  9.55249411E+00  9.55249411E+00 -1.91049882E+01  0.00000000E+00  9.55249411E+00
  9.55249411E+00 -1.91049882E+01  0.00000000E+00  9.55249411E+00  9.55249411E+00
 -1.91049882E+01  0.00000000E+00  9.55249411E+00  9.55249411E+00 -1.91049882E+01
  0.00000000E+00  9.55249411E+00  9.55249411E+00 -1.91049882E+01  0.00000000E+00
  9.55249411E+00  9.55249411E+00 -1.91049882E+01  0.00000000E+00  9.55249411E+00
  9.55249411E+00 -1.91049882E+01  0.00000000E+00  9.55249411E+00  9.55249411E+00
 -1.91049882E+01  0.00000000E+00  9.55249411E+00  9.55249411E+00 -1.91049882E+01
  0.00000000E+00  9.55249411E+00  9.55249411E+00 -1.91049882E+01  0.00000000E+00
  9.55249411E+00  9.55249411E+00 -1.91049882E+01  0.00000000E+00  9.55249411E+00
  9.55249411E+00 -1.91049882E+01  0.00000000E+00  9.55249411E+00  9.55249411E+00
 -1.91049882E+01  0.00000000E+00  9.55249411E+00  9.55249411E+00 -1.91049882E+01
  0.00000000E+00  9.55249411E+00  9.55249411E+00 -1.91049882E+01  0.00000000E+00
  9.55249411E+00  9.55249411E+00 -1.91049882E+01  0.00000000E+00  9.55249411E+00
  9.55249411E+00 -1.91049882E+01  0.00000000E+00  9.55249411E+00  9.55249411E+00
 -1.91049882E+01  0.00000000E+00  9.55249411E+00  9.55249411E+00 -1.91049882E+01
  0.00000000E+00  9.55249411E+00  9.55249411E+00 -1.91049882E+01  0.00000000E+00
  9.55249411E+00  9.55249411E+00 -1.91049882E+01  0.00000000E+00  9.55249411E+00
  9.55249411E+00 -1.91049882E+01  0.00000000E+00  9.55249411E+00  9.55249411E+00
 -1.91049882E+01  0.00000000E+00  9.55249411E+00  9.55249411E+00 -1.91049882E+01
  0.00000000E+00  9.55249411E+00  9.55249411E+00 -1.91049882E+01  0.00000000E+00
  9.55249411E+00  9.55249411E+00 -1.91049882E+01  0.00000000E+00  9.55249411E+00
  9.55249411E+00 -1.91049882E+01  0.00000000E+00  9.55249411E+00  9.55249411E+00
 -1.91049882E+01  0.00000000E+00  9.55249411E+00  9.55249411E+00 -1.91049882E+01
  0.00000000E+00  9.55249411E+00  9.55249411E+00 -1.91049882E+01  0.00000000E+00
  9.55249411E+00  9.55249411E+00 -1.91049882E+01  0.00000000E+00  9.55249411E+00
  9.55249411E+00 -1.91049882E+01  0.00000000E+00  9.55249411E+00  9.55249411E+00
 -1.91049882E+01  0.00000000E+00  9.55249411E+00  9.55249411E+00 -1.91049882E+01
  0.00000000E+00  9.55249411E+00  9.55249411E+00 -1.91049882E+01  0.00000000E+00
  9.55249411E+00  9.55249411E+00 -1.91049882E+01  0.00000000E+00  9.55249411E+00
  9.55249411E+00 -1.91049882E+01  0.00000000E+00  9.55249411E+00  9.55249411E+00
 -1.91049882E+01  0.00000000E+00  9.55249411E+00  9.55249411E+00 -1.91049882E+01
  0.00000000E+00  9.55249411E+00  9.55249411E+00 -1.91049882E+01  0.00000000E+00
  9.55249411E+00  9.55249411E+00 -1.91049882E+01  0.00000000E+00  9.55249411E+00
  9.55249411E+00 -1.91049882E+01  0.00000000E+00  9.55249411E+00  9.55249411E+00
 -1.91049882E+01  0.00000000E+00  9.55249411E+00  9.55249411E+00 -1.91049882E+01
  0.00000000E+00  9.55249411E+00  9.55249411E+00 -1.91049882E+01  0.00000000E+00
  9.55249411E+00  9.55249411E+00 -1.91049882E+01  0.00000000E+00  9.55249411E+00
  9.55249411E+00 -1.91049882E+01  0.00000000E+00  9.55249411E+00  9.55249411E+00
 -1.91049882E+01  0.00000000E+00  9.55249411E+00  9.55249411E+00 -1.91049882E+01
  0.00000000E+00  9.55249411E+00  9.55249411E+00 -1.91049882E+01  0.00000000E+00
  9.55249411E+00  9.55249411E+00 -1.91049882E+01  0.00000000E+00  9.55249411E+00
  9.55249411E+00 -1.91049882E+01  0.00000000E+00  9.55249411E+00  9.55249411E+00
 -1.91049882E+01  0.00000000E+00  9.55249411E+00  9.55249411E+00 -1.91049882E+01
  0.00000000E+00  9.55249411E+00  9.55249411E+00 -1.91049882E+01  0.00000000E+00
  9.55249411E+00  9.55249411E+00 -1.91049882E+01  0.00000000E+00  9.55249411E+00
  9.55249411E+00 -1.91049882E+01  0.00000000E+00  9.55249411E+00  9.55249411E+00
 -1.91049882E+01  0.00000000E+00  9.55249411E+00  9.55249411E+00 -1.91049882E+01
  0.00000000E+00  9.55249411E+00  9.55249411E+00 -1.91049882E+01  0.00000000E+00
  9.55249411E+00  9.55249411E+00 -1.91049882E+01  0.00000000E+00  9.55249411E+00
  9.55249411E+00 -1.91049882E+01  0.00000000E+00  9.55249411E+00  9.55249411E+00
 -1.91049882E+01  0.00000000E+00  9.55249411E+00  9.55249411E+00 -1.91049882E+01
  0.00000000E+00  9.55249411E+00  9.55249411E+00 -1.91049882E+01  0.00000000E+00
  9.55249411E+00  9.55249411E+00 -1.91049882E+01  0.00000000E+00  9.55249411E+00
  9.55249411E+00 -1.91049882E+01  0.00000000E+00  9.55249411E+00  9.55249411E+00
 -1.91049882E+01  0.00000000E+00  9.55249411E+00  9.55249411E+00 -1.91049882E+01
  0.00000000E+00  9.55249411E+00  9.55249411E+00 -1.91049882E+01  0.00000000E+00
  9.55249411E+00  9.55249411E+00 -1.91049882E+01  0.00000000E+00  9.55249411E+00
  9.55249411E+00 -1.91049882E+01  0.00000000E+00  9.55249411E+00  9.55249411E+00
 -1.91049882E+01  0.00000000E+00  9.55249411E+00  9.55249411E+00 -1.91049882E+01
  0.00000000E+00  9.55249411E+00  9.55249411E+00 -1.91049882E+01  0.00000000E+00
  9.55249411E+00  9.55249411E+00 -1.91049882E+01  0.00000000E+00  9.55249411E+00
  9.55249411E+00 -1.91049882E+01  0.00000000E+00  9.55249411E+00  9.55249411E+00
 -1.91049882E+01  0.00000000E+00  9.55249411E+00  9.55249411E+00 -1.91049882E+01
  0.00000000E+00  9.55249411E+00  9.55249411E+00 -1.91049882E+01  0.00000000E+00
  9.55249411E+00  9.55249411E+00 -1.91049882E+01  0.00000000E+00  9.55249411E+00
  9.55249411E+00 -1.91049882E+01  0.00000000E+00  9.55249411E+00  9.55249411E+00
 -1.91049882E+01  0.00000000E+00  9.55249411E+00  9.55249411E+00 -1.91049882E+01
  0.00000000E+00  9.55249411E+00  9.55249411E+00 -1.91049882E+01  0.00000000E+00
  9.55249411E+00  9.55249411E+00 -1.91049882E+01  0.00000000E+00  9.55249411E+00
  9.55249411E+00 -1.91049882E+01  0.00000000E+00  9.55249411E+00  9.55249411E+00
 -1.91049882E+01  0.00000000E+00  9.55249411E+00  9.55249411E+00 -1.91049882E+01
  0.00000000E+00  9.55249411E+00  9.55249411E+00 -1.91049882E+01  0.00000000E+00
  9.55249411E+00  9.55249411E+00 -1.91049882E+01  0.00000000E+00  9.55249411E+00
  9.55249411E+00 -1.91049882E+01  0.00000000E+00  9.55249411E+00  9.55249411E+00
 -1.91049882E+01  0.00000000E+00  9.55249411E+00  9.55249411E+00 -1.91049882E+01
  0.00000000E+00  9.55249411E+00  9.55249411E+00 -1.91049882E+01  0.00000000E+00
  9.55249411E+00  9.55249411E+00 -1.91049882E+01  0.00000000E+00  9.55249411E+00
  9.55249411E+00 -1.91049882E+01  0.00000000E+00  9.55249411E+00  9.55249411E+00
 -1.91049882E+01  0.00000000E+00  9.55249411E+00  9.55249411E+00 -1.91049882E+01
  0.00000000E+00  9.55249411E+00  9.55249411E+00 -1.91049882E+01  0.00000000E+00
  9.55249411E+00  9.55249411E+00 -1.91049882E+01  0.00000000E+00  9.55249411E+00
  9.55249411E+00 -1.91049882E+01  0.00000000E+00  9.55249411E+00  9.55249411E+00
 -1.91049882E+01  0.00000000E+00  9.55249411E+00  9.55249411E+00 -1.91049882E+01
  0.00000000E+00  9.55249411E+00  9.55249411E+00 -1.91049882E+01  0.00000000E+00
  9.55249411E+00  9.55249411E+00 -1.91049882E+01  0.00000000E+00  9.55249411E+00
  9.55249411E+00 -1.91049882E+01  0.00000000E+00  9.55249411E+00  9.55249411E+00
 -1.91049882E+01  0.00000000E+00  9.55249411E+00  9.55249411E+00 -1.91049882E+01
  0.00000000E+00  9.55249411E+00  9.55249411E+00 -1.91049882E+01  0.00000000E+00
  9.55249411E+00  9.55249411E+00 -1.91049882E+01  0.00000000E+00  9.55249411E+00
  9.55249411E+00 -1.91049882E+01  0.00000000E+00  9.55249411E+00  9.55249411E+00
 -1.91049882E+01  0.00000000E+00  9.55249411E+00  9.55249411E+00 -1.91049882E+01
  0.00000000E+00  9.55249411E+00  9.55249411E+00 -1.91049882E+01  0.00000000E+00
  9.55249411E+00  9.55249411E+00 -1.91049882E+01  0.00000000E+00  9.55249411E+00
  9.55249411E+00 -1.91049882E+01  0.00000000E+00  9.55249411E+00  9.55249411E+00
 -1.91049882E+01  0.00000000E+00  9.55249411E+00  9.55249411E+00 -1.91049882E+01
  0.00000000E+00  9.55249411E+00  9.55249411E+00 -1.91049882E+01  0.00000000E+00
  9.55249411E+00  9.55249411E+00 -1.91049882E+01  0.00000000E+00  9.55249411E+00
  9.55249411E+00 -1.91049882E+01  0.00000000E+00  9.55249411E+00  9.55249411E+00
 -1.91049882E+01  0.00000000E+00  9.55249411E+00  9.55249411E+00 -1.91049882E+01
  0.00000000E+00  9.55249411E+00  9.55249411E+00 -1.91049882E+01  0.00000000E+00
  9.55249411E+00  9.55249411E+00 -1.91049882E+01  0.00000000E+00  9.55249411E+00
  9.55249411E+00 -1.91049882E+01  0.00000000E+00  9.55249411E+00  9.55249411E+00
 -1.91049882E+01  0.00000000E+00  9.55249411E+00  9.55249411E+00 -1.91049882E+01
  0.00000000E+00  9.55249411E+00  9.55249411E+00 -1.91049882E+01  0.00000000E+00
  9.55249411E+00  9.55249411E+00 -1.91049882E+01  0.00000000E+00  9.55249411E+00
  9.55249411E+00 -1.91049882E+01  0.00000000E+00  9.55249411E+00  9.55249411E+00
 -1.91049882E+01  0.00000000E+00  9.55249411E+00  9.55249411E+00 -1.91049882E+01
  0.00000000E+00  9.55249411E+00  9.55249411E+00 -1.91049882E+01  0.00000000E+00
  9.55249411E+00  9.55249411E+00 -1.91049882E+01  0.00000000E+00  9.55249411E+00
  9.55249411E+00 -1.91049882E+01  0.00000000E+00  9.55249411E+00  9.55249411E+00
 -1.91049882E+01  0.00000000E+00  9.55249411E+00  9.55249411E+00 -1.91049882E+01
  0.00000000E+00  9.55249411E+00  9.55249411E+00 -1.91049882E+01  0.00000000E+00
  9.55249411E+00  9.55249411E+00 -1.91049882E+01  0.00000000E+00  9.55249411E+00
  9.55249411E+00 -1.91049882E+01  0.00000000E+00  9.55249411E+00  9.55249411E+00
 -1.91049882E+01  0.00000000E+00  9.55249411E+00  9.55249411E+00 -1.91049882E+01
  0.00000000E+00  9.55249411E+00  9.55249411E+00 -1.91049882E+01  0.00000000E+00
  9.55249411E+00  9.55249411E+00 -1.91049882E+01  0.00000000E+00  9.55249411E+00
  9.55249411E+00 -1.91049882E+01  0.00000000E+00  9.55249411E+00  9.55249411E+00
 -1.91049882E+01  0.00000000E+00  9.55249411E+00  9.55249411E+00 -1.91049882E+01
  0.00000000E+00  9.55249411E+00  9.55249411E+00 -1.91049882E+01  0.00000000E+00
  9.55249411E+00  9.55249411E+00 -1.91049882E+01  0.00000000E+00  9.55249411E+00
  9.55249411E+00 -1.91049882E+01  0.00000000E+00  9.55249411E+00  9.55249411E+00
 -1.91049882E+01  0.00000000E+00  9.55249411E+00  9.55249411E+00 -1.91049882E+01
  0.00000000E+00  9.55249411E+00  9.55249411E+00 -1.91049882E+01  0.00000000E+00
  9.55249411E+00  9.55249411E+00 -1.91049882E+01  0.00000000E+00  9.55249411E+00
  9.55249411E+00 -1.91049882E+01  0.00000000E+00  9.55249411E+00  9.55249411E+00
 -1.91049882E+01  0.00000000E+00  9.55249411E+00  9.55249411E+00 -1.91049882E+01
  0.00000000E+00  9.55249411E+00  9.55249411E+00 -1.91049882E+01  0.00000000E+00
  9.55249411E+00  9.55249411E+00 -1.91049882E+01  0.00000000E+00  9.55249411E+00
  9.55249411E+00 -1.91049882E+01  0.00000000E+00  9.55249411E+00  9.55249411E+00
 -1.91049882E+01  0.00000000E+00  9.55249411E+00  9.55249411E+00 -1.91049882E+01
  0.00000000E+00  9.55249411E+00  9.55249411E+00 -1.91049882E+01  0.00000000E+00
  9.55249411E+00  9.55249411E+00 -1.91049882E+01  0.00000000E+00  9.55249411E+00
  9.55249411E+00 -1.91049882E+01  0.00000000E+00  9.55249411E+00  9.55249411E+00
 -1.91049882E+01  0.00000000E+00  9.55249411E+00  9.55249411E+00 -1.91049882E+01
  0.00000000E+00  9.55249411E+00  9.55249411E+00 -1.91049882E+01  0.00000000E+00
  9.55249411E+00  9.55249411E+00 -1.91049882E+01  0.00000000E+00  9.55249411E+00
  9.55249411E+00 -1.91049882E+01  0.00000000E+00  9.55249411E+00  9.55249411E+00
 -1.91049882E+01  0.00000000E+00  9.55249411E+00  9.55249411E+00 -1.91049882E+01
  0.00000000E+00  9.55249411E+00  9.55249411E+00 -1.91049882E+01  0.00000000E+00
  9.55249411E+00  9.55249411E+00 -1.91049882E+01  0.00000000E+00  9.55249411E+00
  9.55249411E+00 -1.91049882E+01  0.00000000E+00  9.55249411E+00  9.55249411E+00
 -1.91049882E+01  0.00000000E+00  9.55249411E+00  9.55249411E+00 -1.91049882E+01
  0.00000000E+00  9.55249411E+00  9.55249411E+00 -1.91049882E+01  0.00000000E+00
  9.55249411E+00  9.55249411E+00 -1.91049882E+01  0.00000000E+00  9.55249411E+00
  9.55249411E+00 -1.91049882E+01  0.00000000E+00  9.55249411E+00  9.55249411E+00
 -1.91049882E+01  0.00000000E+00  9.55249411E+00  9.55249411E+00 -1.91049882E+01
  0.00000000E+00  9.55249411E+00  9.55249411E+00 -1.91049882E+01  0.00000000E+00
  9.55249411E+00  9.55249411E+00 -1.91049882E+01  0.00000000E+00  9.55249411E+00
  9.55249411E+00 -1.91049882E+01  0.00000000E+00  9.55249411E+00  9.55249411E+00
 -1.91049882E+01  0.00000000E+00  9.55249411E+00  9.55249411E+00 -1.91049882E+01
  0.00000000E+00  9.55249411E+00  9.55249411E+00 -1.91049882E+01  0.00000000E+00
  9.55249411E+00  9.55249411E+00 -1.91049882E+01  0.00000000E+00  9.55249411E+00
  9.55249411E+00 -1.91049882E+01  0.00000000E+00  9.55249411E+00  9.55249411E+00
 -1.91049882E+01  0.00000000E+00  9.55249411E+00  9.55249411E+00 -1.91049882E+01
  0.00000000E+00  9.55249411E+00  9.55249411E+00 -1.91049882E+01  0.00000000E+00
  9.55249411E+00  9.55249411E+00 -1.91049882E+01  0.00000000E+00  9.55249411E+00
  9.55249411E+00 -1.91049882E+01  0.00000000E+00  9.55249411E+00  9.55249411E+00
 -1.91049882E+01  0.00000000E+00  9.55249411E+00  9.55249411E+00 -1.91049882E+01
  0.00000000E+00  9.55249411E+00  9.55249411E+00 -1.91049882E+01  0.00000000E+00
  9.55249411E+00  9.55249411E+00 -1.91049882E+01  0.00000000E+00  9.55249411E+00
  9.55249411E+00 -1.91049882E+01  0.00000000E+00  9.55249411E+00  9.55249411E+00
 -1.91049882E+01  0.00000000E+00  9.55249411E+00  9.55249411E+00 -1.91049882E+01
  0.00000000E+00  9.55249411E+00  9.55249411E+00 -1.91049882E+01  0.00000000E+00
  9.55249411E+00  9.55249411E+00 -1.91049882E+01  0.00000000E+00  9.55249411E+00
  9.55249411E+00 -1.91049882E+01  0.00000000E+00  9.55249411E+00  9.55249411E+00
 -1.91049882E+01  0.00000000E+00  9.55249411E+00  9.55249411E+00 -1.91049882E+01
  0.00000000E+00  9.55249411E+00  9.55249411E+00 -1.91049882E+01  0.00000000E+00
  9.55249411E+00  9.55249411E+00 -1.91049882E+01  0.00000000E+00  9.55249411E+00
  9.55249411E+00 -1.91049882E+01  0.00000000E+00  9.55249411E+00  9.55249411E+00
 -1.91049882E+01  0.00000000E+00  9.55249411E+00  9.55249411E+00 -1.91049882E+01
  0.00000000E+00  9.55249411E+00  9.55249411E+00 -1.91049882E+01  0.00000000E+00
  9.55249411E+00  9.55249411E+00 -1.91049882E+01  0.00000000E+00  9.55249411E+00
  9.55249411E+00 -1.91049882E+01  0.00000000E+00  9.55249411E+00  9.55249411E+00
 -1.91049882E+01  0.00000000E+00  9.55249411E+00  9.55249411E+00 -1.91049882E+01
  0.00000000E+00  9.55249411E+00  9.55249411E+00 -1.91049882E+01  0.00000000E+00
  9.55249411E+00  9.55249411E+00 -1.91049882E+01  0.00000000E+00  9.55249411E+00
  9.55249411E+00 -1.91049882E+01  0.00000000E+00  9.55249411E+00  9.55249411E+00
 -1.91049882E+01  0.00000000E+00  9.55249411E+00  9.55249411E+00 -1.91049882E+01
  0.00000000E+00  9.55249411E+00  9.55249411E+00 -1.91049882E+01  0.00000000E+00
  9.55249411E+00  9.55249411E+00 -1.91049882E+01  0.00000000E+00  9.55249411E+00
  9.55249411E+00 -1.91049882E+01  0.00000000E+00  9.55249411E+00  9.55249411E+00
 -1.91049882E+01  0.00000000E+00  9.55249411E+00  9.55249411E+00 -1.91049882E+01
  0.00000000E+00  9.55249411E+00  9.55249411E+00 -1.91049882E+01  0.00000000E+00
  9.55249411E+00  9.55249411E+00 -1.91049882E+01  0.00000000E+00  9.55249411E+00
  9.55249411E+00 -1.91049882E+01  0.00000000E+00  9.55249411E+00  9.55249411E+00
 -1.91049882E+01  0.00000000E+00  9.55249411E+00  9.55249411E+00 -1.91049882E+01
  0.00000000E+00  9.55249411E+00  9.55249411E+00 -1.91049882E+01  0.00000000E+00
  9.55249411E+00  9.55249411E+00 -1.91049882E+01  0.00000000E+00  9.55249411E+00
  9.55249411E+00 -1.91049882E+01  0.00000000E+00  9.55249411E+00  9.55249411E+00
 -1.91049882E+01  0.00000000E+00  9.55249411E+00  9.55249411E+00 -1.91049882E+01
  0.00000000E+00  9.55249411E+00  9.55249411E+00 -1.91049882E+01  0.00000000E+00
  9.55249411E+00  9.55249411E+00 -1.91049882E+01  0.00000000E+00  9.55249411E+00
  9.55249411E+00 -1.91049882E+01  0.00000000E+00  9.55249411E+00  9.55249411E+00
 -1.91049882E+01  0.00000000E+00  9.55249411E+00  9.55249411E+00 -1.91049882E+01
  0.00000000E+00  9.55249411E+00  9.55249411E+00 -1.91049882E+01  0.00000000E+00
  9.55249411E+00  9.55249411E+00 -1.91049882E+01  0.00000000E+00  9.55249411E+00
  9.55249411E+00 -1.91049882E+01  0.00000000E+00  9.55249411E+00  9.55249411E+00
 -1.91049882E+01  0.00000000E+00  9.55249411E+00  9.55249411E+00 -1.91049882E+01
  0.00000000E+00  9.55249411E+00  9.55249411E+00 -1.91049882E+01  0.00000000E+00
  9.55249411E+00  9.55249411E+00 -1.91049882E+01  0.00000000E+00  9.55249411E+00
  9.55249411E+00 -1.91049882E+01  0.00000000E+00  9.55249411E+00  9.55249411E+00
 -1.91049882E+01  0.00000000E+00  9.55249411E+00  9.55249411E+00 -1.91049882E+01
  0.00000000E+00  9.55249411E+00  9.55249411E+00 -1.91049882E+01  0.00000000E+00
  9.55249411E+00  9.55249411E+00 -1.91049882E+01  0.00000000E+00  9.55249411E+00
  9.55249411E+00 -1.91049882E+01  0.00000000E+00  9.55249411E+00  9.55249411E+00
 -1.91049882E+01  0.00000000E+00  9.55249411E+00  9.55249411E+00 -1.91049882E+01
  0.00000000E+00  9.55249411E+00  9.55249411E+00 -1.91049882E+01  0.00000000E+00
  9.55249411E+00  9.55249411E+00 -1.91049882E+01  0.00000000E+00  9.55249411E+00
  9.55249411E+00 -1.91049882E+01  0.00000000E+00  9.55249411E+00  9.55249411E+00
 -1.91049882E+01  0.00000000E+00  9.55249411E+00  9.55249411E+00 -1.91049882E+01
  0.00000000E+00  9.55249411E+00  9.55249411E+00 -1.91049882E+01  0.00000000E+00
  9.55249411E+00  9.55249411E+00 -1.91049882E+01  0.00000000E+00  9.55249411E+00
  9.55249411E+00 -1.91049882E+01  0.00000000E+00  9.55249411E+00  9.55249411E+00
 -1.91049882E+01  0.00000000E+00  9.55249411E+00  9.55249411E+00 -1.91049882E+01
  0.00000000E+00  9.55249411E+00  9.55249411E+00 -1.91049882E+01  0.00000000E+00
  9.55249411E+00  9.55249411E+00 -1.91049882E+01  0.00000000E+00  9.55249411E+00
  9.55249411E+00 -1.91049882E+01  0.00000000E+00  9.55249411E+00  9.55249411E+00
 -1.91049882E+01  0.00000000E+00  9.55249411E+00  9.55249411E+00 -1.91049882E+01
  0.00000000E+00  9.55249411E+00  9.55249411E+00 -1.91049882E+01  0.00000000E+00
  9.55249411E+00  9.55249411E+00 -1.91049882E+01  0.00000000E+00  9.55249411E+00
  9.55249411E+00 -1.91049882E+01  0.00000000E+00  9.55249411E+00  9.55249411E+00
 -1.91049882E+01  0.00000000E+00  9.55249411E+00  9.55249411E+00 -1.91049882E+01
  0.00000000E+00  9.55249411E+00  9.55249411E+00 -1.91049882E+01  0.00000000E+00
  9.55249411E+00  9.55249411E+00 -1.91049882E+01  0.00000000E+00  9.55249411E+00
  9.55249411E+00 -1.91049882E+01  0.00000000E+00  9.55249411E+00  9.55249411E+00
 -1.91049882E+01  0.00000000E+00  9.55249411E+00  9.55249411E+00 -1.91049882E+01
  0.00000000E+00  9.55249411E+00  9.55249411E+00 -1.91049882E+01  0.00000000E+00
  9.55249411E+00  9.55249411E+00 -1.91049882E+01  0.00000000E+00  9.55249411E+00
  9.55249411E+00 -1.91049882E+01  0.00000000E+00  9.55249411E+00  9.55249411E+00
 -1.91049882E+01  0.00000000E+00  9.55249411E+00  9.55249411E+00 -1.91049882E+01
  0.00000000E+00  9.55249411E+00  9.55249411E+00 -1.91049882E+01  0.00000000E+00
  9.55249411E+00  9.55249411E+00 -1.91049882E+01  0.00000000E+00  9.55249411E+00
  9.55249411E+00 -1.91049882E+01  0.00000000E+00  9.55249411E+00  9.55249411E+00
 -1.91049882E+01  0.00000000E+00  9.55249411E+00  9.55249411E+00 -1.91049882E+01
  0.00000000E+00  9.55249411E+00  9.55249411E+00 -1.91049882E+01  0.00000000E+00
  9.55249411E+00  9.55249411E+00 -1.91049882E+01  0.00000000E+00  9.55249411E+00
  9.55249411E+00 -1.91049882E+01  0.00000000E+00  9.55249411E+00  9.55249411E+00
 -1.91049882E+01  0.00000000E+00  9.55249411E+00  9.55249411E+00 -1.91049882E+01
  0.00000000E+00  9.55249411E+00  9.55249411E+00 -1.91049882E+01  0.00000000E+00
  9.55249411E+00  9.55249411E+00 -1.91049882E+01  0.00000000E+00  9.55249411E+00
  9.55249411E+00 -1.91049882E+01  0.00000000E+00  9.55249411E+00  9.55249411E+00
 -1.91049882E+01  0.00000000E+00  9.55249411E+00  9.55249411E+00 -1.91049882E+01
  0.00000000E+00  9.55249411E+00  9.55249411E+00 -1.91049882E+01  0.00000000E+00
  9.55249411E+00  9.55249411E+00 -1.91049882E+01  0.00000000E+00  9.55249411E+00
  9.55249411E+00 -1.91049882E+01  0.00000000E+00  9.55249411E+00  9.55249411E+00
 -1.91049882E+01  0.00000000E+00  9.55249411E+00  9.55249411E+00 -1.91049882E+01
  0.00000000E+00  9.55249411E+00  9.55249411E+00 -1.91049882E+01  0.00000000E+00
  9.55249411E+00  9.55249411E+00 -1.91049882E+01  0.00000000E+00  9.55249411E+00
  9.55249411E+00 -1.91049882E+01  0.00000000E+00  9.55249411E+00  9.55249411E+00
 -1.91049882E+01  0.00000000E+00  9.55249411E+00  9.55249411E+00 -1.91049882E+01
  0.00000000E+00  9.55249411E+00  9.55249411E+00 -1.91049882E+01  0.00000000E+00
  9.55249411E+00  9.55249411E+00 -1.91049882E+01  0.00000000E+00  9.55249411E+00
  9.55249411E+00 -1.91049882E+01  0.00000000E+00  9.55249411E+00  9.55249411E+00
 -1.91049882E+01  0.00000000E+00  9.55249411E+00  9.55249411E+00 -1.91049882E+01
  0.00000000E+00  9.55249411E+00  9.55249411E+00 -1.91049882E+01  0.00000000E+00
  9.55249411E+00  9.55249411E+00 -1.91049882E+01  0.00000000E+00  9.55249411E+00
  9.55249411E+00 -1.91049882E+01  0.00000000E+00  9.55249411E+00  9.55249411E+00
 -1.91049882E+01  0.00000000E+00  9.55249411E+00  9.55249411E+00 -1.91049882E+01
  0.00000000E+00  9.55249411E+00  9.55249411E+00 -1.91049882E+01  0.00000000E+00
  9.55249411E+00  9.55249411E+00 -1.91049882E+01  0.00000000E+00  9.55249411E+00
  9.55249411E+00 -1.91049882E+01  0.00000000E+00  9.55249411E+00  9.55249411E+00
 -1.91049882E+01  0.00000000E+00  9.55249411E+00  9.55249411E+00 -1.91049882E+01
  0.00000000E+00  9.55249411E+00  9.55249411E+00 -1.91049882E+01  0.00000000E+00
  9.55249411E+00  9.55249411E+00 -1.91049882E+01  0.00000000E+00  9.55249411E+00
  9.55249411E+00 -1.91049882E+01  0.00000000E+00  9.55249411E+00  9.55249411E+00
 -1.91049882E+01  0.00000000E+00  9.55249411E+00  9.55249411E+00 -1.91049882E+01
  0.00000000E+00  9.55249411E+00  9.55249411E+00 -1.91049882E+01  0.00000000E+00
  9.55249411E+00  9.55249411E+00 -1.91049882E+01  0.00000000E+00  9.55249411E+00
  9.55249411E+00 -1.91049882E+01  0.00000000E+00  9.55249411E+00  9.55249411E+00
 -1.91049882E+01  0.00000000E+00  9.55249411E+00  9.55249411E+00 -1.91049882E+01
  0.00000000E+00  9.55249411E+00  9.55249411E+00 -1.91049882E+01  0.00000000E+00
  9.55249411E+00  9.55249411E+00 -1.91049882E+01  0.00000000E+00  9.55249411E+00
  9.55249411E+00 -1.91049882E+01  0.00000000E+00  9.55249411E+00  9.55249411E+00
 -1.91049882E+01  0.00000000E+00  9.55249411E+00  9.55249411E+00 -1.91049882E+01
  0.00000000E+00  9.55249411E+00  9.55249411E+00 -1.91049882E+01  0.00000000E+00
  9.55249411E+00  9.55249411E+00 -1.91049882E+01  0.00000000E+00  9.55249411E+00
  9.55249411E+00 -1.91049882E+01  0.00000000E+00  9.55249411E+00  9.55249411E+00
 -1.91049882E+01  0.00000000E+00  9.55249411E+00  9.55249411E+00 -1.91049882E+01
  0.00000000E+00  9.55249411E+00  9.55249411E+00 -1.91049882E+01  0.00000000E+00
  9.55249411E+00  9.55249411E+00 -1.91049882E+01  0.00000000E+00  9.55249411E+00
  9.55249411E+00 -1.91049882E+01  0.00000000E+00  9.55249411E+00  9.55249411E+00
 -1.91049882E+01  0.00000000E+00  9.55249411E+00  9.55249411E+00 -1.91049882E+01
  0.00000000E+00  9.55249411E+00  9.55249411E+00 -1.91049882E+01  0.00000000E+00
  9.55249411E+00  9.55249411E+00 -1.91049882E+01  0.00000000E+00  9.55249411E+00
  9.55249411E+00 -1.91049882E+01  0.00000000E+00  9.55249411E+00  9.55249411E+00
 -1.91049882E+01  0.00000000E+00  9.55249411E+00  9.55249411E+00 -1.91049882E+01
  0.00000000E+00  9.55249411E+00  9.55249411E+00 -1.91049882E+01  0.00000000E+00
  9.55249411E+00  9.55249411E+00 -1.91049882E+01  0.00000000E+00  9.55249411E+00
  9.55249411E+00 -1.91049882E+01  0.00000000E+00  9.55249411E+00  9.55249411E+00
 -1.91049882E+01  0.00000000E+00  9.55249411E+00  9.55249411E+00 -1.91049882E+01
  0.00000000E+00  9.55249411E+00  9.55249411E+00 -1.91049882E+01  0.00000000E+00
  9.55249411E+00  9.55249411E+00 -1.91049882E+01  0.00000000E+00  9.55249411E+00
  9.55249411E+00 -1.91049882E+01  0.00000000E+00  9.55249411E+00  9.55249411E+00
 -1.91049882E+01  0.00000000E+00  9.55249411E+00  9.55249411E+00 -1.91049882E+01
  0.00000000E+00  9.55249411E+00  9.55249411E+00 -1.91049882E+01  0.00000000E+00
  9.55249411E+00  9.55249411E+00 -1.91049882E+01  0.00000000E+00  9.55249411E+00
  9.55249411E+00 -1.91049882E+01  0.00000000E+00  9.55249411E+00  9.55249411E+00
 -1.91049882E+01  0.00000000E+00  9.55249411E+00  9.55249411E+00 -1.91049882E+01
  0.00000000E+00  9.55249411E+00  9.55249411E+00 -1.91049882E+01  0.00000000E+00
  9.55249411E+00  9.55249411E+00 -1.91049882E+01  0.00000000E+00  9.55249411E+00
  9.55249411E+00 -1.91049882E+01  0.00000000E+00  9.55249411E+00  9.55249411E+00
 -1.91049882E+01  0.00000000E+00  9.55249411E+00  9.55249411E+00 -1.91049882E+01
  0.00000000E+00  9.55249411E+00  9.55249411E+00 -1.91049882E+01  0.00000000E+00
  9.55249411E+00  9.55249411E+00 -1.91049882E+01  0.00000000E+00  9.55249411E+00
  9.55249411E+00 -1.91049882E+01  0.00000000E+00  9.55249411E+00  9.55249411E+00
 -1.91049882E+01  0.00000000E+00  9.55249411E+00  9.55249411E+00 -1.91049882E+01
  0.00000000E+00  9.55249411E+00  9.55249411E+00 -1.91049882E+01  0.00000000E+00
  9.55249411E+00  9.55249411E+00 -1.91049882E+01  0.00000000E+00  9.55249411E+00
  9.55249411E+00 -1.91049882E+01  0.00000000E+00  9.55249411E+00  9.55249411E+00
 -1.91049882E+01  0.00000000E+00  9.55249411E+00  9.55249411E+00 -1.91049882E+01
  0.00000000E+00  9.55249411E+00  9.55249411E+00 -1.91049882E+01  0.00000000E+00
  9.55249411E+00  9.55249411E+00 -1.91049882E+01  0.00000000E+00  9.55249411E+00
  9.55249411E+00 -1.91049882E+01  0.00000000E+00  9.55249411E+00  9.55249411E+00
 -1.91049882E+01  0.00000000E+00  9.55249411E+00  9.55249411E+00 -1.91049882E+01
  0.00000000E+00  9.55249411E+00  9.55249411E+00 -1.91049882E+01  0.00000000E+00
  9.55249411E+00  9.55249411E+00 -1.91049882E+01  0.00000000E+00  9.55249411E+00
  9.55249411E+00 -1.91049882E+01  0.00000000E+00  9.55249411E+00  9.55249411E+00
 -1.91049882E+01  0.00000000E+00  9.55249411E+00  9.55249411E+00 -1.91049882E+01
  0.00000000E+00  9.55249411E+00  9.55249411E+00 -1.91049882E+01  0.00000000E+00
  9.55249411E+00  9.55249411E+00 -1.91049882E+01  0.00000000E+00  9.55249411E+00
  9.55249411E+00 -1.91049882E+01  0.00000000E+00  9.55249411E+00  9.55249411E+00
 -1.91049882E+01  0.00000000E+00  9.55249411E+00  9.55249411E+00 -1.91049882E+01
  0.00000000E+00  9.55249411E+00  9.55249411E+00 -1.91049882E+01  0.00000000E+00
  9.55249411E+00  9.55249411E+00 -1.91049882E+01  0.00000000E+00  9.55249411E+00
  9.55249411E+00 -1.91049882E+01  0.00000000E+00  9.55249411E+00  9.55249411E+00
 -1.91049882E+01  0.00000000E+00  9.55249411E+00  9.55249411E+00 -1.91049882E+01
  0.00000000E+00  9.55249411E+00  9.55249411E+00 -1.91049882E+01  0.00000000E+00
  9.55249411E+00  9.55249411E+00 -1.91049882E+01  0.00000000E+00  9.55249411E+00
  9.55249411E+00 -1.91049882E+01  0.00000000E+00  9.55249411E+00  9.55249411E+00
 -1.91049882E+01  0.00000000E+00  9.55249411E+00  9.55249411E+00 -1.91049882E+01
  0.00000000E+00  9.55249411E+00  9.55249411E+00 -1.91049882E+01  0.00000000E+00
  9.55249411E+00  9.55249411E+00 -1.91049882E+01  0.00000000E+00  9.55249411E+00
  9.55249411E+00 -1.91049882E+01  0.00000000E+00  9.55249411E+00  9.55249411E+00
 -1.91049882E+01  0.00000000E+00  9.55249411E+00  9.55249411E+00 -1.91049882E+01
  0.00000000E+00  9.55249411E+00  9.55249411E+00 -1.91049882E+01  0.00000000E+00
  9.55249411E+00  9.55249411E+00 -1.91049882E+01  0.00000000E+00  9.55249411E+00
  9.55249411E+00 -1.91049882E+01  0.00000000E+00  9.55249411E+00  9.55249411E+00
 -1.91049882E+01  0.00000000E+00  9.55249411E+00  9.55249411E+00 -1.91049882E+01
  0.00000000E+00  9.55249411E+00  9.55249411E+00 -1.91049882E+01  0.00000000E+00
  9.55249411E+00  9.55249411E+00 -1.91049882E+01  0.00000000E+00  9.55249411E+00
  9.55249411E+00 -1.91049882E+01  0.00000000E+00  9.55249411E+00  9.55249411E+00
 -1.91049882E+01  0.00000000E+00  9.55249411E+00  9.55249411E+00 -1.91049882E+01
  0.00000000E+00  9.55249411E+00  9.55249411E+00 -1.91049882E+01  0.00000000E+00
  9.55249411E+00  9.55249411E+00 -1.91049882E+01  0.00000000E+00  9.55249411E+00
  9.55249411E+00 -1.91049882E+01  0.00000000E+00  9.55249411E+00  9.55249411E+00
 -1.91049882E+01  0.00000000E+00  9.55249411E+00  9.55249411E+00 -1.91049882E+01
  0.00000000E+00  9.55249411E+00  9.55249411E+00 -1.91049882E+01  0.00000000E+00
  9.55249411E+00  9.55249411E+00 -1.91049882E+01  0.00000000E+00  9.55249411E+00
  9.55249411E+00 -1.91049882E+01  0.00000000E+00  9.55249411E+00  9.55249411E+00
 -1.91049882E+01  0.00000000E+00  9.55249411E+00  9.55249411E+00 -1.91049882E+01
  0.00000000E+00  9.55249411E+00  9.55249411E+00 -1.91049882E+01  0.00000000E+00
  9.55249411E+00  9.55249411E+00 -1.91049882E+01  0.00000000E+00  9.55249411E+00
  9.55249411E+00 -1.91049882E+01  0.00000000E+00  9.55249411E+00  9.55249411E+00
 -1.91049882E+01  0.00000000E+00  9.55249411E+00  9.55249411E+00 -1.91049882E+01
  0.00000000E+00  9.55249411E+00  9.55249411E+00 -1.91049882E+01  0.00000000E+00
  9.55249411E+00  9.55249411E+00 -1.91049882E+01  0.00000000E+00  9.55249411E+00
  9.55249411E+00 -1.91049882E+01  0.00000000E+00  9.55249411E+00  9.55249411E+00
 -1.91049882E+01  0.00000000E+00  9.55249411E+00  9.55249411E+00 -1.91049882E+01
  0.00000000E+00  9.55249411E+00  9.55249411E+00 -1.91049882E+01  0.00000000E+00
  9.55249411E+00  9.55249411E+00 -1.91049882E+01  0.00000000E+00  9.55249411E+00
  9.55249411E+00 -1.91049882E+01  0.00000000E+00  9.55249411E+00  9.55249411E+00
 -1.91049882E+01  0.00000000E+00  9.55249411E+00  9.55249411E+00 -1.91049882E+01
  0.00000000E+00  9.55249411E+00  9.55249411E+00 -1.91049882E+01  0.00000000E+00
  9.55249411E+00  9.55249411E+00 -1.91049882E+01  0.00000000E+00  9.55249411E+00
  9.55249411E+00 -1.91049882E+01  0.00000000E+00  9.55249411E+00  9.55249411E+00
 -1.91049882E+01  0.00000000E+00  9.55249411E+00  9.55249411E+00 -1.91049882E+01
  0.00000000E+00  9.55249411E+00  9.55249411E+00 -1.91049882E+01  0.00000000E+00
  9.55249411E+00  9.55249411E+00 -1.91049882E+01  0.00000000E+00  9.55249411E+00
  9.55249411E+00 -1.91049882E+01  0.00000000E+00  9.55249411E+00  9.55249411E+00
 -1.91049882E+01  0.00000000E+00  9.55249411E+00  9.55249411E+00 -1.91049882E+01
  0.00000000E+00  9.55249411E+00  9.55249411E+00 -1.91049882E+01  0.00000000E+00
  9.55249411E+00  9.55249411E+00 -1.91049882E+01  0.00000000E+00  9.55249411E+00
  9.55249411E+00 -1.91049882E+01  0.00000000E+00  9.55249411E+00  9.55249411E+00
 -1.91049882E+01  0.00000000E+00  9.55249411E+00  9.55249411E+00 -1.91049882E+01
  0.00000000E+00  9.55249411E+00  9.55249411E+00 -1.91049882E+01  0.00000000E+00
  9.55249411E+00  9.55249411E+00 -1.91049882E+01  0.00000000E+00  9.55249411E+00
  9.55249411E+00 -1.91049882E+01  0.00000000E+00  9.55249411E+00  9.55249411E+00
 -1.91049882E+01  0.00000000E+00  9.55249411E+00  9.55249411E+00 -1.91049882E+01
  0.00000000E+00  9.55249411E+00  9.55249411E+00 -1.91049882E+01  0.00000000E+00
  9.55249411E+00  9.55249411E+00 -1.91049882E+01  0.00000000E+00  9.55249411E+00
  9.55249411E+00 -1.91049882E+01  0.00000000E+00  9.55249411E+00  9.55249411E+00
 -1.91049882E+01  0.00000000E+00  9.55249411E+00  9.55249411E+00 -1.91049882E+01
  0.00000000E+00  9.55249411E+00  9.55249411E+00 -1.91049882E+01  0.00000000E+00
  9.55249411E+00  9.55249411E+00 -1.91049882E+01  0.00000000E+00  9.55249411E+00
  9.55249411E+00 -1.91049882E+01  0.00000000E+00  9.55249411E+00  9.55249411E+00
 -1.91049882E+01  0.00000000E+00  9.55249411E+00  9.55249411E+00 -1.91049882E+01
  0.00000000E+00  9.55249411E+00  9.55249411E+00 -1.91049882E+01  0.00000000E+00
  9.55249411E+00  9.55249411E+00 -1.91049882E+01  0.00000000E+00  9.55249411E+00
  9.55249411E+00 -1.91049882E+01  0.00000000E+00  9.55249411E+00  9.55249411E+00
 -1.91049882E+01  0.00000000E+00  9.55249411E+00  9.55249411E+00 -1.91049882E+01
  0.00000000E+00  9.55249411E+00  9.55249411E+00 -1.91049882E+01  0.00000000E+00
  9.55249411E+00  9.55249411E+00 -1.91049882E+01  0.00000000E+00  9.55249411E+00
  9.55249411E+00 -1.91049882E+01  0.00000000E+00  9.55249411E+00  9.55249411E+00
 -1.91049882E+01  0.00000000E+00  9.55249411E+00  9.55249411E+00 -1.91049882E+01
  0.00000000E+00  9.55249411E+00  9.55249411E+00 -1.91049882E+01  0.00000000E+00
  9.55249411E+00  9.55249411E+00 -1.91049882E+01  0.00000000E+00  9.55249411E+00
  9.55249411E+00 -1.91049882E+01  0.00000000E+00  9.55249411E+00  9.55249411E+00
 -1.91049882E+01  0.00000000E+00  9.55249411E+00  9.55249411E+00 -1.91049882E+01
  0.00000000E+00  9.55249411E+00  9.55249411E+00 -1.91049882E+01  0.00000000E+00
  9.55249411E+00  9.55249411E+00 -1.91049882E+01  0.00000000E+00  9.55249411E+00
  9.55249411E+00 -1.91049882E+01  0.00000000E+00  9.55249411E+00  9.55249411E+00
 -1.91049882E+01  0.00000000E+00  9.55249411E+00  9.55249411E+00 -1.91049882E+01
  0.00000000E+00  9.55249411E+00  9.55249411E+00 -1.91049882E+01  0.00000000E+00
  9.55249411E+00  9.55249411E+00 -1.91049882E+01  0.00000000E+00  9.55249411E+00
  9.55249411E+00 -1.91049882E+01  0.00000000E+00  9.55249411E+00  9.55249411E+00
 -1.91049882E+01  0.00000000E+00  9.55249411E+00  9.55249411E+00 -1.91049882E+01
  0.00000000E+00  9.55249411E+00  9.55249411E+00 -1.91049882E+01  0.00000000E+00
  9.55249411E+00  9.55249411E+00 -1.91049882E+01  0.00000000E+00  9.55249411E+00
  9.55249411E+00 -1.91049882E+01  0.00000000E+00  9.55249411E+00  9.55249411E+00
 -1.91049882E+01  0.00000000E+00  9.55249411E+00  9.55249411E+00 -1.91049882E+01
  0.00000000E+00  9.55249411E+00  9.55249411E+00 -1.91049882E+01  0.00000000E+00
  9.55249411E+00  9.55249411E+00 -1.91049882E+01  0.00000000E+00  9.55249411E+00
  9.55249411E+00 -1.91049882E+01  0.00000000E+00  9.55249411E+00  9.55249411E+00
 -1.91049882E+01  0.00000000E+00  9.55249411E+00  9.55249411E+00 -1.91049882E+01
  0.00000000E+00  9.55249411E+00  9.55249411E+00 -1.91049882E+01  0.00000000E+00
  9.55249411E+00  9.55249411E+00 -1.91049882E+01  0.00000000E+00  9.55249411E+00
  9.55249411E+00 -1.91049882E+01  0.00000000E+00  9.55249411E+00  9.55249411E+00
 -1.91049882E+01  0.00000000E+00  9.55249411E+00  9.55249411E+00 -1.91049882E+01
  0.00000000E+00  9.55249411E+00  9.55249411E+00 -1.91049882E+01  0.00000000E+00
  9.55249411E+00  9.55249411E+00 -1.91049882E+01  0.00000000E+00  9.55249411E+00
  9.55249411E+00 -1.91049882E+01  0.00000000E+00  9.55249411E+00  9.55249411E+00
 -1.91049882E+01  0.00000000E+00  9.55249411E+00  9.55249411E+00 -1.91049882E+01
  0.00000000E+00  9.55249411E+00  9.55249411E+00 -1.91049882E+01  0.00000000E+00
  9.55249411E+00  9.55249411E+00 -1.91049882E+01  0.00000000E+00  9.55249411E+00
  9.55249411E+00 -1.91049882E+01  0.00000000E+00  9.55249411E+00  9.55249411E+00
 -1.91049882E+01  0.00000000E+00  9.55249411E+00  9.55249411E+00 -1.91049882E+01
  0.00000000E+00  9.55249411E+00  9.55249411E+00 -1.91049882E+01  0.00000000E+00
  9.55249411E+00  9.55249411E+00 -1.91049882E+01  0.00000000E+00  9.55249411E+00
  9.55249411E+00 -1.91049882E+01  0.00000000E+00  9.55249411E+00  9.55249411E+00
 -1.91049882E+01  0.00000000E+00  9.55249411E+00  9.55249411E+00 -1.91049882E+01
  0.00000000E+00  9.55249411E+00  9.55249411E+00 -1.91049882E+01  0.00000000E+00
  9.55249411E+00  9.55249411E+00 -1.91049882E+01  0.00000000E+00  9.55249411E+00
  9.55249411E+00 -1.91049882E+01  0.00000000E+00  9.55249411E+00  9.55249411E+00
 -1.91049882E+01  0.00000000E+00  9.55249411E+00  9.55249411E+00 -1.91049882E+01
  0.00000000E+00  9.55249411E+00  9.55249411E+00 -1.91049882E+01  0.00000000E+00
  9.55249411E+00  9.55249411E+00 -1.91049882E+01  0.00000000E+00  9.55249411E+00
  9.55249411E+00 -1.91049882E+01  0.00000000E+00  9.55249411E+00  9.55249411E+00
 -1.91049882E+01  0.00000000E+00  9.55249411E+00  9.55249411E+00 -1.91049882E+01
  0.00000000E+00  9.55249411E+00  9.55249411E+00 -1.91049882E+01  0.00000000E+00
  9.55249411E+00  9.55249411E+00 -1.91049882E+01  0.00000000E+00  9.55249411E+00
  9.55249411E+00 -1.91049882E+01  0.00000000E+00  9.55249411E+00  9.55249411E+00
 -1.91049882E+01  0.00000000E+00  9.55249411E+00  9.55249411E+00 -1.91049882E+01
  0.00000000E+00  9.55249411E+00  9.55249411E+00 -1.91049882E+01  0.00000000E+00
  9.55249411E+00  9.55249411E+00 -1.91049882E+01  0.00000000E+00  9.55249411E+00
  9.55249411E+00 -1.91049882E+01  0.00000000E+00  9.55249411E+00  9.55249411E+00
 -1.91049882E+01  0.00000000E+00  9.55249411E+00  9.55249411E+00 -1.91049882E+01
  0.00000000E+00  9.55249411E+00  9.55249411E+00 -1.91049882E+01  0.00000000E+00
  9.55249411E+00  9.55249411E+00 -1.91049882E+01  0.00000000E+00  9.55249411E+00
  9.55249411E+00 -1.91049882E+01  0.00000000E+00  9.55249411E+00  9.55249411E+00
 -1.91049882E+01  0.00000000E+00  9.55249411E+00  9.55249411E+00 -1.91049882E+01
  0.00000000E+00  9.55249411E+00  9.55249411E+00 -1.91049882E+01  0.00000000E+00
  9.55249411E+00  9.55249411E+00 -1.91049882E+01  0.00000000E+00  9.55249411E+00
  9.55249411E+00 -1.91049882E+01  0.00000000E+00  9.55249411E+00  9.55249411E+00
 -1.91049882E+01  0.00000000E+00  9.55249411E+00  9.55249411E+00 -1.91049882E+01
  0.00000000E+00  9.55249411E+00  9.55249411E+00 -1.91049882E+01  0.00000000E+00
  9.55249411E+00  9.55249411E+00 -1.91049882E+01  0.00000000E+00  9.55249411E+00
  9.55249411E+00 -1.91049882E+01  0.00000000E+00  9.55249411E+00  9.55249411E+00
 -1.91049882E+01  0.00000000E+00  9.55249411E+00  9.55249411E+00 -1.91049882E+01
  0.00000000E+00  9.55249411E+00  9.55249411E+00 -1.91049882E+01  0.00000000E+00
  9.55249411E+00  9.55249411E+00 -1.91049882E+01  0.00000000E+00  9.55249411E+00
  9.55249411E+00 -1.91049882E+01  0.00000000E+00  9.55249411E+00  9.55249411E+00
 -1.91049882E+01  0.00000000E+00  9.55249411E+00  9.55249411E+00 -1.91049882E+01
  0.00000000E+00  9.55249411E+00  9.55249411E+00 -1.91049882E+01  0.00000000E+00
  9.55249411E+00  9.55249411E+00 -1.91049882E+01  0.00000000E+00  9.55249411E+00
  9.55249411E+00 -1.91049882E+01  0.00000000E+00  9.55249411E+00  9.55249411E+00
 -1.91049882E+01  0.00000000E+00  9.55249411E+00  9.55249411E+00 -1.91049882E+01
  0.00000000E+00  9.55249411E+00  9.55249411E+00 -1.91049882E+01  0.00000000E+00
  9.55249411E+00  9.55249411E+00 -1.91049882E+01  0.00000000E+00  9.55249411E+00
  9.55249411E+00 -1.91049882E+01  0.00000000E+00  9.55249411E+00  9.55249411E+00
 -1.91049882E+01  0.00000000E+00  9.55249411E+00  9.55249411E+00 -1.91049882E+01
  0.00000000E+00  9.55249411E+00  9.55249411E+00 -1.91049882E+01  0.00000000E+00
  9.55249411E+00  9.55249411E+00 -1.91049882E+01  0.00000000E+00  9.55249411E+00
  9.55249411E+00 -1.91049882E+01  0.00000000E+00  9.55249411E+00  9.55249411E+00
 -1.91049882E+01  0.00000000E+00  9.55249411E+00  9.55249411E+00 -1.91049882E+01
  0.00000000E+00  9.55249411E+00  9.55249411E+00 -1.91049882E+01  0.00000000E+00
  9.55249411E+00  9.55249411E+00 -1.91049882E+01  0.00000000E+00  9.55249411E+00
  9.55249411E+00 -1.91049882E+01  0.00000000E+00  9.55249411E+00  9.55249411E+00
 -1.91049882E+01  0.00000000E+00  9.55249411E+00  9.55249411E+00 -1.91049882E+01
  0.00000000E+00  9.55249411E+00  9.55249411E+00 -1.91049882E+01  0.00000000E+00
  9.55249411E+00  9.55249411E+00 -1.91049882E+01  0.00000000E+00  9.55249411E+00
  9.55249411E+00 -1.91049882E+01  0.00000000E+00  9.55249411E+00  9.55249411E+00
 -1.91049882E+01  0.00000000E+00  9.55249411E+00  9.55249411E+00 -1.91049882E+01
  0.00000000E+00  9.55249411E+00  9.55249411E+00 -1.91049882E+01  0.00000000E+00
  9.55249411E+00  9.55249411E+00 -1.91049882E+01  0.00000000E+00  9.55249411E+00
  9.55249411E+00 -1.91049882E+01  0.00000000E+00  9.55249411E+00  9.55249411E+00
 -1.91049882E+01  0.00000000E+00  9.55249411E+00  9.55249411E+00 -1.91049882E+01
  0.00000000E+00  9.55249411E+00  9.55249411E+00 -1.91049882E+01  0.00000000E+00
  9.55249411E+00  9.55249411E+00 -1.91049882E+01  0.00000000E+00  9.55249411E+00
  9.55249411E+00 -1.91049882E+01  0.00000000E+00  9.55249411E+00  9.55249411E+00
 -1.91049882E+01  0.00000000E+00  9.55249411E+00  9.55249411E+00 -1.91049882E+01
  0.00000000E+00  9.55249411E+00  9.55249411E+00 -1.91049882E+01  0.00000000E+00
  9.55249411E+00  9.55249411E+00 -1.91049882E+01  0.00000000E+00  9.55249411E+00
  9.55249411E+00 -1.91049882E+01  0.00000000E+00  9.55249411E+00  9.55249411E+00
 -1.91049882E+01  0.00000000E+00  9.55249411E+00  9.55249411E+00 -1.91049882E+01
  0.00000000E+00  9.55249411E+00  9.55249411E+00 -1.91049882E+01  0.00000000E+00
  9.55249411E+00  9.55249411E+00 -1.91049882E+01  0.00000000E+00  9.55249411E+00
  9.55249411E+00 -1.91049882E+01  0.00000000E+00  9.55249411E+00  9.55249411E+00
 -1.91049882E+01  0.00000000E+00  9.55249411E+00  9.55249411E+00 -1.91049882E+01
  0.00000000E+00  9.55249411E+00  9.55249411E+00 -1.91049882E+01  0.00000000E+00
  9.55249411E+00  9.55249411E+00 -1.91049882E+01  0.00000000E+00  9.55249411E+00
  9.55249411E+00 -1.91049882E+01  0.00000000E+00  9.55249411E+00  9.55249411E+00
 -1.91049882E+01  0.00000000E+00  9.55249411E+00  9.55249411E+00 -1.91049882E+01
  0.00000000E+00  9.55249411E+00  9.55249411E+00 -1.91049882E+01  0.00000000E+00
  9.55249411E+00  9.55249411E+00 -1.91049882E+01  0.00000000E+00  9.55249411E+00
  9.55249411E+00 -1.91049882E+01  0.00000000E+00  9.55249411E+00  9.55249411E+00
 -1.91049882E+01  0.00000000E+00  9.55249411E+00  9.55249411E+00 -1.91049882E+01
  0.00000000E+00  9.55249411E+00  9.55249411E+00 -1.91049882E+01  0.00000000E+00
  9.55249411E+00  9.55249411E+00 -1.91049882E+01  0.00000000E+00  9.55249411E+00
  9.55249411E+00 -1.91049882E+01  0.00000000E+00  9.55249411E+00  9.55249411E+00
 -1.91049882E+01  0.00000000E+00  9.55249411E+00  9.55249411E+00 -1.91049882E+01
  0.00000000E+00  9.55249411E+00  9.55249411E+00 -1.91049882E+01  0.00000000E+00
  9.55249411E+00  9.55249411E+00 -1.91049882E+01  0.00000000E+00  9.55249411E+00
  9.55249411E+00 -1.91049882E+01  0.00000000E+00  9.55249411E+00  9.55249411E+00
 -1.91049882E+01  0.00000000E+00  9.55249411E+00  9.55249411E+00 -1.91049882E+01
  0.00000000E+00  9.55249411E+00  9.55249411E+00 -1.91049882E+01  0.00000000E+00
  9.55249411E+00  9.55249411E+00 -1.91049882E+01  0.00000000E+00  9.55249411E+00
  9.55249411E+00 -1.91049882E+01  0.00000000E+00  9.55249411E+00  9.55249411E+00
 -1.91049882E+01  0.00000000E+00  9.55249411E+00  9.55249411E+00 -1.91049882E+01
  0.00000000E+00  9.55249411E+00  9.55249411E+00 -1.91049882E+01  0.00000000E+00
  9.55249411E+00  9.55249411E+00 -1.91049882E+01  0.00000000E+00  9.55249411E+00
  9.55249411E+00 -1.91049882E+01  0.00000000E+00  9.55249411E+00  9.55249411E+00
 -1.91049882E+01  0.00000000E+00  9.55249411E+00  9.55249411E+00 -1.91049882E+01
  0.00000000E+00  9.55249411E+00  9.55249411E+00 -1.91049882E+01  0.00000000E+00
  9.55249411E+00  9.55249411E+00 -1.91049882E+01  0.00000000E+00  9.55249411E+00
  9.55249411E+00 -1.91049882E+01  0.00000000E+00  9.55249411E+00  9.55249411E+00
 -1.91049882E+01  0.00000000E+00  9.55249411E+00  9.55249411E+00 -1.91049882E+01
  0.00000000E+00  9.55249411E+00  9.55249411E+00 -1.91049882E+01  0.00000000E+00
  9.55249411E+00  9.55249411E+00 -1.91049882E+01  0.00000000E+00  9.55249411E+00
  9.55249411E+00 -1.91049882E+01  0.00000000E+00  9.55249411E+00  9.55249411E+00
 -1.91049882E+01  0.00000000E+00  9.55249411E+00  9.55249411E+00 -1.91049882E+01
  0.00000000E+00  9.55249411E+00  9.55249411E+00 -1.91049882E+01  0.00000000E+00
  9.55249411E+00  9.55249411E+00 -1.91049882E+01  0.00000000E+00  9.55249411E+00
  9.55249411E+00 -1.91049882E+01  0.00000000E+00  9.55249411E+00  9.55249411E+00
 -1.91049882E+01  0.00000000E+00  9.55249411E+00  9.55249411E+00 -1.91049882E+01
  0.00000000E+00  9.55249411E+00  9.55249411E+00 -1.91049882E+01  0.00000000E+00
  9.55249411E+00  9.55249411E+00 -1.91049882E+01  0.00000000E+00  9.55249411E+00
  9.55249411E+00 -1.91049882E+01  0.00000000E+00  9.55249411E+00  9.55249411E+00
 -1.91049882E+01  0.00000000E+00  9.55249411E+00  9.55249411E+00 -1.91049882E+01
  0.00000000E+00  9.55249411E+00  9.55249411E+00 -1.91049882E+01  0.00000000E+00
  9.55249411E+00  9.55249411E+00 -1.91049882E+01  0.00000000E+00  9.55249411E+00
  9.55249411E+00 -1.91049882E+01  0.00000000E+00  9.55249411E+00  9.55249411E+00
 -1.91049882E+01  0.00000000E+00  9.55249411E+00  9.55249411E+00 -1.91049882E+01
  0.00000000E+00  9.55249411E+00  9.55249411E+00 -1.91049882E+01  0.00000000E+00
  9.55249411E+00  9.55249411E+00 -1.91049882E+01  0.00000000E+00  9.55249411E+00
  9.55249411E+00 -1.91049882E+01  0.00000000E+00  9.55249411E+00  9.55249411E+00
 -1.91049882E+01  0.00000000E+00  9.55249411E+00  9.55249411E+00 -1.91049882E+01
  0.00000000E+00  9.55249411E+00  9.55249411E+00 -1.91049882E+01  0.00000000E+00
  9.55249411E+00  9.55249411E+00 -1.91049882E+01  0.00000000E+00  9.55249411E+00
  9.55249411E+00 -1.91049882E+01  0.00000000E+00  9.55249411E+00  9.55249411E+00
 -1.91049882E+01  0.00000000E+00  9.55249411E+00  9.55249411E+00 -1.91049882E+01
  0.00000000E+00  9.55249411E+00  9.55249411E+00 -1.91049882E+01  0.00000000E+00
  9.55249411E+00  9.55249411E+00 -1.91049882E+01  0.00000000E+00  9.55249411E+00
  9.55249411E+00 -1.91049882E+01  0.00000000E+00  9.55249411E+00  9.55249411E+00
 -1.91049882E+01  0.00000000E+00  9.55249411E+00  9.55249411E+00 -1.91049882E+01
  0.00000000E+00  9.55249411E+00  9.55249411E+00 -1.91049882E+01  0.00000000E+00
  9.55249411E+00  9.55249411E+00 -1.91049882E+01  0.00000000E+00  9.55249411E+00
  9.55249411E+00 -1.91049882E+01  0.00000000E+00  9.55249411E+00  9.55249411E+00
 -1.91049882E+01  0.00000000E+00  9.55249411E+00  9.55249411E+00 -1.91049882E+01
  0.00000000E+00  9.55249411E+00  9.55249411E+00 -1.91049882E+01  0.00000000E+00
  9.55249411E+00  9.55249411E+00 -1.91049882E+01  0.00000000E+00  9.55249411E+00
  9.55249411E+00 -1.91049882E+01  0.00000000E+00  9.55249411E+00  9.55249411E+00
 -1.91049882E+01  0.00000000E+00  9.55249411E+00  9.55249411E+00 -1.91049882E+01
  0.00000000E+00  9.55249411E+00  9.55249411E+00 -1.91049882E+01  0.00000000E+00
  9.55249411E+00  9.55249411E+00 -1.91049882E+01  0.00000000E+00  9.55249411E+00
  9.55249411E+00 -1.91049882E+01  0.00000000E+00  9.55249411E+00  9.55249411E+00
 -1.91049882E+01  0.00000000E+00  9.55249411E+00  9.55249411E+00 -1.91049882E+01
  0.00000000E+00  9.55249411E+00  9.55249411E+00 -1.91049882E+01  0.00000000E+00
  9.55249411E+00  9.55249411E+00 -1.91049882E+01  0.00000000E+00  9.55249411E+00
  9.55249411E+00 -1.91049882E+01  0.00000000E+00  9.55249411E+00  9.55249411E+00
 -1.91049882E+01  0.00000000E+00  9.55249411E+00  9.55249411E+00 -1.91049882E+01
  0.00000000E+00  9.55249411E+00  9.55249411E+00 -1.91049882E+01  0.00000000E+00
  9.55249411E+00  9.55249411E+00 -1.91049882E+01  0.00000000E+00  9.55249411E+00
  9.55249411E+00 -1.91049882E+01  0.00000000E+00  9.55249411E+00  9.55249411E+00
 -1.91049882E+01  0.00000000E+00  9.55249411E+00  9.55249411E+00 -1.91049882E+01
  0.00000000E+00  9.55249411E+00  9.55249411E+00 -1.91049882E+01  0.00000000E+00
  9.55249411E+00  9.55249411E+00 -1.91049882E+01  0.00000000E+00  9.55249411E+00
  9.55249411E+00 -1.91049882E+01  0.00000000E+00  9.55249411E+00  9.55249411E+00
 -1.91049882E+01  0.00000000E+00  9.55249411E+00  9.55249411E+00 -1.91049882E+01
  0.00000000E+00  9.55249411E+00  9.55249411E+00 -1.91049882E+01  0.00000000E+00
  9.55249411E+00  9.55249411E+00 -1.91049882E+01  0.00000000E+00  9.55249411E+00
  9.55249411E+00 -1.91049882E+01  0.00000000E+00  9.55249411E+00  9.55249411E+00
 -1.91049882E+01  0.00000000E+00  9.55249411E+00  9.55249411E+00 -1.91049882E+01
  0.00000000E+00  9.55249411E+00  9.55249411E+00 -1.91049882E+01  0.00000000E+00
  9.55249411E+00  9.55249411E+00 -1.91049882E+01  0.00000000E+00  9.55249411E+00
  9.55249411E+00 -1.91049882E+01  0.00000000E+00  9.55249411E+00  9.55249411E+00
 -1.91049882E+01  0.00000000E+00  9.55249411E+00  9.55249411E+00 -1.91049882E+01
  0.00000000E+00  9.55249411E+00  9.55249411E+00 -1.91049882E+01  0.00000000E+00
  9.55249411E+00  9.55249411E+00 -1.91049882E+01  0.00000000E+00  9.55249411E+00
  9.55249411E+00 -1.91049882E+01  0.00000000E+00  9.55249411E+00  9.55249411E+00
 -1.91049882E+01  0.00000000E+00  9.55249411E+00  9.55249411E+00 -1.91049882E+01
  0.00000000E+00  9.55249411E+00  9.55249411E+00 -1.91049882E+01  0.00000000E+00
  9.55249411E+00  9.55249411E+00 -1.91049882E+01  0.00000000E+00  9.55249411E+00
  9.55249411E+00 -1.91049882E+01  0.00000000E+00  9.55249411E+00  9.55249411E+00
 -1.91049882E+01  0.00000000E+00  9.55249411E+00  9.55249411E+00 -1.91049882E+01
  0.00000000E+00  9.55249411E+00  9.55249411E+00 -1.91049882E+01  0.00000000E+00
  9.55249411E+00  9.55249411E+00 -1.91049882E+01  0.00000000E+00  9.55249411E+00
  9.55249411E+00 -1.91049882E+01  0.00000000E+00  9.55249411E+00  9.55249411E+00
 -1.91049882E+01  0.00000000E+00  9.55249411E+00  9.55249411E+00 -1.91049882E+01
  0.00000000E+00  9.55249411E+00  9.55249411E+00 -1.91049882E+01  0.00000000E+00
  9.55249411E+00  9.55249411E+00 -1.91049882E+01  0.00000000E+00  9.55249411E+00
  9.55249411E+00 -1.91049882E+01  0.00000000E+00  9.55249411E+00  9.55249411E+00
 -1.91049882E+01  0.00000000E+00  9.55249411E+00  9.55249411E+00 -1.91049882E+01
  0.00000000E+00  9.55249411E+00  9.55249411E+00 -1.91049882E+01  0.00000000E+00
  9.55249411E+00  9.55249411E+00 -1.91049882E+01  0.00000000E+00  9.55249411E+00
  9.55249411E+00 -1.91049882E+01  0.00000000E+00  9.55249411E+00  9.55249411E+00
 -1.91049882E+01  0.00000000E+00  9.55249411E+00  9.55249411E+00 -1.91049882E+01
  0.00000000E+00  9.55249411E+00  9.55249411E+00 -1.91049882E+01  0.00000000E+00
  9.55249411E+00  9.55249411E+00 -1.91049882E+01  0.00000000E+00  9.55249411E+00
  9.55249411E+00 -1.91049882E+01  0.00000000E+00  9.55249411E+00  9.55249411E+00
 -1.91049882E+01  0.00000000E+00  9.55249411E+00  9.55249411E+00 -1.91049882E+01
  0.00000000E+00  9.55249411E+00  9.55249411E+00 -1.91049882E+01  0.00000000E+00
  9.55249411E+00  9.55249411E+00 -1.91049882E+01  0.00000000E+00  9.55249411E+00
  9.55249411E+00 -1.91049882E+01  0.00000000E+00  9.55249411E+00  9.55249411E+00
 -1.91049882E+01  0.00000000E+00  9.55249411E+00  9.55249411E+00 -1.91049882E+01
  0.00000000E+00  9.55249411E+00  9.55249411E+00 -1.91049882E+01  0.00000000E+00
  9.55249411E+00  9.55249411E+00 -1.91049882E+01  0.00000000E+00  9.55249411E+00
  9.55249411E+00 -1.91049882E+01  0.00000000E+00  9.55249411E+00  9.55249411E+00
 -1.91049882E+01  0.00000000E+00  9.55249411E+00  9.55249411E+00 -1.91049882E+01
  0.00000000E+00  9.55249411E+00  9.55249411E+00 -1.91049882E+01  0.00000000E+00
  9.55249411E+00  9.55249411E+00 -1.91049882E+01  0.00000000E+00  9.55249411E+00
  9.55249411E+00 -1.91049882E+01  0.00000000E+00  9.55249411E+00  9.55249411E+00
 -1.91049882E+01  0.00000000E+00  9.55249411E+00  9.55249411E+00 -1.91049882E+01
  0.00000000E+00  9.55249411E+00  9.55249411E+00 -1.91049882E+01  0.00000000E+00
  9.55249411E+00  9.55249411E+00 -1.91049882E+01  0.00000000E+00  9.55249411E+00
  9.55249411E+00 -1.91049882E+01  0.00000000E+00  9.55249411E+00  9.55249411E+00
 -1.91049882E+01  0.00000000E+00  9.55249411E+00  9.55249411E+00 -1.91049882E+01
  0.00000000E+00  9.55249411E+00  9.55249411E+00 -1.91049882E+01  0.00000000E+00
  9.55249411E+00  9.55249411E+00 -1.91049882E+01  0.00000000E+00  9.55249411E+00
  9.55249411E+00 -1.91049882E+01  0.00000000E+00  9.55249411E+00  9.55249411E+00
 -1.91049882E+01  0.00000000E+00  9.55249411E+00  9.55249411E+00 -1.91049882E+01
  0.00000000E+00  9.55249411E+00  9.55249411E+00 -1.91049882E+01  0.00000000E+00
  9.55249411E+00  9.55249411E+00 -1.91049882E+01  0.00000000E+00  9.55249411E+00
  9.55249411E+00 -1.91049882E+01  0.00000000E+00  9.55249411E+00  9.55249411E+00
 -1.91049882E+01  0.00000000E+00  9.55249411E+00  9.55249411E+00 -1.91049882E+01
  0.00000000E+00  9.55249411E+00  9.55249411E+00 -1.91049882E+01  0.00000000E+00
  9.55249411E+00  9.55249411E+00 -1.91049882E+01  0.00000000E+00  9.55249411E+00
  9.55249411E+00 -1.91049882E+01  0.00000000E+00  9.55249411E+00  9.55249411E+00
 -1.91049882E+01  0.00000000E+00  9.55249411E+00  9.55249411E+00 -1.91049882E+01
  0.00000000E+00  9.55249411E+00  9.55249411E+00 -1.91049882E+01  0.00000000E+00
  9.55249411E+00  9.55249411E+00 -1.91049882E+01  0.00000000E+00  9.55249411E+00
  9.55249411E+00 -1.91049882E+01  0.00000000E+00  9.55249411E+00  9.55249411E+00
 -1.91049882E+01  0.00000000E+00  9.55249411E+00  9.55249411E+00 -1.91049882E+01
  0.00000000E+00  9.55249411E+00  9.55249411E+00 -1.91049882E+01  0.00000000E+00
  9.55249411E+00  9.55249411E+00 -1.91049882E+01  0.00000000E+00  9.55249411E+00
  9.55249411E+00 -1.91049882E+01  0.00000000E+00  9.55249411E+00  9.55249411E+00
 -1.91049882E+01  0.00000000E+00  9.55249411E+00  9.55249411E+00 -1.91049882E+01
  0.00000000E+00  9.55249411E+00  9.55249411E+00 -1.91049882E+01  0.00000000E+00
  9.55249411E+00  9.55249411E+00 -1.91049882E+01  0.00000000E+00  9.55249411E+00
  9.55249411E+00 -1.91049882E+01  0.00000000E+00  9.55249411E+00  9.55249411E+00
 -1.91049882E+01  0.00000000E+00  9.55249411E+00  9.55249411E+00 -1.91049882E+01
  0.00000000E+00  9.55249411E+00  9.55249411E+00 -1.91049882E+01  0.00000000E+00
  9.55249411E+00  9.55249411E+00 -1.91049882E+01  0.00000000E+00  9.55249411E+00
  9.55249411E+00 -1.91049882E+01  0.00000000E+00  9.55249411E+00  9.55249411E+00
 -1.91049882E+01  0.00000000E+00  9.55249411E+00  9.55249411E+00 -1.91049882E+01
  0.00000000E+00  9.55249411E+00  9.55249411E+00 -1.91049882E+01  0.00000000E+00
  9.55249411E+00  9.55249411E+00 -1.91049882E+01  0.00000000E+00  9.55249411E+00
  9.55249411E+00 -1.91049882E+01  0.00000000E+00  9.55249411E+00  9.55249411E+00
 -1.91049882E+01  0.00000000E+00  9.55249411E+00  9.55249411E+00 -1.91049882E+01
  0.00000000E+00  9.55249411E+00  9.55249411E+00 -1.91049882E+01  0.00000000E+00
  9.55249411E+00  9.55249411E+00 -1.91049882E+01  0.00000000E+00  9.55249411E+00
  9.55249411E+00 -1.91049882E+01  0.00000000E+00  9.55249411E+00  9.55249411E+00
 -1.91049882E+01  0.00000000E+00  9.55249411E+00  9.55249411E+00 -1.91049882E+01
  0.00000000E+00  9.55249411E+00  9.55249411E+00 -1.91049882E+01  0.00000000E+00
  9.55249411E+00  9.55249411E+00 -1.91049882E+01  0.00000000E+00  9.55249411E+00
  9.55249411E+00 -1.91049882E+01  0.00000000E+00  9.55249411E+00  9.55249411E+00
 -1.91049882E+01  0.00000000E+00  9.55249411E+00  9.55249411E+00 -1.91049882E+01
  0.00000000E+00  9.55249411E+00  9.55249411E+00 -1.91049882E+01  0.00000000E+00
  9.55249411E+00  9.55249411E+00 -1.91049882E+01  0.00000000E+00  9.55249411E+00
  9.55249411E+00 -1.91049882E+01  0.00000000E+00  9.55249411E+00  9.55249411E+00
 -1.91049882E+01  0.00000000E+00  9.55249411E+00  9.55249411E+00 -1.91049882E+01
  0.00000000E+00  9.55249411E+00  9.55249411E+00 -1.91049882E+01  0.00000000E+00
  9.55249411E+00  9.55249411E+00 -1.91049882E+01  0.00000000E+00  9.55249411E+00
  9.55249411E+00 -1.91049882E+01  0.00000000E+00  9.55249411E+00  9.55249411E+00
 -1.91049882E+01  0.00000000E+00  9.55249411E+00  9.55249411E+00 -1.91049882E+01
  0.00000000E+00  9.55249411E+00  9.55249411E+00 -1.91049882E+01  0.00000000E+00
  9.55249411E+00  9.55249411E+00 -1.91049882E+01  0.00000000E+00  9.55249411E+00
  9.55249411E+00 -1.91049882E+01  0.00000000E+00  9.55249411E+00  9.55249411E+00
 -1.91049882E+01  0.00000000E+00  9.55249411E+00  9.55249411E+00 -1.91049882E+01
  0.00000000E+00  9.55249411E+00  9.55249411E+00 -1.91049882E+01  0.00000000E+00
  9.55249411E+00  9.55249411E+00 -1.91049882E+01  0.00000000E+00  9.55249411E+00
  9.55249411E+00 -1.91049882E+01  0.00000000E+00  9.55249411E+00  9.55249411E+00
 -1.91049882E+01  0.00000000E+00  9.55249411E+00  9.55249411E+00 -1.91049882E+01
  0.00000000E+00  9.55249411E+00  9.55249411E+00 -1.91049882E+01  0.00000000E+00
  9.55249411E+00  9.55249411E+00 -1.91049882E+01  0.00000000E+00  9.55249411E+00
  9.55249411E+00 -1.91049882E+01  0.00000000E+00  9.55249411E+00  9.55249411E+00
 -1.91049882E+01  0.00000000E+00  9.55249411E+00  9.55249411E+00 -1.91049882E+01
  0.00000000E+00  9.55249411E+00  9.55249411E+00 -1.91049882E+01  0.00000000E+00
  9.55249411E+00  9.55249411E+00 -1.91049882E+01  0.00000000E+00  9.55249411E+00
  9.55249411E+00 -1.91049882E+01  0.00000000E+00  9.55249411E+00  9.55249411E+00
 -1.91049882E+01  0.00000000E+00  9.55249411E+00  9.55249411E+00 -1.91049882E+01
  0.00000000E+00  9.55249411E+00  9.55249411E+00 -1.91049882E+01  0.00000000E+00
  9.55249411E+00  9.55249411E+00 -1.91049882E+01  0.00000000E+00  9.55249411E+00
  9.55249411E+00 -1.91049882E+01  0.00000000E+00  9.55249411E+00  9.55249411E+00
 -1.91049882E+01  0.00000000E+00  9.55249411E+00  9.55249411E+00 -1.91049882E+01
  0.00000000E+00  9.55249411E+00  9.55249411E+00 -1.91049882E+01  0.00000000E+00
  9.55249411E+00  9.55249411E+00 -1.91049882E+01  0.00000000E+00  9.55249411E+00
  9.55249411E+00 -1.91049882E+01  0.00000000E+00  9.55249411E+00  9.55249411E+00
 -1.91049882E+01  0.00000000E+00  9.55249411E+00  9.55249411E+00 -1.91049882E+01
  0.00000000E+00  9.55249411E+00  9.55249411E+00 -1.91049882E+01  0.00000000E+00
  9.55249411E+00  9.55249411E+00 -1.91049882E+01  0.00000000E+00  9.55249411E+00
  9.55249411E+00 -1.91049882E+01  0.00000000E+00  9.55249411E+00  9.55249411E+00
 -1.91049882E+01  0.00000000E+00  9.55249411E+00  9.55249411E+00 -1.91049882E+01
  0.00000000E+00  9.55249411E+00  9.55249411E+00 -1.91049882E+01  0.00000000E+00
  9.55249411E+00  9.55249411E+00 -1.91049882E+01  0.00000000E+00  9.55249411E+00
  9.55249411E+00 -1.91049882E+01  0.00000000E+00  9.55249411E+00  9.55249411E+00
 -1.91049882E+01  0.00000000E+00  9.55249411E+00  9.55249411E+00 -1.91049882E+01
  0.00000000E+00  9.55249411E+00  9.55249411E+00 -1.91049882E+01  0.00000000E+00
  9.55249411E+00  9.55249411E+00 -1.91049882E+01  0.00000000E+00  9.55249411E+00
  9.55249411E+00 -1.91049882E+01  0.00000000E+00  9.55249411E+00  9.55249411E+00
 -1.91049882E+01  0.00000000E+00  9.55249411E+00  9.55249411E+00 -1.91049882E+01
  0.00000000E+00  9.55249411E+00  9.55249411E+00 -1.91049882E+01  0.00000000E+00
  9.55249411E+00  9.55249411E+00 -1.91049882E+01  0.00000000E+00  9.55249411E+00
  9.55249411E+00 -1.91049882E+01  0.00000000E+00  9.55249411E+00  9.55249411E+00
 -1.91049882E+01  0.00000000E+00  9.55249411E+00  9.55249411E+00 -1.91049882E+01
  0.00000000E+00  9.55249411E+00  9.55249411E+00 -1.91049882E+01  0.00000000E+00
  9.55249411E+00  9.55249411E+00 -1.91049882E+01  0.00000000E+00  9.55249411E+00
  9.55249411E+00 -1.91049882E+01  0.00000000E+00  9.55249411E+00  9.55249411E+00
 -1.91049882E+01  0.00000000E+00  9.55249411E+00  9.55249411E+00 -1.91049882E+01
  0.00000000E+00  9.55249411E+00  9.55249411E+00 -1.91049882E+01  0.00000000E+00
  9.55249411E+00  9.55249411E+00 -1.91049882E+01  0.00000000E+00  9.55249411E+00
  9.55249411E+00 -1.91049882E+01  0.00000000E+00  9.55249411E+00  9.55249411E+00
 -1.91049882E+01  0.00000000E+00  9.55249411E+00  9.55249411E+00 -1.91049882E+01
  0.00000000E+00  9.55249411E+00  9.55249411E+00 -1.91049882E+01  0.00000000E+00
  9.55249411E+00  9.55249411E+00 -1.91049882E+01  0.00000000E+00  9.55249411E+00
  9.55249411E+00 -1.91049882E+01  0.00000000E+00  9.55249411E+00  9.55249411E+00
 -1.91049882E+01  0.00000000E+00  9.55249411E+00  9.55249411E+00 -1.91049882E+01
  0.00000000E+00  9.55249411E+00  9.55249411E+00 -1.91049882E+01  0.00000000E+00
  9.55249411E+00  9.55249411E+00 -1.91049882E+01  0.00000000E+00  9.55249411E+00
  9.55249411E+00 -1.91049882E+01  0.00000000E+00  9.55249411E+00  9.55249411E+00
 -1.91049882E+01  0.00000000E+00  9.55249411E+00  9.55249411E+00 -1.91049882E+01
  0.00000000E+00  9.55249411E+00  9.55249411E+00 -1.91049882E+01  0.00000000E+00
  9.55249411E+00  9.55249411E+00 -1.91049882E+01  0.00000000E+00  9.55249411E+00
  9.55249411E+00 -1.91049882E+01  0.00000000E+00  9.55249411E+00  9.55249411E+00
 -1.91049882E+01  0.00000000E+00  9.55249411E+00  9.55249411E+00 -1.91049882E+01
  0.00000000E+00  9.55249411E+00  9.55249411E+00 -1.91049882E+01  0.00000000E+00
  9.55249411E+00  9.55249411E+00 -1.91049882E+01  0.00000000E+00  9.55249411E+00
  9.55249411E+00 -1.91049882E+01  0.00000000E+00  9.55249411E+00  9.55249411E+00
 -1.91049882E+01  0.00000000E+00  9.55249411E+00  9.55249411E+00 -1.91049882E+01
  0.00000000E+00  9.55249411E+00  9.55249411E+00 -1.91049882E+01  0.00000000E+00
  9.55249411E+00  9.55249411E+00 -1.91049882E+01  0.00000000E+00  9.55249411E+00
  9.55249411E+00 -1.91049882E+01  0.00000000E+00  9.55249411E+00  9.55249411E+00
 -1.91049882E+01  0.00000000E+00  9.55249411E+00  9.55249411E+00 -1.91049882E+01
  0.00000000E+00  9.55249411E+00  9.55249411E+00 -1.91049882E+01  0.00000000E+00
  9.55249411E+00  9.55249411E+00 -1.91049882E+01  0.00000000E+00  9.55249411E+00
  9.55249411E+00 -1.91049882E+01  0.00000000E+00  9.55249411E+00  9.55249411E+00
 -1.91049882E+01  0.00000000E+00  9.55249411E+00  9.55249411E+00 -1.91049882E+01
  0.00000000E+00  9.55249411E+00  9.55249411E+00 -1.91049882E+01  0.00000000E+00
  9.55249411E+00  9.55249411E+00 -1.91049882E+01  0.00000000E+00  9.55249411E+00
  9.55249411E+00 -1.91049882E+01  0.00000000E+00  9.55249411E+00  9.55249411E+00
 -1.91049882E+01  0.00000000E+00  9.55249411E+00  9.55249411E+00 -1.91049882E+01
  0.00000000E+00  9.55249411E+00  9.55249411E+00 -1.91049882E+01  0.00000000E+00
  9.55249411E+00  9.55249411E+00 -1.91049882E+01  0.00000000E+00  9.55249411E+00
  9.55249411E+00 -1.91049882E+01  0.00000000E+00  9.55249411E+00  9.55249411E+00
 -1.91049882E+01  0.00000000E+00  9.55249411E+00  9.55249411E+00 -1.91049882E+01
  0.00000000E+00  9.55249411E+00  9.55249411E+00 -1.91049882E+01  0.00000000E+00
  9.55249411E+00  9.55249411E+00 -1.91049882E+01  0.00000000E+00  9.55249411E+00
  9.55249411E+00 -1.91049882E+01  0.00000000E+00  9.55249411E+00  9.55249411E+00
 -1.91049882E+01  0.00000000E+00  9.55249411E+00  9.55249411E+00 -1.91049882E+01
  0.00000000E+00  9.55249411E+00  9.55249411E+00 -1.91049882E+01  0.00000000E+00
  9.55249411E+00  9.55249411E+00 -1.91049882E+01  0.00000000E+00  9.55249411E+00
  9.55249411E+00 -1.91049882E+01  0.00000000E+00  9.55249411E+00  9.55249411E+00
 -1.91049882E+01  0.00000000E+00  9.55249411E+00  9.55249411E+00 -1.91049882E+01
  0.00000000E+00  9.55249411E+00  9.55249411E+00 -1.91049882E+01  0.00000000E+00
  9.55249411E+00  9.55249411E+00 -1.91049882E+01  0.00000000E+00  9.55249411E+00
  9.55249411E+00 -1.91049882E+01  0.00000000E+00  9.55249411E+00  9.55249411E+00
 -1.91049882E+01  0.00000000E+00  9.55249411E+00  9.55249411E+00 -1.91049882E+01
  0.00000000E+00  9.55249411E+00  9.55249411E+00 -1.91049882E+01  0.00000000E+00
  9.55249411E+00  9.55249411E+00 -1.91049882E+01  0.00000000E+00  9.55249411E+00
  9.55249411E+00 -1.91049882E+01  0.00000000E+00  9.55249411E+00  9.55249411E+00
 -1.91049882E+01  0.00000000E+00  9.55249411E+00  9.55249411E+00 -1.91049882E+01
  0.00000000E+00  9.55249411E+00  9.55249411E+00 -1.91049882E+01  0.00000000E+00
  9.55249411E+00  9.55249411E+00 -1.91049882E+01  0.00000000E+00  9.55249411E+00
  9.55249411E+00 -1.91049882E+01  0.00000000E+00  9.55249411E+00  9.55249411E+00
 -1.91049882E+01  0.00000000E+00  9.55249411E+00  9.55249411E+00 -1.91049882E+01
  0.00000000E+00  9.55249411E+00  9.55249411E+00 -1.91049882E+01  0.00000000E+00
  9.55249411E+00  9.55249411E+00 -1.91049882E+01  0.00000000E+00  9.55249411E+00
  9.55249411E+00 -1.91049882E+01  0.00000000E+00  9.55249411E+00  9.55249411E+00
 -1.91049882E+01  0.00000000E+00  9.55249411E+00  9.55249411E+00 -1.91049882E+01
  0.00000000E+00  9.55249411E+00  9.55249411E+00 -1.91049882E+01  0.00000000E+00
  9.55249411E+00  9.55249411E+00 -1.91049882E+01  0.00000000E+00  9.55249411E+00
  9.55249411E+00 -1.91049882E+01  0.00000000E+00  9.55249411E+00  9.55249411E+00
 -1.91049882E+01  0.00000000E+00  9.55249411E+00  9.55249411E+00 -1.91049882E+01
  0.00000000E+00  9.55249411E+00  9.55249411E+00 -1.91049882E+01  0.00000000E+00
  9.55249411E+00  9.55249411E+00 -1.91049882E+01  0.00000000E+00  9.55249411E+00
  9.55249411E+00 -1.91049882E+01  0.00000000E+00  9.55249411E+00  9.55249411E+00
 -1.91049882E+01  0.00000000E+00  9.55249411E+00  9.55249411E+00 -1.91049882E+01
  0.00000000E+00  9.55249411E+00  9.55249411E+00 -1.91049882E+01  0.00000000E+00
  9.55249411E+00  9.55249411E+00 -1.91049882E+01  0.00000000E+00  9.55249411E+00
  9.55249411E+00 -1.91049882E+01  0.00000000E+00  9.55249411E+00  9.55249411E+00
 -1.91049882E+01  0.00000000E+00  9.55249411E+00  9.55249411E+00 -1.91049882E+01
  0.00000000E+00  9.55249411E+00  9.55249411E+00 -1.91049882E+01  0.00000000E+00
  9.55249411E+00  9.55249411E+00 -1.91049882E+01  0.00000000E+00  9.55249411E+00
  9.55249411E+00 -1.91049882E+01  0.00000000E+00  9.55249411E+00  9.55249411E+00
 -1.91049882E+01  0.00000000E+00  9.55249411E+00  9.55249411E+00 -1.91049882E+01
  0.00000000E+00  9.55249411E+00  9.55249411E+00 -1.91049882E+01  0.00000000E+00
  9.55249411E+00  9.55249411E+00 -1.91049882E+01  0.00000000E+00  9.55249411E+00
  9.55249411E+00 -1.91049882E+01  0.00000000E+00  9.55249411E+00  9.55249411E+00
 -1.91049882E+01  0.00000000E+00  9.55249411E+00  9.55249411E+00 -1.91049882E+01
  0.00000000E+00  9.55249411E+00  9.55249411E+00 -1.91049882E+01  0.00000000E+00
  9.55249411E+00  9.55249411E+00 -1.91049882E+01  0.00000000E+00  9.55249411E+00
  9.55249411E+00 -1.91049882E+01  0.00000000E+00  9.55249411E+00  9.55249411E+00
 -1.91049882E+01  0.00000000E+00  9.55249411E+00  9.55249411E+00 -1.91049882E+01
  0.00000000E+00  9.55249411E+00  9.55249411E+00 -1.91049882E+01  0.00000000E+00
  9.55249411E+00  9.55249411E+00 -1.91049882E+01  0.00000000E+00  9.55249411E+00
  9.55249411E+00 -1.91049882E+01  0.00000000E+00  9.55249411E+00  9.55249411E+00
 -1.91049882E+01  0.00000000E+00  9.55249411E+00  9.55249411E+00 -1.91049882E+01
  0.00000000E+00  9.55249411E+00  9.55249411E+00 -1.91049882E+01  0.00000000E+00
  9.55249411E+00  9.55249411E+00 -1.91049882E+01  0.00000000E+00  9.55249411E+00
  9.55249411E+00 -1.91049882E+01  0.00000000E+00  9.55249411E+00  9.55249411E+00
 -1.91049882E+01  0.00000000E+00  9.55249411E+00  9.55249411E+00 -1.91049882E+01
  0.00000000E+00  9.55249411E+00  9.55249411E+00 -1.91049882E+01  0.00000000E+00
  9.55249411E+00  9.55249411E+00 -1.91049882E+01  0.00000000E+00  9.55249411E+00
  9.55249411E+00 -1.91049882E+01  0.00000000E+00  9.55249411E+00  9.55249411E+00
 -1.91049882E+01  0.00000000E+00  9.55249411E+00  9.55249411E+00 -1.91049882E+01
  0.00000000E+00  9.55249411E+00  9.55249411E+00 -1.91049882E+01  0.00000000E+00
  9.55249411E+00  9.55249411E+00 -1.91049882E+01  0.00000000E+00  9.55249411E+00
  9.55249411E+00 -1.91049882E+01  0.00000000E+00  9.55249411E+00  9.55249411E+00
 -1.91049882E+01  0.00000000E+00  9.55249411E+00  9.55249411E+00 -1.91049882E+01
  0.00000000E+00  9.55249411E+00  9.55249411E+00 -1.91049882E+01  0.00000000E+00
  9.55249411E+00  9.55249411E+00 -1.91049882E+01  0.00000000E+00  9.55249411E+00
  9.55249411E+00 -1.91049882E+01  0.00000000E+00  9.55249411E+00  9.55249411E+00
 -1.91049882E+01  0.00000000E+00  9.55249411E+00  9.55249411E+00 -1.91049882E+01
  0.00000000E+00  9.55249411E+00  9.55249411E+00 -1.91049882E+01  0.00000000E+00
  9.55249411E+00  9.55249411E+00 -1.91049882E+01  0.00000000E+00  9.55249411E+00
  9.55249411E+00 -1.91049882E+01  0.00000000E+00  9.55249411E+00  9.55249411E+00
 -1.91049882E+01  0.00000000E+00  9.55249411E+00  9.55249411E+00 -1.91049882E+01
  0.00000000E+00  9.55249411E+00  9.55249411E+00 -1.91049882E+01  0.00000000E+00
  9.55249411E+00  9.55249411E+00 -1.91049882E+01  0.00000000E+00  9.55249411E+00
  9.55249411E+00 -1.91049882E+01  0.00000000E+00  9.55249411E+00  9.55249411E+00
 -1.91049882E+01  0.00000000E+00  9.55249411E+00  9.55249411E+00 -1.91049882E+01
  0.00000000E+00  9.55249411E+00  9.55249411E+00 -1.91049882E+01  0.00000000E+00
  9.55249411E+00  9.55249411E+00 -1.91049882E+01  0.00000000E+00  9.55249411E+00
  9.55249411E+00 -1.91049882E+01  0.00000000E+00  9.55249411E+00  9.55249411E+00
 -1.91049882E+01  0.00000000E+00  9.55249411E+00  9.55249411E+00 -1.91049882E+01
  0.00000000E+00  9.55249411E+00  9.55249411E+00 -1.91049882E+01  0.00000000E+00
  9.55249411E+00  9.55249411E+00 -1.91049882E+01  0.00000000E+00  9.55249411E+00
  9.55249411E+00 -1.91049882E+01  0.00000000E+00  9.55249411E+00  9.55249411E+00
 -1.91049882E+01  0.00000000E+00  9.55249411E+00  9.55249411E+00 -1.91049882E+01
  0.00000000E+00  9.55249411E+00  9.55249411E+00 -1.91049882E+01  0.00000000E+00
  9.55249411E+00  9.55249411E+00 -1.91049882E+01  0.00000000E+00  9.55249411E+00
  9.55249411E+00 -1.91049882E+01  0.00000000E+00  9.55249411E+00  9.55249411E+00
 -1.91049882E+01  0.00000000E+00  9.55249411E+00  9.55249411E+00 -1.91049882E+01
  0.00000000E+00  9.55249411E+00  9.55249411E+00 -1.91049882E+01  0.00000000E+00
  9.55249411E+00  9.55249411E+00 -1.91049882E+01  0.00000000E+00  9.55249411E+00
  9.55249411E+00 -1.91049882E+01  0.00000000E+00  9.55249411E+00  9.55249411E+00
 -1.91049882E+01  0.00000000E+00  9.55249411E+00  9.55249411E+00 -1.91049882E+01
  0.00000000E+00  9.55249411E+00  9.55249411E+00 -1.91049882E+01  0.00000000E+00
  9.55249411E+00  9.55249411E+00 -1.91049882E+01  0.00000000E+00  9.55249411E+00
  9.55249411E+00 -1.91049882E+01  0.00000000E+00  9.55249411E+00  9.55249411E+00
 -1.91049882E+01  0.00000000E+00  9.55249411E+00  9.55249411E+00 -1.91049882E+01
  0.00000000E+00  9.55249411E+00  9.55249411E+00 -1.91049882E+01  0.00000000E+00
  9.55249411E+00  9.55249411E+00 -1.91049882E+01  0.00000000E+00  9.55249411E+00
  9.55249411E+00 -1.91049882E+01  0.00000000E+00  9.55249411E+00  9.55249411E+00
 -1.91049882E+01  0.00000000E+00  9.55249411E+00  9.55249411E+00 -1.91049882E+01
  0.00000000E+00  9.55249411E+00  9.55249411E+00 -1.91049882E+01  0.00000000E+00
  9.55249411E+00  9.55249411E+00 -1.91049882E+01  0.00000000E+00  9.55249411E+00
  9.55249411E+00 -1.91049882E+01  0.00000000E+00  9.55249411E+00  9.55249411E+00
 -1.91049882E+01  0.00000000E+00  9.55249411E+00  9.55249411E+00 -1.91049882E+01
  0.00000000E+00  9.55249411E+00  9.55249411E+00 -1.91049882E+01  0.00000000E+00
  9.55249411E+00  9.55249411E+00 -1.91049882E+01  0.00000000E+00  9.55249411E+00
  9.55249411E+00 -1.91049882E+01  0.00000000E+00  9.55249411E+00  9.55249411E+00
 -1.91049882E+01  0.00000000E+00  9.55249411E+00  9.55249411E+00 -1.91049882E+01
  0.00000000E+00  9.55249411E+00  9.55249411E+00 -1.91049882E+01  0.00000000E+00
  9.55249411E+00  9.55249411E+00 -1.91049882E+01  0.00000000E+00  9.55249411E+00
  9.55249411E+00 -1.91049882E+01  0.00000000E+00  9.55249411E+00  9.55249411E+00
 -1.91049882E+01  0.00000000E+00  9.55249411E+00  9.55249411E+00 -1.91049882E+01
  0.00000000E+00  9.55249411E+00  9.55249411E+00 -1.91049882E+01  0.00000000E+00
  9.55249411E+00  9.55249411E+00 -1.91049882E+01  0.00000000E+00  9.55249411E+00
  9.55249411E+00 -1.91049882E+01  0.00000000E+00  9.55249411E+00  9.55249411E+00
 -1.91049882E+01  0.00000000E+00  9.55249411E+00  9.55249411E+00 -1.91049882E+01
  0.00000000E+00  9.55249411E+00  9.55249411E+00 -1.91049882E+01  0.00000000E+00
  9.55249411E+00  9.55249411E+00 -1.91049882E+01  0.00000000E+00  9.55249411E+00
  9.55249411E+00 -1.91049882E+01  0.00000000E+00  9.55249411E+00  9.55249411E+00
 -1.91049882E+01  0.00000000E+00  9.55249411E+00  9.55249411E+00 -1.91049882E+01
  0.00000000E+00  9.55249411E+00  9.55249411E+00 -1.91049882E+01  0.00000000E+00
  9.55249411E+00  9.55249411E+00 -1.91049882E+01  0.00000000E+00  9.55249411E+00
  9.55249411E+00 -1.91049882E+01  0.00000000E+00  9.55249411E+00  9.55249411E+00
 -1.91049882E+01  0.00000000E+00  9.55249411E+00  9.55249411E+00 -1.91049882E+01
  0.00000000E+00  9.55249411E+00  9.55249411E+00 -1.91049882E+01  0.00000000E+00
  9.55249411E+00  9.55249411E+00 -1.91049882E+01  0.00000000E+00  9.55249411E+00
  9.55249411E+00 -1.91049882E+01  0.00000000E+00  9.55249411E+00  9.55249411E+00
 -1.91049882E+01  0.00000000E+00  9.55249411E+00  9.55249411E+00 -1.91049882E+01
  0.00000000E+00  9.55249411E+00  9.55249411E+00 -1.91049882E+01  0.00000000E+00
  9.55249411E+00  9.55249411E+00 -1.91049882E+01  0.00000000E+00  9.55249411E+00
  9.55249411E+00 -1.91049882E+01  0.00000000E+00  9.55249411E+00  9.55249411E+00
 -1.91049882E+01  0.00000000E+00  9.55249411E+00  9.55249411E+00 -1.91049882E+01
  0.00000000E+00  9.55249411E+00  9.55249411E+00 -1.91049882E+01  0.00000000E+00
  9.55249411E+00  9.55249411E+00 -1.91049882E+01  0.00000000E+00  9.55249411E+00
  9.55249411E+00 -1.91049882E+01  0.00000000E+00  9.55249411E+00  9.55249411E+00
 -1.91049882E+01  0.00000000E+00  9.55249411E+00  9.55249411E+00 -1.91049882E+01
  0.00000000E+00  9.55249411E+00  9.55249411E+00 -1.91049882E+01  0.00000000E+00
  9.55249411E+00  9.55249411E+00 -1.91049882E+01  0.00000000E+00  9.55249411E+00
  9.55249411E+00 -1.91049882E+01  0.00000000E+00  9.55249411E+00  9.55249411E+00
 -1.91049882E+01  0.00000000E+00  9.55249411E+00  9.55249411E+00 -1.91049882E+01
  0.00000000E+00  9.55249411E+00  9.55249411E+00 -1.91049882E+01  0.00000000E+00
  9.55249411E+00  9.55249411E+00 -1.91049882E+01  0.00000000E+00  9.55249411E+00
  9.55249411E+00 -1.91049882E+01  0.00000000E+00  9.55249411E+00  9.55249411E+00
 -1.91049882E+01  0.00000000E+00  9.55249411E+00  9.55249411E+00 -1.91049882E+01
  0.00000000E+00  9.55249411E+00  9.55249411E+00 -1.91049882E+01  0.00000000E+00
  9.55249411E+00  9.55249411E+00 -1.91049882E+01  0.00000000E+00  9.55249411E+00
  9.55249411E+00 -1.91049882E+01  0.00000000E+00  9.55249411E+00  9.55249411E+00
 -1.91049882E+01  0.00000000E+00  9.55249411E+00  9.55249411E+00 -1.91049882E+01
  0.00000000E+00  9.55249411E+00  9.55249411E+00 -1.91049882E+01  0.00000000E+00
  9.55249411E+00  9.55249411E+00 -1.91049882E+01  0.00000000E+00  9.55249411E+00
  9.55249411E+00 -1.91049882E+01  0.00000000E+00  9.55249411E+00  9.55249411E+00
 -1.91049882E+01  0.00000000E+00  9.55249411E+00  9.55249411E+00 -1.91049882E+01
  0.00000000E+00  9.55249411E+00  9.55249411E+00 -1.91049882E+01  0.00000000E+00
  9.55249411E+00  9.55249411E+00 -1.91049882E+01  0.00000000E+00  9.55249411E+00
  9.55249411E+00 -1.91049882E+01  0.00000000E+00  9.55249411E+00  9.55249411E+00
 -1.91049882E+01  0.00000000E+00  9.55249411E+00  9.55249411E+00 -1.91049882E+01
  0.00000000E+00  9.55249411E+00  9.55249411E+00 -1.91049882E+01  0.00000000E+00
  9.55249411E+00  9.55249411E+00 -1.91049882E+01  0.00000000E+00  9.55249411E+00
  9.55249411E+00 -1.91049882E+01  0.00000000E+00  9.55249411E+00  9.55249411E+00
 -1.91049882E+01  0.00000000E+00  9.55249411E+00  9.55249411E+00 -1.91049882E+01
  0.00000000E+00  9.55249411E+00  9.55249411E+00 -1.91049882E+01  0.00000000E+00
  9.55249411E+00  9.55249411E+00 -1.91049882E+01  0.00000000E+00  9.55249411E+00
  9.55249411E+00 -1.91049882E+01  0.00000000E+00  9.55249411E+00  9.55249411E+00
 -1.91049882E+01  0.00000000E+00  9.55249411E+00  9.55249411E+00 -1.91049882E+01
  0.00000000E+00  9.55249411E+00  9.55249411E+00 -1.91049882E+01  0.00000000E+00
  9.55249411E+00  9.55249411E+00 -1.91049882E+01  0.00000000E+00  9.55249411E+00
  9.55249411E+00 -1.91049882E+01  0.00000000E+00  9.55249411E+00  9.55249411E+00
 -1.91049882E+01  0.00000000E+00  9.55249411E+00  9.55249411E+00 -1.91049882E+01
  0.00000000E+00  9.55249411E+00  9.55249411E+00 -1.91049882E+01  0.00000000E+00
  9.55249411E+00  9.55249411E+00 -1.91049882E+01  0.00000000E+00  9.55249411E+00
  9.55249411E+00 -1.91049882E+01  0.00000000E+00  9.55249411E+00  9.55249411E+00
 -1.91049882E+01  0.00000000E+00  9.55249411E+00  9.55249411E+00 -1.91049882E+01
  0.00000000E+00  9.55249411E+00  9.55249411E+00 -1.91049882E+01  0.00000000E+00
  9.55249411E+00  9.55249411E+00 -1.91049882E+01  0.00000000E+00  9.55249411E+00
  9.55249411E+00 -1.91049882E+01  0.00000000E+00  9.55249411E+00  9.55249411E+00
 -1.91049882E+01  0.00000000E+00  9.55249411E+00  9.55249411E+00 -1.91049882E+01
  0.00000000E+00  9.55249411E+00  9.55249411E+00 -1.91049882E+01  0.00000000E+00
  9.55249411E+00  9.55249411E+00 -1.91049882E+01  0.00000000E+00  9.55249411E+00
  9.55249411E+00 -1.91049882E+01  0.00000000E+00  9.55249411E+00  9.55249411E+00
 -1.91049882E+01  0.00000000E+00  9.55249411E+00  9.55249411E+00 -1.91049882E+01
  0.00000000E+00  9.55249411E+00  9.55249411E+00 -1.91049882E+01  0.00000000E+00
  9.55249411E+00  9.55249411E+00 -1.91049882E+01  0.00000000E+00  9.55249411E+00
  9.55249411E+00 -1.91049882E+01  0.00000000E+00  9.55249411E+00  9.55249411E+00
 -1.91049882E+01  0.00000000E+00  9.55249411E+00  9.55249411E+00 -1.91049882E+01
  0.00000000E+00  9.55249411E+00  9.55249411E+00 -1.91049882E+01  0.00000000E+00
  9.55249411E+00  9.55249411E+00 -1.91049882E+01  0.00000000E+00  9.55249411E+00
  9.55249411E+00 -1.91049882E+01  0.00000000E+00  9.55249411E+00  9.55249411E+00
 -1.91049882E+01  0.00000000E+00  9.55249411E+00  9.55249411E+00 -1.91049882E+01
  0.00000000E+00  9.55249411E+00  9.55249411E+00 -1.91049882E+01  0.00000000E+00
  9.55249411E+00  9.55249411E+00 -1.91049882E+01  0.00000000E+00  9.55249411E+00
  9.55249411E+00 -1.91049882E+01  0.00000000E+00  9.55249411E+00  9.55249411E+00
 -1.91049882E+01  0.00000000E+00  9.55249411E+00  9.55249411E+00 -1.91049882E+01
  0.00000000E+00  9.55249411E+00  9.55249411E+00 -1.91049882E+01  0.00000000E+00
  9.55249411E+00  9.55249411E+00 -1.91049882E+01  0.00000000E+00  9.55249411E+00
  9.55249411E+00 -1.91049882E+01  0.00000000E+00  9.55249411E+00  9.55249411E+00
 -1.91049882E+01  0.00000000E+00  9.55249411E+00  9.55249411E+00 -1.91049882E+01
  0.00000000E+00  9.55249411E+00  9.55249411E+00 -1.91049882E+01  0.00000000E+00
  9.55249411E+00  9.55249411E+00 -1.91049882E+01  0.00000000E+00  9.55249411E+00
  9.55249411E+00 -1.91049882E+01  0.00000000E+00  9.55249411E+00  9.55249411E+00
 -1.91049882E+01  0.00000000E+00  9.55249411E+00  9.55249411E+00 -1.91049882E+01
  0.00000000E+00  9.55249411E+00  9.55249411E+00 -1.91049882E+01  0.00000000E+00
  9.55249411E+00  9.55249411E+00 -1.91049882E+01  0.00000000E+00  9.55249411E+00
  9.55249411E+00 -1.91049882E+01  0.00000000E+00  9.55249411E+00  9.55249411E+00
 -1.91049882E+01  0.00000000E+00  9.55249411E+00  9.55249411E+00 -1.91049882E+01
  0.00000000E+00  9.55249411E+00  9.55249411E+00 -1.91049882E+01  0.00000000E+00
  9.55249411E+00  9.55249411E+00 -1.91049882E+01  0.00000000E+00  9.55249411E+00
  9.55249411E+00 -1.91049882E+01  0.00000000E+00  9.55249411E+00  9.55249411E+00
 -1.91049882E+01  0.00000000E+00  9.55249411E+00  9.55249411E+00 -1.91049882E+01
  0.00000000E+00  9.55249411E+00  9.55249411E+00 -1.91049882E+01  0.00000000E+00
  9.55249411E+00  9.55249411E+00 -1.91049882E+01  0.00000000E+00  9.55249411E+00
  9.55249411E+00 -1.91049882E+01  0.00000000E+00  9.55249411E+00  9.55249411E+00
 -1.91049882E+01  0.00000000E+00  9.55249411E+00  9.55249411E+00 -1.91049882E+01
  0.00000000E+00  9.55249411E+00  9.55249411E+00 -1.91049882E+01  0.00000000E+00
  9.55249411E+00  9.55249411E+00 -1.91049882E+01  0.00000000E+00  9.55249411E+00
  9.55249411E+00 -1.91049882E+01  0.00000000E+00  9.55249411E+00  9.55249411E+00
 -1.91049882E+01  0.00000000E+00  9.55249411E+00  9.55249411E+00 -1.91049882E+01
  0.00000000E+00  9.55249411E+00  9.55249411E+00 -1.91049882E+01  0.00000000E+00
  9.55249411E+00  9.55249411E+00 -1.91049882E+01  0.00000000E+00  9.55249411E+00
  9.55249411E+00 -1.91049882E+01  0.00000000E+00  9.55249411E+00  9.55249411E+00
 -1.91049882E+01  0.00000000E+00  9.55249411E+00  9.55249411E+00 -1.91049882E+01
  0.00000000E+00  9.55249411E+00  9.55249411E+00 -1.91049882E+01  0.00000000E+00
  9.55249411E+00  9.55249411E+00 -1.91049882E+01  0.00000000E+00  9.55249411E+00
  9.55249411E+00 -1.91049882E+01  0.00000000E+00  9.55249411E+00  9.55249411E+00
 -1.91049882E+01  0.00000000E+00  9.55249411E+00  9.55249411E+00 -1.91049882E+01
  0.00000000E+00  9.55249411E+00  9.55249411E+00 -1.91049882E+01  0.00000000E+00
  9.55249411E+00  9.55249411E+00 -1.91049882E+01  0.00000000E+00  9.55249411E+00
  9.55249411E+00 -1.91049882E+01  0.00000000E+00  9.55249411E+00  9.55249411E+00
 -1.91049882E+01  0.00000000E+00  9.55249411E+00  9.55249411E+00 -1.91049882E+01
  0.00000000E+00  9.55249411E+00  9.55249411E+00 -1.91049882E+01  0.00000000E+00
  9.55249411E+00  9.55249411E+00 -1.91049882E+01  0.00000000E+00  9.55249411E+00
  9.55249411E+00 -1.91049882E+01  0.00000000E+00  9.55249411E+00  9.55249411E+00
 -1.91049882E+01  0.00000000E+00  9.55249411E+00  9.55249411E+00 -1.91049882E+01
  0.00000000E+00  9.55249411E+00  9.55249411E+00 -1.91049882E+01  0.00000000E+00
  9.55249411E+00  9.55249411E+00 -1.91049882E+01  0.00000000E+00  9.55249411E+00
  9.55249411E+00 -1.91049882E+01  0.00000000E+00  9.55249411E+00  9.55249411E+00
 -1.91049882E+01  0.00000000E+00  9.55249411E+00  9.55249411E+00 -1.91049882E+01
  0.00000000E+00  9.55249411E+00  9.55249411E+00 -1.91049882E+01  0.00000000E+00
  9.55249411E+00  9.55249411E+00 -1.91049882E+01  0.00000000E+00  9.55249411E+00
  9.55249411E+00 -1.91049882E+01  0.00000000E+00  9.55249411E+00  9.55249411E+00
 -1.91049882E+01  0.00000000E+00  9.55249411E+00  9.55249411E+00 -1.91049882E+01
  0.00000000E+00  9.55249411E+00  9.55249411E+00 -1.91049882E+01  0.00000000E+00
  9.55249411E+00  9.55249411E+00 -1.91049882E+01  0.00000000E+00  9.55249411E+00
  9.55249411E+00 -1.91049882E+01  0.00000000E+00  9.55249411E+00  9.55249411E+00
 -1.91049882E+01  0.00000000E+00  9.55249411E+00  9.55249411E+00 -1.91049882E+01
  0.00000000E+00  9.55249411E+00  9.55249411E+00 -1.91049882E+01  0.00000000E+00
  9.55249411E+00  9.55249411E+00 -1.91049882E+01  0.00000000E+00  9.55249411E+00
  9.55249411E+00 -1.91049882E+01  0.00000000E+00  9.55249411E+00  9.55249411E+00
 -1.91049882E+01  0.00000000E+00  9.55249411E+00  9.55249411E+00 -1.91049882E+01
  0.00000000E+00  9.55249411E+00  9.55249411E+00 -1.91049882E+01  0.00000000E+00
  9.55249411E+00  9.55249411E+00 -1.91049882E+01  0.00000000E+00  9.55249411E+00
  9.55249411E+00 -1.91049882E+01  0.00000000E+00  9.55249411E+00  9.55249411E+00
 -1.91049882E+01  0.00000000E+00  9.55249411E+00  9.55249411E+00 -1.91049882E+01
  0.00000000E+00  9.55249411E+00  9.55249411E+00 -1.91049882E+01  0.00000000E+00
  9.55249411E+00  9.55249411E+00 -1.91049882E+01  0.00000000E+00  9.55249411E+00
  9.55249411E+00 -1.91049882E+01  0.00000000E+00  9.55249411E+00  9.55249411E+00
 -1.91049882E+01  0.00000000E+00  9.55249411E+00  9.55249411E+00 -1.91049882E+01
  0.00000000E+00  9.55249411E+00  9.55249411E+00 -1.91049882E+01  0.00000000E+00
  9.55249411E+00  9.55249411E+00 -1.91049882E+01  0.00000000E+00  9.55249411E+00
  9.55249411E+00 -1.91049882E+01  0.00000000E+00  9.55249411E+00  9.55249411E+00
 -1.91049882E+01  0.00000000E+00  9.55249411E+00  9.55249411E+00 -1.91049882E+01
  0.00000000E+00  9.55249411E+00  9.55249411E+00 -1.91049882E+01  0.00000000E+00
  9.55249411E+00  9.55249411E+00 -1.91049882E+01  0.00000000E+00  9.55249411E+00
  9.55249411E+00 -1.91049882E+01  0.00000000E+00  9.55249411E+00  9.55249411E+00
 -1.91049882E+01  0.00000000E+00  9.55249411E+00  9.55249411E+00 -1.91049882E+01
  0.00000000E+00  9.55249411E+00  9.55249411E+00 -1.91049882E+01  0.00000000E+00
  9.55249411E+00  9.55249411E+00 -1.91049882E+01  0.00000000E+00  9.55249411E+00
  9.55249411E+00 -1.91049882E+01  0.00000000E+00  9.55249411E+00  9.55249411E+00
 -1.91049882E+01  0.00000000E+00  9.55249411E+00  9.55249411E+00 -1.91049882E+01
  0.00000000E+00  9.55249411E+00  9.55249411E+00 -1.91049882E+01  0.00000000E+00
  9.55249411E+00  9.55249411E+00 -1.91049882E+01  0.00000000E+00  9.55249411E+00
  9.55249411E+00 -1.91049882E+01  0.00000000E+00  9.55249411E+00  9.55249411E+00
 -1.91049882E+01  0.00000000E+00  9.55249411E+00  9.55249411E+00 -1.91049882E+01
  0.00000000E+00  9.55249411E+00  9.55249411E+00 -1.91049882E+01  0.00000000E+00
  9.55249411E+00  9.55249411E+00 -1.91049882E+01  0.00000000E+00  9.55249411E+00
  9.55249411E+00 -1.91049882E+01  0.00000000E+00  9.55249411E+00  9.55249411E+00
 -1.91049882E+01  0.00000000E+00  9.55249411E+00  9.55249411E+00 -1.91049882E+01
  0.00000000E+00  9.55249411E+00  9.55249411E+00 -1.91049882E+01  0.00000000E+00
  9.55249411E+00  9.55249411E+00 -1.91049882E+01  0.00000000E+00  9.55249411E+00
  9.55249411E+00 -1.91049882E+01  0.00000000E+00  9.55249411E+00  9.55249411E+00
 -1.91049882E+01  0.00000000E+00  9.55249411E+00  9.55249411E+00 -1.91049882E+01
  0.00000000E+00  9.55249411E+00  9.55249411E+00 -1.91049882E+01  0.00000000E+00
  9.55249411E+00  9.55249411E+00 -1.91049882E+01  0.00000000E+00  9.55249411E+00
  9.55249411E+00 -1.91049882E+01  0.00000000E+00  9.55249411E+00  9.55249411E+00
 -1.91049882E+01  0.00000000E+00  9.55249411E+00  9.55249411E+00 -1.91049882E+01
  0.00000000E+00  9.55249411E+00  9.55249411E+00 -1.91049882E+01  0.00000000E+00
  9.55249411E+00  9.55249411E+00 -1.91049882E+01  0.00000000E+00  9.55249411E+00
  9.55249411E+00 -1.91049882E+01  0.00000000E+00  9.55249411E+00  9.55249411E+00
 -1.91049882E+01  0.00000000E+00  9.55249411E+00  9.55249411E+00 -1.91049882E+01
  0.00000000E+00  9.55249411E+00  9.55249411E+00 -1.91049882E+01  0.00000000E+00
  9.55249411E+00  9.55249411E+00 -1.91049882E+01  0.00000000E+00  9.55249411E+00
  9.55249411E+00 -1.91049882E+01  0.00000000E+00  9.55249411E+00  9.55249411E+00
 -1.91049882E+01  0.00000000E+00  9.55249411E+00  9.55249411E+00 -1.91049882E+01
  0.00000000E+00  9.55249411E+00  9.55249411E+00 -1.91049882E+01  0.00000000E+00
  9.55249411E+00  9.55249411E+00 -1.91049882E+01  0.00000000E+00  9.55249411E+00
  9.55249411E+00 -1.91049882E+01  0.00000000E+00  9.55249411E+00  9.55249411E+00
 -1.91049882E+01  0.00000000E+00  9.55249411E+00  9.55249411E+00 -1.91049882E+01
  0.00000000E+00  9.55249411E+00  9.55249411E+00 -1.91049882E+01  0.00000000E+00
  9.55249411E+00  9.55249411E+00 -1.91049882E+01  0.00000000E+00  9.55249411E+00
  9.55249411E+00 -1.91049882E+01  0.00000000E+00  9.55249411E+00  9.55249411E+00
 -1.91049882E+01  0.00000000E+00  9.55249411E+00  9.55249411E+00 -1.91049882E+01
  0.00000000E+00  9.55249411E+00  9.55249411E+00 -1.91049882E+01  0.00000000E+00
  9.55249411E+00  9.55249411E+00 -1.91049882E+01  0.00000000E+00  9.55249411E+00
  9.55249411E+00 -1.91049882E+01  0.00000000E+00  9.55249411E+00  9.55249411E+00
 -1.91049882E+01  0.00000000E+00  9.55249411E+00  9.55249411E+00 -1.91049882E+01
  0.00000000E+00  9.55249411E+00  9.55249411E+00 -1.91049882E+01  0.00000000E+00
  9.55249411E+00  9.55249411E+00 -1.91049882E+01  0.00000000E+00  9.55249411E+00
  9.55249411E+00 -1.91049882E+01  0.00000000E+00  9.55249411E+00  9.55249411E+00
 -1.91049882E+01  0.00000000E+00  9.55249411E+00  9.55249411E+00 -1.91049882E+01
  0.00000000E+00  9.55249411E+00  9.55249411E+00 -1.91049882E+01  0.00000000E+00
  9.55249411E+00  9.55249411E+00 -1.91049882E+01  0.00000000E+00  9.55249411E+00
  9.55249411E+00 -1.91049882E+01  0.00000000E+00  9.55249411E+00  9.55249411E+00
 -1.91049882E+01  0.00000000E+00  9.55249411E+00  9.55249411E+00 -1.91049882E+01
  0.00000000E+00  9.55249411E+00  9.55249411E+00 -1.91049882E+01  0.00000000E+00
  9.55249411E+00  9.55249411E+00 -1.91049882E+01  0.00000000E+00  9.55249411E+00
  9.55249411E+00 -1.91049882E+01  0.00000000E+00  9.55249411E+00  9.55249411E+00
 -1.91049882E+01  0.00000000E+00  9.55249411E+00  9.55249411E+00 -1.91049882E+01
  0.00000000E+00  9.55249411E+00  9.55249411E+00 -1.91049882E+01  0.00000000E+00
  9.55249411E+00  9.55249411E+00 -1.91049882E+01  0.00000000E+00  9.55249411E+00
  9.55249411E+00 -1.91049882E+01  0.00000000E+00  9.55249411E+00  9.55249411E+00
 -1.91049882E+01  0.00000000E+00  9.55249411E+00  9.55249411E+00 -1.91049882E+01
  0.00000000E+00  9.55249411E+00  9.55249411E+00 -1.91049882E+01  0.00000000E+00
  9.55249411E+00  9.55249411E+00 -1.91049882E+01  0.00000000E+00  9.55249411E+00
  9.55249411E+00 -1.91049882E+01  0.00000000E+00  9.55249411E+00  9.55249411E+00
 -1.91049882E+01  0.00000000E+00  9.55249411E+00  9.55249411E+00 -1.91049882E+01
  0.00000000E+00  9.55249411E+00  9.55249411E+00 -1.91049882E+01  0.00000000E+00
  9.55249411E+00  9.55249411E+00 -1.91049882E+01  0.00000000E+00  9.55249411E+00
  9.55249411E+00 -1.91049882E+01  0.00000000E+00  9.55249411E+00  9.55249411E+00
 -1.91049882E+01  0.00000000E+00  9.55249411E+00  9.55249411E+00 -1.91049882E+01
  0.00000000E+00  9.55249411E+00  9.55249411E+00 -1.91049882E+01  0.00000000E+00
  9.55249411E+00  9.55249411E+00 -1.91049882E+01  0.00000000E+00  9.55249411E+00
  9.55249411E+00 -1.91049882E+01  0.00000000E+00  9.55249411E+00  9.55249411E+00
 -1.91049882E+01  0.00000000E+00  9.55249411E+00  9.55249411E+00 -1.91049882E+01
  0.00000000E+00  9.55249411E+00  9.55249411E+00 -1.91049882E+01  0.00000000E+00
  9.55249411E+00  9.55249411E+00 -1.91049882E+01  0.00000000E+00  9.55249411E+00
  9.55249411E+00 -1.91049882E+01  0.00000000E+00  9.55249411E+00  9.55249411E+00
 -1.91049882E+01  0.00000000E+00  9.55249411E+00  9.55249411E+00 -1.91049882E+01
  0.00000000E+00  9.55249411E+00  9.55249411E+00 -1.91049882E+01  0.00000000E+00
  9.55249411E+00  9.55249411E+00 -1.91049882E+01  0.00000000E+00  9.55249411E+00
  9.55249411E+00 -1.91049882E+01  0.00000000E+00  9.55249411E+00  9.55249411E+00
 -1.91049882E+01  0.00000000E+00  9.55249411E+00  9.55249411E+00 -1.91049882E+01
  0.00000000E+00  9.55249411E+00  9.55249411E+00 -1.91049882E+01  0.00000000E+00
  9.55249411E+00  9.55249411E+00 -1.91049882E+01  0.00000000E+00  9.55249411E+00
  9.55249411E+00 -1.91049882E+01  0.00000000E+00  9.55249411E+00  9.55249411E+00
 -1.91049882E+01  0.00000000E+00  9.55249411E+00  9.55249411E+00 -1.91049882E+01
  0.00000000E+00  9.55249411E+00  9.55249411E+00 -1.91049882E+01  0.00000000E+00
  9.55249411E+00  9.55249411E+00 -1.91049882E+01  0.00000000E+00  9.55249411E+00
  9.55249411E+00 -1.91049882E+01  0.00000000E+00  9.55249411E+00  9.55249411E+00
 -1.91049882E+01  0.00000000E+00  9.55249411E+00  9.55249411E+00 -1.91049882E+01
  0.00000000E+00  9.55249411E+00  9.55249411E+00 -1.91049882E+01  0.00000000E+00
  9.55249411E+00  9.55249411E+00 -1.91049882E+01  0.00000000E+00  9.55249411E+00
  9.55249411E+00 -1.91049882E+01  0.00000000E+00  9.55249411E+00  9.55249411E+00
 -1.91049882E+01  0.00000000E+00  9.55249411E+00  9.55249411E+00 -1.91049882E+01
  0.00000000E+00  9.55249411E+00  9.55249411E+00 -1.91049882E+01  0.00000000E+00
  9.55249411E+00  9.55249411E+00 -1.91049882E+01  0.00000000E+00  9.55249411E+00
  9.55249411E+00 -1.91049882E+01  0.00000000E+00  9.55249411E+00  9.55249411E+00
 -1.91049882E+01  0.00000000E+00  9.55249411E+00  9.55249411E+00 -1.91049882E+01
  0.00000000E+00  9.55249411E+00  9.55249411E+00 -1.91049882E+01  0.00000000E+00
  9.55249411E+00  9.55249411E+00 -1.91049882E+01  0.00000000E+00  9.55249411E+00
  9.55249411E+00 -1.91049882E+01  0.00000000E+00  9.55249411E+00  9.55249411E+00
 -1.91049882E+01  0.00000000E+00  9.55249411E+00  9.55249411E+00 -1.91049882E+01
  0.00000000E+00  9.55249411E+00  9.55249411E+00 -1.91049882E+01  0.00000000E+00
  9.55249411E+00  9.55249411E+00 -1.91049882E+01  0.00000000E+00  9.55249411E+00
  9.55249411E+00 -1.91049882E+01  0.00000000E+00  9.55249411E+00  9.55249411E+00
 -1.91049882E+01  0.00000000E+00  9.55249411E+00  9.55249411E+00 -1.91049882E+01
  0.00000000E+00  9.55249411E+00  9.55249411E+00 -1.91049882E+01  0.00000000E+00
  9.55249411E+00  9.55249411E+00 -1.91049882E+01  0.00000000E+00  9.55249411E+00
  9.55249411E+00 -1.91049882E+01  0.00000000E+00  9.55249411E+00  9.55249411E+00
 -1.91049882E+01  0.00000000E+00  9.55249411E+00  9.55249411E+00 -1.91049882E+01
  0.00000000E+00  9.55249411E+00  9.55249411E+00 -1.91049882E+01  0.00000000E+00
  9.55249411E+00  9.55249411E+00 -1.91049882E+01  0.00000000E+00  9.55249411E+00
  9.55249411E+00 -1.91049882E+01  0.00000000E+00  9.55249411E+00  9.55249411E+00
 -1.91049882E+01  0.00000000E+00  9.55249411E+00  9.55249411E+00 -1.91049882E+01
  0.00000000E+00  9.55249411E+00  9.55249411E+00 -1.91049882E+01  0.00000000E+00
  9.55249411E+00  9.55249411E+00 -1.91049882E+01  0.00000000E+00  9.55249411E+00
  9.55249411E+00 -1.91049882E+01  0.00000000E+00  9.55249411E+00  9.55249411E+00
 -1.91049882E+01  0.00000000E+00  9.55249411E+00  9.55249411E+00 -1.91049882E+01
  0.00000000E+00  9.55249411E+00  9.55249411E+00 -1.91049882E+01  0.00000000E+00
  9.55249411E+00  9.55249411E+00 -1.91049882E+01  0.00000000E+00  9.55249411E+00
  9.55249411E+00 -1.91049882E+01  0.00000000E+00  9.55249411E+00  9.55249411E+00
 -1.91049882E+01  0.00000000E+00  9.55249411E+00  9.55249411E+00 -1.91049882E+01
  0.00000000E+00  9.55249411E+00  9.55249411E+00 -1.91049882E+01  0.00000000E+00
  9.55249411E+00  9.55249411E+00 -1.91049882E+01  0.00000000E+00  9.55249411E+00
  9.55249411E+00 -1.91049882E+01  0.00000000E+00  9.55249411E+00  9.55249411E+00
 -1.91049882E+01  0.00000000E+00  9.55249411E+00  9.55249411E+00 -1.91049882E+01
  0.00000000E+00  9.55249411E+00  9.55249411E+00 -1.91049882E+01  0.00000000E+00
  9.55249411E+00  9.55249411E+00 -1.91049882E+01  0.00000000E+00  9.55249411E+00
  9.55249411E+00 -1.91049882E+01  0.00000000E+00  9.55249411E+00  9.55249411E+00
 -1.91049882E+01  0.00000000E+00  9.55249411E+00  9.55249411E+00 -1.91049882E+01
  0.00000000E+00  9.55249411E+00  9.55249411E+00 -1.91049882E+01  0.00000000E+00
  9.55249411E+00  9.55249411E+00 -1.91049882E+01  0.00000000E+00  9.55249411E+00
  9.55249411E+00 -1.91049882E+01  0.00000000E+00  9.55249411E+00  9.55249411E+00
 -1.91049882E+01  0.00000000E+00  9.55249411E+00  9.55249411E+00 -1.91049882E+01
  0.00000000E+00  9.55249411E+00  9.55249411E+00 -1.91049882E+01  0.00000000E+00
  9.55249411E+00  9.55249411E+00 -1.91049882E+01  0.00000000E+00  9.55249411E+00
  9.55249411E+00 -1.91049882E+01  0.00000000E+00  9.55249411E+00  9.55249411E+00
 -1.91049882E+01  0.00000000E+00  9.55249411E+00  9.55249411E+00 -1.91049882E+01
  0.00000000E+00  9.55249411E+00  9.55249411E+00 -1.91049882E+01  0.00000000E+00
  9.55249411E+00  9.55249411E+00 -1.91049882E+01  0.00000000E+00  9.55249411E+00
  9.55249411E+00 -1.91049882E+01  0.00000000E+00  9.55249411E+00  9.55249411E+00
 -1.91049882E+01  0.00000000E+00  9.55249411E+00  9.55249411E+00 -1.91049882E+01
  0.00000000E+00  9.55249411E+00  9.55249411E+00 -1.91049882E+01  0.00000000E+00
  9.55249411E+00  9.55249411E+00 -1.91049882E+01  0.00000000E+00  9.55249411E+00
  9.55249411E+00 -1.91049882E+01  0.00000000E+00  9.55249411E+00  9.55249411E+00
 -1.91049882E+01  0.00000000E+00  9.55249411E+00  9.55249411E+00 -1.91049882E+01
  0.00000000E+00  9.55249411E+00  9.55249411E+00 -1.91049882E+01  0.00000000E+00
  9.55249411E+00  9.55249411E+00 -1.91049882E+01  0.00000000E+00  9.55249411E+00
  9.55249411E+00 -1.91049882E+01  0.00000000E+00  9.55249411E+00  9.55249411E+00
 -1.91049882E+01  0.00000000E+00  9.55249411E+00  9.55249411E+00 -1.91049882E+01
  0.00000000E+00  9.55249411E+00  9.55249411E+00 -1.91049882E+01  0.00000000E+00
  9.55249411E+00  9.55249411E+00 -1.91049882E+01  0.00000000E+00  9.55249411E+00
  9.55249411E+00 -1.91049882E+01  0.00000000E+00  9.55249411E+00  9.55249411E+00
 -1.91049882E+01  0.00000000E+00  9.55249411E+00  9.55249411E+00 -1.91049882E+01
  0.00000000E+00  9.55249411E+00  9.55249411E+00 -1.91049882E+01  0.00000000E+00
  9.55249411E+00  9.55249411E+00 -1.91049882E+01  0.00000000E+00  9.55249411E+00
  9.55249411E+00 -1.91049882E+01  0.00000000E+00  9.55249411E+00  9.55249411E+00
 -1.91049882E+01  0.00000000E+00  9.55249411E+00  9.55249411E+00 -1.91049882E+01
  0.00000000E+00  9.55249411E+00  9.55249411E+00 -1.91049882E+01  0.00000000E+00
  9.55249411E+00  9.55249411E+00 -1.91049882E+01  0.00000000E+00  9.55249411E+00
  9.55249411E+00 -1.91049882E+01  0.00000000E+00  9.55249411E+00  9.55249411E+00
 -1.91049882E+01  0.00000000E+00  9.55249411E+00  9.55249411E+00 -1.91049882E+01
  0.00000000E+00  9.55249411E+00  9.55249411E+00 -1.91049882E+01  0.00000000E+00
  9.55249411E+00  9.55249411E+00 -1.91049882E+01  0.00000000E+00  9.55249411E+00
  9.55249411E+00 -1.91049882E+01  0.00000000E+00  9.55249411E+00  9.55249411E+00
 -1.91049882E+01  0.00000000E+00  9.55249411E+00  9.55249411E+00 -1.91049882E+01
  0.00000000E+00  9.55249411E+00  9.55249411E+00 -1.91049882E+01  0.00000000E+00
  9.55249411E+00  9.55249411E+00 -1.91049882E+01  0.00000000E+00  9.55249411E+00
  9.55249411E+00 -1.91049882E+01  0.00000000E+00  9.55249411E+00  9.55249411E+00
 -1.91049882E+01  0.00000000E+00  9.55249411E+00  9.55249411E+00 -1.91049882E+01
  0.00000000E+00  9.55249411E+00  9.55249411E+00 -1.91049882E+01  0.00000000E+00
  9.55249411E+00  9.55249411E+00 -1.91049882E+01  0.00000000E+00  9.55249411E+00
  9.55249411E+00 -1.91049882E+01  0.00000000E+00  9.55249411E+00  9.55249411E+00
 -1.91049882E+01  0.00000000E+00  9.55249411E+00  9.55249411E+00 -1.91049882E+01
  0.00000000E+00  9.55249411E+00  9.55249411E+00 -1.91049882E+01  0.00000000E+00
  9.55249411E+00  9.55249411E+00 -1.91049882E+01  0.00000000E+00  9.55249411E+00
  9.55249411E+00 -1.91049882E+01  0.00000000E+00  9.55249411E+00  9.55249411E+00
 -1.91049882E+01  0.00000000E+00  9.55249411E+00  9.55249411E+00 -1.91049882E+01
  0.00000000E+00  9.55249411E+00  9.55249411E+00 -1.91049882E+01  0.00000000E+00
  9.55249411E+00  9.55249411E+00 -1.91049882E+01  0.00000000E+00  9.55249411E+00
  9.55249411E+00 -1.91049882E+01  0.00000000E+00  9.55249411E+00  9.55249411E+00
 -1.91049882E+01  0.00000000E+00  9.55249411E+00  9.55249411E+00 -1.91049882E+01
  0.00000000E+00  9.55249411E+00  9.55249411E+00 -1.91049882E+01  0.00000000E+00
  9.55249411E+00  9.55249411E+00 -1.91049882E+01  0.00000000E+00  9.55249411E+00
  9.55249411E+00 -1.91049882E+01  0.00000000E+00  9.55249411E+00  9.55249411E+00
 -1.91049882E+01  0.00000000E+00  9.55249411E+00  9.55249411E+00 -1.91049882E+01
  0.00000000E+00  9.55249411E+00  9.55249411E+00 -1.91049882E+01  0.00000000E+00
  9.55249411E+00  9.55249411E+00 -1.91049882E+01  0.00000000E+00  9.55249411E+00
  9.55249411E+00 -1.91049882E+01  0.00000000E+00  9.55249411E+00  9.55249411E+00
 -1.91049882E+01  0.00000000E+00  9.55249411E+00  9.55249411E+00 -1.91049882E+01
  0.00000000E+00  9.55249411E+00  9.55249411E+00 -1.91049882E+01  0.00000000E+00
  9.55249411E+00  9.55249411E+00 -1.91049882E+01  0.00000000E+00  9.55249411E+00
  9.55249411E+00 -1.91049882E+01  0.00000000E+00  9.55249411E+00  9.55249411E+00
 -1.91049882E+01  0.00000000E+00  9.55249411E+00  9.55249411E+00 -1.91049882E+01
  0.00000000E+00  9.55249411E+00  9.55249411E+00 -1.91049882E+01  0.00000000E+00
  9.55249411E+00  9.55249411E+00 -1.91049882E+01  0.00000000E+00  9.55249411E+00
  9.55249411E+00 -1.91049882E+01  0.00000000E+00  9.55249411E+00  9.55249411E+00
 -1.91049882E+01  0.00000000E+00  9.55249411E+00  9.55249411E+00 -1.91049882E+01
  0.00000000E+00  9.55249411E+00  9.55249411E+00 -1.91049882E+01  0.00000000E+00
  9.55249411E+00  9.55249411E+00 -1.91049882E+01  0.00000000E+00  9.55249411E+00
  9.55249411E+00 -1.91049882E+01  0.00000000E+00  9.55249411E+00  9.55249411E+00
 -1.91049882E+01  0.00000000E+00  9.55249411E+00  9.55249411E+00 -1.91049882E+01
  0.00000000E+00  9.55249411E+00  9.55249411E+00 -1.91049882E+01  0.00000000E+00
  9.55249411E+00  9.55249411E+00 -1.91049882E+01  0.00000000E+00  9.55249411E+00
  9.55249411E+00 -1.91049882E+01  0.00000000E+00  9.55249411E+00  9.55249411E+00
 -1.91049882E+01  0.00000000E+00  9.55249411E+00  9.55249411E+00 -1.91049882E+01
  0.00000000E+00  9.55249411E+00  9.55249411E+00 -1.91049882E+01  0.00000000E+00
  9.55249411E+00  9.55249411E+00 -1.91049882E+01  0.00000000E+00  9.55249411E+00
  9.55249411E+00 -1.91049882E+01  0.00000000E+00  9.55249411E+00  9.55249411E+00
 -1.91049882E+01  0.00000000E+00  9.55249411E+00  9.55249411E+00 -1.91049882E+01
  0.00000000E+00  9.55249411E+00  9.55249411E+00 -1.91049882E+01  0.00000000E+00
  9.55249411E+00  9.55249411E+00 -1.91049882E+01  0.00000000E+00  9.55249411E+00
  9.55249411E+00 -1.91049882E+01  0.00000000E+00  9.55249411E+00  9.55249411E+00
 -1.91049882E+01  0.00000000E+00  9.55249411E+00  9.55249411E+00 -1.91049882E+01
  0.00000000E+00  9.55249411E+00  9.55249411E+00 -1.91049882E+01  0.00000000E+00
  9.55249411E+00  9.55249411E+00 -1.91049882E+01  0.00000000E+00  9.55249411E+00
  9.55249411E+00 -1.91049882E+01  0.00000000E+00  9.55249411E+00  9.55249411E+00
 -1.91049882E+01  0.00000000E+00  9.55249411E+00  9.55249411E+00 -1.91049882E+01
  0.00000000E+00  9.55249411E+00  9.55249411E+00 -1.91049882E+01  0.00000000E+00
  9.55249411E+00  9.55249411E+00 -1.91049882E+01  0.00000000E+00  9.55249411E+00
  9.55249411E+00 -1.91049882E+01  0.00000000E+00  9.55249411E+00  9.55249411E+00
 -1.91049882E+01  0.00000000E+00  9.55249411E+00  9.55249411E+00 -1.91049882E+01
  0.00000000E+00  9.55249411E+00  9.55249411E+00 -1.91049882E+01  0.00000000E+00
  9.55249411E+00  9.55249411E+00 -1.91049882E+01  0.00000000E+00  9.55249411E+00
  9.55249411E+00 -1.91049882E+01  0.00000000E+00  9.55249411E+00  9.55249411E+00
 -1.91049882E+01  0.00000000E+00  9.55249411E+00  9.55249411E+00 -1.91049882E+01
  0.00000000E+00  9.55249411E+00  9.55249411E+00 -1.91049882E+01  0.00000000E+00
  9.55249411E+00  9.55249411E+00 -1.91049882E+01  0.00000000E+00  9.55249411E+00
  9.55249411E+00 -1.91049882E+01  0.00000000E+00  9.55249411E+00  9.55249411E+00
 -1.91049882E+01  0.00000000E+00  9.55249411E+00  9.55249411E+00 -1.91049882E+01
  0.00000000E+00  9.55249411E+00  9.55249411E+00 -1.91049882E+01  0.00000000E+00
  9.55249411E+00  9.55249411E+00 -1.91049882E+01  0.00000000E+00  9.55249411E+00
  9.55249411E+00 -1.91049882E+01  0.00000000E+00  9.55249411E+00  9.55249411E+00
 -1.91049882E+01  0.00000000E+00  9.55249411E+00  9.55249411E+00 -1.91049882E+01
  0.00000000E+00  9.55249411E+00  9.55249411E+00 -1.91049882E+01  0.00000000E+00
  9.55249411E+00  9.55249411E+00 -1.91049882E+01  0.00000000E+00  9.55249411E+00
  9.55249411E+00 -1.91049882E+01  0.00000000E+00  9.55249411E+00  9.55249411E+00
 -1.91049882E+01  0.00000000E+00  9.55249411E+00  9.55249411E+00 -1.91049882E+01
  0.00000000E+00  9.55249411E+00  9.55249411E+00 -1.91049882E+01  0.00000000E+00
  9.55249411E+00  9.55249411E+00 -1.91049882E+01  0.00000000E+00  9.55249411E+00
  9.55249411E+00 -1.91049882E+01  0.00000000E+00  9.55249411E+00  9.55249411E+00
 -1.91049882E+01  0.00000000E+00  9.55249411E+00  9.55249411E+00 -1.91049882E+01
  0.00000000E+00  9.55249411E+00  9.55249411E+00 -1.91049882E+01  0.00000000E+00
  9.55249411E+00  9.55249411E+00 -1.91049882E+01  0.00000000E+00  9.55249411E+00
  9.55249411E+00 -1.91049882E+01  0.00000000E+00  9.55249411E+00  9.55249411E+00
 -1.91049882E+01  0.00000000E+00  9.55249411E+00  9.55249411E+00 -1.91049882E+01
  0.00000000E+00  9.55249411E+00  9.55249411E+00 -1.91049882E+01  0.00000000E+00
  9.55249411E+00  9.55249411E+00 -1.91049882E+01  0.00000000E+00  9.55249411E+00
  9.55249411E+00 -1.91049882E+01  0.00000000E+00  9.55249411E+00  9.55249411E+00
 -1.91049882E+01  0.00000000E+00  9.55249411E+00  9.55249411E+00 -1.91049882E+01
  0.00000000E+00  9.55249411E+00  9.55249411E+00 -1.91049882E+01  0.00000000E+00
  9.55249411E+00  9.55249411E+00 -1.91049882E+01  0.00000000E+00  9.55249411E+00
  9.55249411E+00 -1.91049882E+01  0.00000000E+00  9.55249411E+00  9.55249411E+00
 -1.91049882E+01  0.00000000E+00  9.55249411E+00  9.55249411E+00 -1.91049882E+01
  0.00000000E+00  9.55249411E+00  9.55249411E+00 -1.91049882E+01  0.00000000E+00
  9.55249411E+00  9.55249411E+00 -1.91049882E+01  0.00000000E+00  9.55249411E+00
  9.55249411E+00 -1.91049882E+01  0.00000000E+00  9.55249411E+00  9.55249411E+00
 -1.91049882E+01  0.00000000E+00  9.55249411E+00  9.55249411E+00 -1.91049882E+01
  0.00000000E+00  9.55249411E+00  9.55249411E+00 -1.91049882E+01  0.00000000E+00
  9.55249411E+00  9.55249411E+00 -1.91049882E+01  0.00000000E+00  9.55249411E+00
  9.55249411E+00 -1.91049882E+01  0.00000000E+00  9.55249411E+00  9.55249411E+00
 -1.91049882E+01  0.00000000E+00  9.55249411E+00  9.55249411E+00 -1.91049882E+01
  0.00000000E+00  9.55249411E+00  9.55249411E+00 -1.91049882E+01  0.00000000E+00
  9.55249411E+00  9.55249411E+00 -1.91049882E+01  0.00000000E+00  9.55249411E+00
  9.55249411E+00 -1.91049882E+01  0.00000000E+00  9.55249411E+00  9.55249411E+00
 -1.91049882E+01  0.00000000E+00  9.55249411E+00  9.55249411E+00 -1.91049882E+01
  0.00000000E+00  9.55249411E+00  9.55249411E+00 -1.91049882E+01  0.00000000E+00
  9.55249411E+00  9.55249411E+00 -1.91049882E+01  0.00000000E+00  9.55249411E+00
  9.55249411E+00 -1.91049882E+01  0.00000000E+00  9.55249411E+00  9.55249411E+00
 -1.91049882E+01  0.00000000E+00  9.55249411E+00  9.55249411E+00 -1.91049882E+01
  0.00000000E+00  9.55249411E+00  9.55249411E+00 -1.91049882E+01  0.00000000E+00
  9.55249411E+00  9.55249411E+00 -1.91049882E+01  0.00000000E+00  9.55249411E+00
  9.55249411E+00 -1.91049882E+01  0.00000000E+00  9.55249411E+00  9.55249411E+00
 -1.91049882E+01  0.00000000E+00  9.55249411E+00  9.55249411E+00 -1.91049882E+01
  0.00000000E+00  9.55249411E+00  9.55249411E+00 -1.91049882E+01  0.00000000E+00
  9.55249411E+00  9.55249411E+00 -1.91049882E+01  0.00000000E+00  9.55249411E+00
  9.55249411E+00 -1.91049882E+01  0.00000000E+00  9.55249411E+00  9.55249411E+00
 -1.91049882E+01  0.00000000E+00  9.55249411E+00  9.55249411E+00 -1.91049882E+01
  0.00000000E+00  9.55249411E+00  9.55249411E+00 -1.91049882E+01  0.00000000E+00
  9.55249411E+00  9.55249411E+00 -1.91049882E+01  0.00000000E+00  9.55249411E+00
  9.55249411E+00 -1.91049882E+01  0.00000000E+00  9.55249411E+00  9.55249411E+00
 -1.91049882E+01  0.00000000E+00  9.55249411E+00  9.55249411E+00 -1.91049882E+01
  0.00000000E+00  9.55249411E+00  9.55249411E+00 -1.91049882E+01  0.00000000E+00
  9.55249411E+00  9.55249411E+00 -1.91049882E+01  0.00000000E+00  9.55249411E+00
  9.55249411E+00 -1.91049882E+01  0.00000000E+00  9.55249411E+00  9.55249411E+00
 -1.91049882E+01  0.00000000E+00  9.55249411E+00  9.55249411E+00 -1.91049882E+01
  0.00000000E+00  9.55249411E+00  9.55249411E+00 -1.91049882E+01  0.00000000E+00
  9.55249411E+00  9.55249411E+00 -1.91049882E+01  0.00000000E+00  9.55249411E+00
  9.55249411E+00 -1.91049882E+01  0.00000000E+00  9.55249411E+00  9.55249411E+00
 -1.91049882E+01  0.00000000E+00  9.55249411E+00  9.55249411E+00 -1.91049882E+01
  0.00000000E+00  9.55249411E+00  9.55249411E+00 -1.91049882E+01  0.00000000E+00
  9.55249411E+00  9.55249411E+00 -1.91049882E+01  0.00000000E+00  9.55249411E+00
  9.55249411E+00 -1.91049882E+01  0.00000000E+00  9.55249411E+00  9.55249411E+00
 -1.91049882E+01  0.00000000E+00  9.55249411E+00  9.55249411E+00 -1.91049882E+01
  0.00000000E+00  9.55249411E+00  9.55249411E+00 -1.91049882E+01  0.00000000E+00
  9.55249411E+00  9.55249411E+00 -1.91049882E+01  0.00000000E+00  9.55249411E+00
  9.55249411E+00 -1.91049882E+01  0.00000000E+00  9.55249411E+00  9.55249411E+00
 -1.91049882E+01  0.00000000E+00  9.55249411E+00  9.55249411E+00 -1.91049882E+01
  0.00000000E+00  9.55249411E+00  9.55249411E+00 -1.91049882E+01  0.00000000E+00
  9.55249411E+00  9.55249411E+00 -1.91049882E+01  0.00000000E+00  9.55249411E+00
  9.55249411E+00 -1.91049882E+01  0.00000000E+00  9.55249411E+00  9.55249411E+00
 -1.91049882E+01  0.00000000E+00  9.55249411E+00  9.55249411E+00 -1.91049882E+01
  0.00000000E+00  9.55249411E+00  9.55249411E+00 -1.91049882E+01  0.00000000E+00
  9.55249411E+00  9.55249411E+00 -1.91049882E+01  0.00000000E+00  9.55249411E+00
  9.55249411E+00 -1.91049882E+01  0.00000000E+00  9.55249411E+00  9.55249411E+00
 -1.91049882E+01  0.00000000E+00  9.55249411E+00  9.55249411E+00 -1.91049882E+01
  0.00000000E+00  9.55249411E+00  9.55249411E+00 -1.91049882E+01  0.00000000E+00
  9.55249411E+00  9.55249411E+00 -1.91049882E+01  0.00000000E+00  9.55249411E+00
  9.55249411E+00 -1.91049882E+01  0.00000000E+00  9.55249411E+00  9.55249411E+00
 -1.91049882E+01  0.00000000E+00  9.55249411E+00  9.55249411E+00 -1.91049882E+01
  0.00000000E+00  9.55249411E+00  9.55249411E+00 -1.91049882E+01  0.00000000E+00
  9.55249411E+00  9.55249411E+00 -1.91049882E+01  0.00000000E+00  9.55249411E+00
  9.55249411E+00 -1.91049882E+01  0.00000000E+00  9.55249411E+00  9.55249411E+00
 -1.91049882E+01  0.00000000E+00  9.55249411E+00  9.55249411E+00 -1.91049882E+01
  0.00000000E+00  9.55249411E+00  9.55249411E+00 -1.91049882E+01  0.00000000E+00
  9.55249411E+00  9.55249411E+00 -1.91049882E+01  0.00000000E+00  9.55249411E+00
  9.55249411E+00 -1.91049882E+01  0.00000000E+00  9.55249411E+00  9.55249411E+00
 -1.91049882E+01  0.00000000E+00  9.55249411E+00  9.55249411E+00 -1.91049882E+01
  0.00000000E+00  9.55249411E+00  9.55249411E+00 -1.91049882E+01  0.00000000E+00
  9.55249411E+00  9.55249411E+00 -1.91049882E+01  0.00000000E+00  9.55249411E+00
  9.55249411E+00 -1.91049882E+01  0.00000000E+00  9.55249411E+00  9.55249411E+00
 -1.91049882E+01  0.00000000E+00  9.55249411E+00  9.55249411E+00 -1.91049882E+01
  0.00000000E+00  9.55249411E+00  9.55249411E+00 -1.91049882E+01  0.00000000E+00
  9.55249411E+00  9.55249411E+00 -1.91049882E+01  0.00000000E+00  9.55249411E+00
  9.55249411E+00 -1.91049882E+01  0.00000000E+00  9.55249411E+00  9.55249411E+00
 -1.91049882E+01  0.00000000E+00  9.55249411E+00  9.55249411E+00 -1.91049882E+01
  0.00000000E+00  9.55249411E+00  9.55249411E+00 -1.91049882E+01  0.00000000E+00
  9.55249411E+00  9.55249411E+00 -1.91049882E+01  0.00000000E+00  9.55249411E+00
  9.55249411E+00 -1.91049882E+01  0.00000000E+00  9.55249411E+00  9.55249411E+00
 -1.91049882E+01  0.00000000E+00  9.55249411E+00  9.55249411E+00 -1.91049882E+01
  0.00000000E+00  9.55249411E+00  9.55249411E+00 -1.91049882E+01  0.00000000E+00
  9.55249411E+00  9.55249411E+00 -1.91049882E+01  0.00000000E+00  9.55249411E+00
  9.55249411E+00 -1.91049882E+01  0.00000000E+00  9.55249411E+00  9.55249411E+00
 -1.91049882E+01  0.00000000E+00  9.55249411E+00  9.55249411E+00 -1.91049882E+01
  0.00000000E+00  9.55249411E+00  9.55249411E+00 -1.91049882E+01  0.00000000E+00
  9.55249411E+00  9.55249411E+00 -1.91049882E+01  0.00000000E+00  9.55249411E+00
  9.55249411E+00 -1.91049882E+01  0.00000000E+00  9.55249411E+00  9.55249411E+00
 -1.91049882E+01  0.00000000E+00  9.55249411E+00  9.55249411E+00 -1.91049882E+01
  0.00000000E+00  9.55249411E+00  9.55249411E+00 -1.91049882E+01  0.00000000E+00
  9.55249411E+00  9.55249411E+00 -1.91049882E+01  0.00000000E+00  9.55249411E+00
  9.55249411E+00 -1.91049882E+01  0.00000000E+00  9.55249411E+00  9.55249411E+00
 -1.91049882E+01  0.00000000E+00  9.55249411E+00  9.55249411E+00 -1.91049882E+01
  0.00000000E+00  9.55249411E+00  9.55249411E+00 -1.91049882E+01  0.00000000E+00
  9.55249411E+00  9.55249411E+00 -1.91049882E+01  0.00000000E+00  9.55249411E+00
  9.55249411E+00 -1.91049882E+01  0.00000000E+00  9.55249411E+00  9.55249411E+00
 -1.91049882E+01  0.00000000E+00  9.55249411E+00  9.55249411E+00 -1.91049882E+01
  0.00000000E+00  9.55249411E+00  9.55249411E+00 -1.91049882E+01  0.00000000E+00
  9.55249411E+00  9.55249411E+00 -1.91049882E+01  0.00000000E+00  9.55249411E+00
  9.55249411E+00 -1.91049882E+01  0.00000000E+00  9.55249411E+00  9.55249411E+00
 -1.91049882E+01  0.00000000E+00  9.55249411E+00  9.55249411E+00 -1.91049882E+01
  0.00000000E+00  9.55249411E+00  9.55249411E+00 -1.91049882E+01  0.00000000E+00
  9.55249411E+00  9.55249411E+00 -1.91049882E+01  0.00000000E+00  9.55249411E+00
  9.55249411E+00 -1.91049882E+01  0.00000000E+00  9.55249411E+00  9.55249411E+00
 -1.91049882E+01  0.00000000E+00  9.55249411E+00  9.55249411E+00 -1.91049882E+01
  0.00000000E+00  9.55249411E+00  9.55249411E+00 -1.91049882E+01  0.00000000E+00
  9.55249411E+00  9.55249411E+00 -1.91049882E+01  0.00000000E+00  9.55249411E+00
  9.55249411E+00 -1.91049882E+01  0.00000000E+00  9.55249411E+00  9.55249411E+00
 -1.91049882E+01  0.00000000E+00  9.55249411E+00  9.55249411E+00 -1.91049882E+01
  0.00000000E+00  9.55249411E+00  9.55249411E+00 -1.91049882E+01  0.00000000E+00
  9.55249411E+00  9.55249411E+00 -1.91049882E+01  0.00000000E+00  9.55249411E+00
  9.55249411E+00 -1.91049882E+01  0.00000000E+00  9.55249411E+00  9.55249411E+00
 -1.91049882E+01  0.00000000E+00  9.55249411E+00  9.55249411E+00 -1.91049882E+01
  0.00000000E+00  9.55249411E+00  9.55249411E+00 -1.91049882E+01  0.00000000E+00
  9.55249411E+00  9.55249411E+00 -1.91049882E+01  0.00000000E+00  9.55249411E+00
  9.55249411E+00 -1.91049882E+01  0.00000000E+00  9.55249411E+00  9.55249411E+00
 -1.91049882E+01  0.00000000E+00  9.55249411E+00  9.55249411E+00 -1.91049882E+01
  0.00000000E+00  9.55249411E+00  9.55249411E+00 -1.91049882E+01  0.00000000E+00
  9.55249411E+00  9.55249411E+00 -1.91049882E+01  0.00000000E+00  9.55249411E+00
  9.55249411E+00 -1.91049882E+01  0.00000000E+00  9.55249411E+00  9.55249411E+00
 -1.91049882E+01  0.00000000E+00  9.55249411E+00  9.55249411E+00 -1.91049882E+01
  0.00000000E+00  9.55249411E+00  9.55249411E+00 -1.91049882E+01  0.00000000E+00
  9.55249411E+00  9.55249411E+00 -1.91049882E+01  0.00000000E+00  9.55249411E+00
  9.55249411E+00 -1.91049882E+01  0.00000000E+00  9.55249411E+00  9.55249411E+00
 -1.91049882E+01  0.00000000E+00  9.55249411E+00  9.55249411E+00 -1.91049882E+01
  0.00000000E+00  9.55249411E+00  9.55249411E+00 -1.91049882E+01  0.00000000E+00
  9.55249411E+00  9.55249411E+00 -1.91049882E+01  0.00000000E+00  9.55249411E+00
  9.55249411E+00 -1.91049882E+01  0.00000000E+00  9.55249411E+00  9.55249411E+00
 -1.91049882E+01  0.00000000E+00  9.55249411E+00  9.55249411E+00 -1.91049882E+01
  0.00000000E+00  9.55249411E+00  9.55249411E+00 -1.91049882E+01  0.00000000E+00
  9.55249411E+00  9.55249411E+00 -1.91049882E+01  0.00000000E+00  9.55249411E+00
  9.55249411E+00 -1.91049882E+01  0.00000000E+00  9.55249411E+00  9.55249411E+00
 -1.91049882E+01  0.00000000E+00  9.55249411E+00  9.55249411E+00 -1.91049882E+01
  0.00000000E+00  9.55249411E+00  9.55249411E+00 -1.91049882E+01  0.00000000E+00
  9.55249411E+00  9.55249411E+00 -1.91049882E+01  0.00000000E+00  9.55249411E+00
  9.55249411E+00 -1.91049882E+01  0.00000000E+00  9.55249411E+00  9.55249411E+00
 -1.91049882E+01  0.00000000E+00  9.55249411E+00  9.55249411E+00 -1.91049882E+01
  0.00000000E+00  9.55249411E+00  9.55249411E+00 -1.91049882E+01  0.00000000E+00
  9.55249411E+00  9.55249411E+00 -1.91049882E+01  0.00000000E+00  9.55249411E+00
  9.55249411E+00 -1.91049882E+01  0.00000000E+00  9.55249411E+00  9.55249411E+00
 -1.91049882E+01  0.00000000E+00  9.55249411E+00  9.55249411E+00 -1.91049882E+01
  0.00000000E+00  9.55249411E+00  9.55249411E+00 -1.91049882E+01  0.00000000E+00
  9.55249411E+00  9.55249411E+00 -1.91049882E+01  0.00000000E+00  9.55249411E+00
  9.55249411E+00 -1.91049882E+01  0.00000000E+00  9.55249411E+00  9.55249411E+00
 -1.91049882E+01  0.00000000E+00  9.55249411E+00  9.55249411E+00 -1.91049882E+01
  0.00000000E+00  9.55249411E+00  9.55249411E+00 -1.91049882E+01  0.00000000E+00
  9.55249411E+00  9.55249411E+00 -1.91049882E+01  0.00000000E+00  9.55249411E+00
  9.55249411E+00 -1.91049882E+01  0.00000000E+00  9.55249411E+00  9.55249411E+00
 -1.91049882E+01  0.00000000E+00  9.55249411E+00  9.55249411E+00 -1.91049882E+01
  0.00000000E+00  9.55249411E+00  9.55249411E+00 -1.91049882E+01  0.00000000E+00
  9.55249411E+00  9.55249411E+00 -1.91049882E+01  0.00000000E+00  9.55249411E+00
  9.55249411E+00 -1.91049882E+01  0.00000000E+00  9.55249411E+00  9.55249411E+00
 -1.91049882E+01  0.00000000E+00  9.55249411E+00  9.55249411E+00 -1.91049882E+01
  0.00000000E+00  9.55249411E+00  9.55249411E+00 -1.91049882E+01  0.00000000E+00
  9.55249411E+00  9.55249411E+00 -1.91049882E+01  0.00000000E+00  9.55249411E+00
  9.55249411E+00 -1.91049882E+01  0.00000000E+00  9.55249411E+00  9.55249411E+00
 -1.91049882E+01  0.00000000E+00  9.55249411E+00  9.55249411E+00 -1.91049882E+01
  0.00000000E+00  9.55249411E+00  9.55249411E+00 -1.91049882E+01  0.00000000E+00
  9.55249411E+00  9.55249411E+00 -1.91049882E+01  0.00000000E+00  9.55249411E+00
  9.55249411E+00 -1.91049882E+01  0.00000000E+00  9.55249411E+00  9.55249411E+00
 -1.91049882E+01  0.00000000E+00  9.55249411E+00  9.55249411E+00 -1.91049882E+01
  0.00000000E+00  9.55249411E+00  9.55249411E+00 -1.91049882E+01  0.00000000E+00
  9.55249411E+00  9.55249411E+00 -1.91049882E+01  0.00000000E+00  9.55249411E+00
  9.55249411E+00 -1.91049882E+01  0.00000000E+00  9.55249411E+00  9.55249411E+00
 -1.91049882E+01  0.00000000E+00  9.55249411E+00  9.55249411E+00 -1.91049882E+01
  0.00000000E+00  9.55249411E+00  9.55249411E+00 -1.91049882E+01  0.00000000E+00
  9.55249411E+00  9.55249411E+00 -1.91049882E+01  0.00000000E+00  9.55249411E+00
  9.55249411E+00 -1.91049882E+01  0.00000000E+00  9.55249411E+00  9.55249411E+00
 -1.91049882E+01  0.00000000E+00  9.55249411E+00  9.55249411E+00 -1.91049882E+01
  0.00000000E+00  9.55249411E+00  9.55249411E+00 -1.91049882E+01  0.00000000E+00
  9.55249411E+00  9.55249411E+00 -1.91049882E+01  0.00000000E+00  9.55249411E+00
  9.55249411E+00 -1.91049882E+01  0.00000000E+00  9.55249411E+00  9.55249411E+00
 -1.91049882E+01  0.00000000E+00  9.55249411E+00  9.55249411E+00 -1.91049882E+01
  0.00000000E+00  9.55249411E+00  9.55249411E+00 -1.91049882E+01  0.00000000E+00
  9.55249411E+00  9.55249411E+00 -1.91049882E+01  0.00000000E+00  9.55249411E+00
  9.55249411E+00 -1.91049882E+01  0.00000000E+00  9.55249411E+00  9.55249411E+00
 -1.91049882E+01  0.00000000E+00  9.55249411E+00  9.55249411E+00 -1.91049882E+01
  0.00000000E+00  9.55249411E+00  9.55249411E+00 -1.91049882E+01  0.00000000E+00
  9.55249411E+00  9.55249411E+00 -1.91049882E+01  0.00000000E+00  9.55249411E+00
  9.55249411E+00 -1.91049882E+01  0.00000000E+00  9.55249411E+00  9.55249411E+00
 -1.91049882E+01  0.00000000E+00  9.55249411E+00  9.55249411E+00 -1.91049882E+01
  0.00000000E+00  9.55249411E+00  9.55249411E+00 -1.91049882E+01  0.00000000E+00
  9.55249411E+00  9.55249411E+00 -1.91049882E+01  0.00000000E+00  9.55249411E+00
  9.55249411E+00 -1.91049882E+01  0.00000000E+00  9.55249411E+00  9.55249411E+00
 -1.91049882E+01  0.00000000E+00  9.55249411E+00  9.55249411E+00 -1.91049882E+01
  0.00000000E+00  9.55249411E+00  9.55249411E+00 -1.91049882E+01  0.00000000E+00
  9.55249411E+00  9.55249411E+00 -1.91049882E+01  0.00000000E+00  9.55249411E+00
  9.55249411E+00 -1.91049882E+01  0.00000000E+00  9.55249411E+00  9.55249411E+00
 -1.91049882E+01  0.00000000E+00  9.55249411E+00  9.55249411E+00 -1.91049882E+01
  0.00000000E+00  9.55249411E+00  9.55249411E+00 -1.91049882E+01  0.00000000E+00
  9.55249411E+00  9.55249411E+00 -1.91049882E+01  0.00000000E+00  9.55249411E+00
  9.55249411E+00 -1.91049882E+01  0.00000000E+00  9.55249411E+00  9.55249411E+00
 -1.91049882E+01  0.00000000E+00  9.55249411E+00  9.55249411E+00 -1.91049882E+01
  0.00000000E+00  9.55249411E+00  9.55249411E+00 -1.91049882E+01  0.00000000E+00
  9.55249411E+00  9.55249411E+00 -1.91049882E+01  0.00000000E+00  9.55249411E+00
  9.55249411E+00 -1.91049882E+01  0.00000000E+00  9.55249411E+00  9.55249411E+00
 -1.91049882E+01  0.00000000E+00  9.55249411E+00  9.55249411E+00 -1.91049882E+01
  0.00000000E+00  9.55249411E+00  9.55249411E+00 -1.91049882E+01  0.00000000E+00
  9.55249411E+00  9.55249411E+00 -1.91049882E+01  0.00000000E+00  9.55249411E+00
  9.55249411E+00 -1.91049882E+01  0.00000000E+00  9.55249411E+00  9.55249411E+00
 -1.91049882E+01  0.00000000E+00  9.55249411E+00  9.55249411E+00 -1.91049882E+01
  0.00000000E+00  9.55249411E+00  9.55249411E+00 -1.91049882E+01  0.00000000E+00
  9.55249411E+00  9.55249411E+00 -1.91049882E+01  0.00000000E+00  9.55249411E+00
  9.55249411E+00 -1.91049882E+01  0.00000000E+00  9.55249411E+00  9.55249411E+00
 -1.91049882E+01  0.00000000E+00  9.55249411E+00  9.55249411E+00 -1.91049882E+01
  0.00000000E+00  9.55249411E+00  9.55249411E+00 -1.91049882E+01  0.00000000E+00
  9.55249411E+00  9.55249411E+00 -1.91049882E+01  0.00000000E+00  9.55249411E+00
  9.55249411E+00 -1.91049882E+01  0.00000000E+00  9.55249411E+00  9.55249411E+00
 -1.91049882E+01  0.00000000E+00  9.55249411E+00  9.55249411E+00 -1.91049882E+01
  0.00000000E+00  9.55249411E+00  9.55249411E+00 -1.91049882E+01  0.00000000E+00
  9.55249411E+00  9.55249411E+00 -1.91049882E+01  0.00000000E+00  9.55249411E+00
  9.55249411E+00 -1.91049882E+01  0.00000000E+00  9.55249411E+00  9.55249411E+00
 -1.91049882E+01  0.00000000E+00  9.55249411E+00  9.55249411E+00 -1.91049882E+01
  0.00000000E+00  9.55249411E+00  9.55249411E+00 -1.91049882E+01  0.00000000E+00
  9.55249411E+00  9.55249411E+00 -1.91049882E+01  0.00000000E+00  9.55249411E+00
  9.55249411E+00 -1.91049882E+01  0.00000000E+00  9.55249411E+00  9.55249411E+00
 -1.91049882E+01  0.00000000E+00  9.55249411E+00  9.55249411E+00 -1.91049882E+01
  0.00000000E+00  9.55249411E+00  9.55249411E+00 -1.91049882E+01  0.00000000E+00
  9.55249411E+00  9.55249411E+00 -1.91049882E+01  0.00000000E+00  9.55249411E+00
  9.55249411E+00 -1.91049882E+01  0.00000000E+00  9.55249411E+00  9.55249411E+00
 -1.91049882E+01  0.00000000E+00  9.55249411E+00  9.55249411E+00 -1.91049882E+01
  0.00000000E+00  9.55249411E+00  9.55249411E+00 -1.91049882E+01  0.00000000E+00
  9.55249411E+00  9.55249411E+00 -1.91049882E+01  0.00000000E+00  9.55249411E+00
  9.55249411E+00 -1.91049882E+01  0.00000000E+00  9.55249411E+00  9.55249411E+00
 -1.91049882E+01  0.00000000E+00  9.55249411E+00  9.55249411E+00 -1.91049882E+01
  0.00000000E+00  9.55249411E+00  9.55249411E+00 -1.91049882E+01  0.00000000E+00
  9.55249411E+00  9.55249411E+00 -1.91049882E+01  0.00000000E+00  9.55249411E+00
  9.55249411E+00 -1.91049882E+01  0.00000000E+00  9.55249411E+00  9.55249411E+00
 -1.91049882E+01  0.00000000E+00  9.55249411E+00  9.55249411E+00 -1.91049882E+01
  0.00000000E+00  9.55249411E+00  9.55249411E+00 -1.91049882E+01  0.00000000E+00
  9.55249411E+00  9.55249411E+00 -1.91049882E+01  0.00000000E+00  9.55249411E+00
  9.55249411E+00 -1.91049882E+01  0.00000000E+00  9.55249411E+00  9.55249411E+00
 -1.91049882E+01  0.00000000E+00  9.55249411E+00  9.55249411E+00 -1.91049882E+01
  0.00000000E+00  9.55249411E+00  9.55249411E+00 -1.91049882E+01  0.00000000E+00
  9.55249411E+00  9.55249411E+00 -1.91049882E+01  0.00000000E+00  9.55249411E+00
  9.55249411E+00 -1.91049882E+01  0.00000000E+00  9.55249411E+00  9.55249411E+00
 -1.91049882E+01  0.00000000E+00  9.55249411E+00  9.55249411E+00 -1.91049882E+01
  0.00000000E+00  9.55249411E+00  9.55249411E+00 -1.91049882E+01  0.00000000E+00
  9.55249411E+00  9.55249411E+00 -1.91049882E+01  0.00000000E+00  9.55249411E+00
  9.55249411E+00 -1.91049882E+01  0.00000000E+00  9.55249411E+00  9.55249411E+00
 -1.91049882E+01  0.00000000E+00  9.55249411E+00  9.55249411E+00 -1.91049882E+01
  0.00000000E+00  9.55249411E+00  9.55249411E+00 -1.91049882E+01  0.00000000E+00
  9.55249411E+00  9.55249411E+00 -1.91049882E+01  0.00000000E+00  9.55249411E+00
  9.55249411E+00 -1.91049882E+01  0.00000000E+00  9.55249411E+00  9.55249411E+00
 -1.91049882E+01  0.00000000E+00  9.55249411E+00  9.55249411E+00 -1.91049882E+01
  0.00000000E+00  9.55249411E+00  9.55249411E+00 -1.91049882E+01  0.00000000E+00
  9.55249411E+00  9.55249411E+00 -1.91049882E+01  0.00000000E+00  9.55249411E+00
  9.55249411E+00 -1.91049882E+01  0.00000000E+00  9.55249411E+00  9.55249411E+00
 -1.91049882E+01  0.00000000E+00  9.55249411E+00  9.55249411E+00 -1.91049882E+01
  0.00000000E+00  9.55249411E+00  9.55249411E+00 -1.91049882E+01  0.00000000E+00
  9.55249411E+00  9.55249411E+00 -1.91049882E+01  0.00000000E+00  9.55249411E+00
  9.55249411E+00 -1.91049882E+01  0.00000000E+00  9.55249411E+00  9.55249411E+00
 -1.91049882E+01  0.00000000E+00  9.55249411E+00  9.55249411E+00 -1.91049882E+01
  0.00000000E+00  9.55249411E+00  9.55249411E+00 -1.91049882E+01  0.00000000E+00
  9.55249411E+00  9.55249411E+00 -1.91049882E+01  0.00000000E+00  9.55249411E+00
  9.55249411E+00 -1.91049882E+01  0.00000000E+00  9.55249411E+00  9.55249411E+00
 -1.91049882E+01  0.00000000E+00  9.55249411E+00  9.55249411E+00 -1.91049882E+01
  0.00000000E+00  9.55249411E+00  9.55249411E+00 -1.91049882E+01  0.00000000E+00
  9.55249411E+00  9.55249411E+00 -1.91049882E+01  0.00000000E+00  9.55249411E+00
  9.55249411E+00 -1.91049882E+01  0.00000000E+00  9.55249411E+00  9.55249411E+00
 -1.91049882E+01  0.00000000E+00  9.55249411E+00  9.55249411E+00 -1.91049882E+01
  0.00000000E+00  9.55249411E+00  9.55249411E+00 -1.91049882E+01  0.00000000E+00
  9.55249411E+00  9.55249411E+00 -1.91049882E+01  0.00000000E+00  9.55249411E+00
  9.55249411E+00 -1.91049882E+01  0.00000000E+00  9.55249411E+00  9.55249411E+00
 -1.91049882E+01  0.00000000E+00  9.55249411E+00  9.55249411E+00 -1.91049882E+01
  0.00000000E+00  9.55249411E+00  9.55249411E+00 -1.91049882E+01  0.00000000E+00
  9.55249411E+00  9.55249411E+00 -1.91049882E+01  0.00000000E+00  9.55249411E+00
  9.55249411E+00 -1.91049882E+01  0.00000000E+00  9.55249411E+00  9.55249411E+00
 -1.91049882E+01  0.00000000E+00  9.55249411E+00  9.55249411E+00 -1.91049882E+01
  0.00000000E+00  9.55249411E+00  9.55249411E+00 -1.91049882E+01  0.00000000E+00
  9.55249411E+00  9.55249411E+00 -1.91049882E+01  0.00000000E+00  9.55249411E+00
  9.55249411E+00 -1.91049882E+01  0.00000000E+00  9.55249411E+00  9.55249411E+00
 -1.91049882E+01  0.00000000E+00  9.55249411E+00  9.55249411E+00 -1.91049882E+01
  0.00000000E+00  9.55249411E+00  9.55249411E+00 -1.91049882E+01  0.00000000E+00
  9.55249411E+00  9.55249411E+00 -1.91049882E+01  0.00000000E+00  9.55249411E+00
  9.55249411E+00 -1.91049882E+01  0.00000000E+00  9.55249411E+00  9.55249411E+00
 -1.91049882E+01  0.00000000E+00  9.55249411E+00  9.55249411E+00 -1.91049882E+01
  0.00000000E+00  9.55249411E+00  9.55249411E+00 -1.91049882E+01  0.00000000E+00
  9.55249411E+00  9.55249411E+00 -1.91049882E+01  0.00000000E+00  9.55249411E+00
  9.55249411E+00 -1.91049882E+01  0.00000000E+00  9.55249411E+00  9.55249411E+00
 -1.91049882E+01  0.00000000E+00  9.55249411E+00  9.55249411E+00 -1.91049882E+01
  0.00000000E+00  9.55249411E+00  9.55249411E+00 -1.91049882E+01  0.00000000E+00
  9.55249411E+00  9.55249411E+00 -1.91049882E+01  0.00000000E+00  9.55249411E+00
  9.55249411E+00 -1.91049882E+01  0.00000000E+00  9.55249411E+00  9.55249411E+00
 -1.91049882E+01  0.00000000E+00  9.55249411E+00  9.55249411E+00 -1.91049882E+01
  0.00000000E+00  9.55249411E+00  9.55249411E+00 -1.91049882E+01  0.00000000E+00
  9.55249411E+00  9.55249411E+00 -1.91049882E+01  0.00000000E+00  9.55249411E+00
  9.55249411E+00 -1.91049882E+01  0.00000000E+00  9.55249411E+00  9.55249411E+00
 -1.91049882E+01  0.00000000E+00  9.55249411E+00  9.55249411E+00 -1.91049882E+01
  0.00000000E+00  9.55249411E+00  9.55249411E+00 -1.91049882E+01  0.00000000E+00
  9.55249411E+00  9.55249411E+00 -1.91049882E+01  0.00000000E+00  9.55249411E+00
  9.55249411E+00 -1.91049882E+01  0.00000000E+00  9.55249411E+00  9.55249411E+00
 -1.91049882E+01  0.00000000E+00  9.55249411E+00  9.55249411E+00 -1.91049882E+01
  0.00000000E+00  9.55249411E+00  9.55249411E+00 -1.91049882E+01  0.00000000E+00
  9.55249411E+00  9.55249411E+00 -1.91049882E+01  0.00000000E+00  9.55249411E+00
  9.55249411E+00 -1.91049882E+01  0.00000000E+00  9.55249411E+00  9.55249411E+00
 -1.91049882E+01  0.00000000E+00  9.55249411E+00  9.55249411E+00 -1.91049882E+01
  0.00000000E+00  9.55249411E+00  9.55249411E+00 -1.91049882E+01  0.00000000E+00
  9.55249411E+00  9.55249411E+00 -1.91049882E+01  0.00000000E+00  9.55249411E+00
  9.55249411E+00 -1.91049882E+01  0.00000000E+00  9.55249411E+00  9.55249411E+00
 -1.91049882E+01  0.00000000E+00  9.55249411E+00  9.55249411E+00 -1.91049882E+01
  0.00000000E+00  9.55249411E+00  9.55249411E+00 -1.91049882E+01  0.00000000E+00
  9.55249411E+00  9.55249411E+00 -1.91049882E+01  0.00000000E+00  9.55249411E+00
  9.55249411E+00 -1.91049882E+01  0.00000000E+00  9.55249411E+00  9.55249411E+00
 -1.91049882E+01  0.00000000E+00  9.55249411E+00  9.55249411E+00 -1.91049882E+01
  0.00000000E+00  9.55249411E+00  9.55249411E+00 -1.91049882E+01  0.00000000E+00
  9.55249411E+00  9.55249411E+00 -1.91049882E+01  0.00000000E+00  9.55249411E+00
  9.55249411E+00 -1.91049882E+01  0.00000000E+00  9.55249411E+00  9.55249411E+00
 -1.91049882E+01  0.00000000E+00  9.55249411E+00  9.55249411E+00 -1.91049882E+01
  0.00000000E+00  9.55249411E+00  9.55249411E+00 -1.91049882E+01  0.00000000E+00
  9.55249411E+00  9.55249411E+00 -1.91049882E+01  0.00000000E+00  9.55249411E+00
  9.55249411E+00 -1.91049882E+01  0.00000000E+00  9.55249411E+00  9.55249411E+00
 -1.91049882E+01  0.00000000E+00  9.55249411E+00  9.55249411E+00 -1.91049882E+01
  0.00000000E+00  9.55249411E+00  9.55249411E+00 -1.91049882E+01  0.00000000E+00
  9.55249411E+00  9.55249411E+00 -1.91049882E+01  0.00000000E+00  9.55249411E+00
  9.55249411E+00 -1.91049882E+01  0.00000000E+00  9.55249411E+00  9.55249411E+00
 -1.91049882E+01  0.00000000E+00  9.55249411E+00  9.55249411E+00 -1.91049882E+01
  0.00000000E+00  9.55249411E+00  9.55249411E+00 -1.91049882E+01  0.00000000E+00
  9.55249411E+00  9.55249411E+00 -1.91049882E+01  0.00000000E+00  9.55249411E+00
  9.55249411E+00 -1.91049882E+01  0.00000000E+00  9.55249411E+00  9.55249411E+00
 -1.91049882E+01  0.00000000E+00  9.55249411E+00  9.55249411E+00 -1.91049882E+01
  0.00000000E+00  9.55249411E+00  9.55249411E+00 -1.91049882E+01  0.00000000E+00
  9.55249411E+00  9.55249411E+00 -1.91049882E+01  0.00000000E+00  9.55249411E+00
  9.55249411E+00 -1.91049882E+01  0.00000000E+00  9.55249411E+00  9.55249411E+00
 -1.91049882E+01  0.00000000E+00  9.55249411E+00  9.55249411E+00 -1.91049882E+01
  0.00000000E+00  9.55249411E+00  9.55249411E+00 -1.91049882E+01  0.00000000E+00
  9.55249411E+00  9.55249411E+00 -1.91049882E+01  0.00000000E+00  9.55249411E+00
  9.55249411E+00 -1.91049882E+01  0.00000000E+00  9.55249411E+00  9.55249411E+00
 -1.91049882E+01  0.00000000E+00  9.55249411E+00  9.55249411E+00 -1.91049882E+01
  0.00000000E+00  9.55249411E+00  9.55249411E+00 -1.91049882E+01  0.00000000E+00
  9.55249411E+00  9.55249411E+00 -1.91049882E+01  0.00000000E+00  9.55249411E+00
  9.55249411E+00 -1.91049882E+01  0.00000000E+00  9.55249411E+00  9.55249411E+00
 -1.91049882E+01  0.00000000E+00  9.55249411E+00  9.55249411E+00 -1.91049882E+01
  0.00000000E+00  9.55249411E+00  9.55249411E+00 -1.91049882E+01  0.00000000E+00
  9.55249411E+00  9.55249411E+00 -1.91049882E+01  0.00000000E+00  9.55249411E+00
  9.55249411E+00 -1.91049882E+01  0.00000000E+00  9.55249411E+00  9.55249411E+00
 -1.91049882E+01  0.00000000E+00  9.55249411E+00  9.55249411E+00 -1.91049882E+01
  0.00000000E+00  9.55249411E+00  9.55249411E+00 -1.91049882E+01  0.00000000E+00
  9.55249411E+00  9.55249411E+00 -1.91049882E+01  0.00000000E+00  9.55249411E+00
  9.55249411E+00 -1.91049882E+01  0.00000000E+00  9.55249411E+00  9.55249411E+00
 -1.91049882E+01  0.00000000E+00  9.55249411E+00  9.55249411E+00 -1.91049882E+01
  0.00000000E+00  9.55249411E+00  9.55249411E+00 -1.91049882E+01  0.00000000E+00
  9.55249411E+00  9.55249411E+00 -1.91049882E+01  0.00000000E+00  9.55249411E+00
  9.55249411E+00 -1.91049882E+01  0.00000000E+00  9.55249411E+00  9.55249411E+00
 -1.91049882E+01  0.00000000E+00  9.55249411E+00  9.55249411E+00 -1.91049882E+01
  0.00000000E+00  9.55249411E+00  9.55249411E+00 -1.91049882E+01  0.00000000E+00
  9.55249411E+00  9.55249411E+00 -1.91049882E+01  0.00000000E+00  9.55249411E+00
  9.55249411E+00 -1.91049882E+01  0.00000000E+00  9.55249411E+00  9.55249411E+00
 -1.91049882E+01  0.00000000E+00  9.55249411E+00  9.55249411E+00 -1.91049882E+01
  0.00000000E+00  9.55249411E+00  9.55249411E+00 -1.91049882E+01  0.00000000E+00
  9.55249411E+00  9.55249411E+00 -1.91049882E+01  0.00000000E+00  9.55249411E+00
  9.55249411E+00 -1.91049882E+01  0.00000000E+00  9.55249411E+00  9.55249411E+00
 -1.91049882E+01  0.00000000E+00  9.55249411E+00  9.55249411E+00 -1.91049882E+01
  0.00000000E+00  9.55249411E+00  9.55249411E+00 -1.91049882E+01  0.00000000E+00
  9.55249411E+00  9.55249411E+00 -1.91049882E+01  0.00000000E+00  9.55249411E+00
  9.55249411E+00 -1.91049882E+01  0.00000000E+00  9.55249411E+00  9.55249411E+00
 -1.91049882E+01  0.00000000E+00  9.55249411E+00  9.55249411E+00 -1.91049882E+01
  0.00000000E+00  9.55249411E+00  9.55249411E+00 -1.91049882E+01  0.00000000E+00
  9.55249411E+00  9.55249411E+00 -1.91049882E+01  0.00000000E+00  9.55249411E+00
  9.55249411E+00 -1.91049882E+01  0.00000000E+00  9.55249411E+00  9.55249411E+00
 -1.91049882E+01  0.00000000E+00  9.55249411E+00  9.55249411E+00 -1.91049882E+01
  0.00000000E+00  9.55249411E+00  9.55249411E+00 -1.91049882E+01  0.00000000E+00
  9.55249411E+00  9.55249411E+00 -1.91049882E+01  0.00000000E+00  9.55249411E+00
  9.55249411E+00 -1.91049882E+01  0.00000000E+00  9.55249411E+00  9.55249411E+00
 -1.91049882E+01  0.00000000E+00  9.55249411E+00  9.55249411E+00 -1.91049882E+01
  0.00000000E+00  9.55249411E+00  9.55249411E+00 -1.91049882E+01  0.00000000E+00
  9.55249411E+00  9.55249411E+00 -1.91049882E+01  0.00000000E+00  9.55249411E+00
  9.55249411E+00 -1.91049882E+01  0.00000000E+00  9.55249411E+00  9.55249411E+00
 -1.91049882E+01  0.00000000E+00  9.55249411E+00  9.55249411E+00 -1.91049882E+01
  0.00000000E+00  9.55249411E+00  9.55249411E+00 -1.91049882E+01  0.00000000E+00
  9.55249411E+00  9.55249411E+00 -1.91049882E+01  0.00000000E+00  9.55249411E+00
  9.55249411E+00 -1.91049882E+01  0.00000000E+00  9.55249411E+00  9.55249411E+00
 -1.91049882E+01  0.00000000E+00  9.55249411E+00  9.55249411E+00 -1.91049882E+01
  0.00000000E+00  9.55249411E+00  9.55249411E+00 -1.91049882E+01  0.00000000E+00
  9.55249411E+00  9.55249411E+00 -1.91049882E+01  0.00000000E+00  9.55249411E+00
  9.55249411E+00 -1.91049882E+01  0.00000000E+00  9.55249411E+00  9.55249411E+00
 -1.91049882E+01  0.00000000E+00  9.55249411E+00  9.55249411E+00 -1.91049882E+01
  0.00000000E+00  9.55249411E+00  9.55249411E+00 -1.91049882E+01  0.00000000E+00
  9.55249411E+00  9.55249411E+00 -1.91049882E+01  0.00000000E+00  9.55249411E+00
  9.55249411E+00 -1.91049882E+01  0.00000000E+00  9.55249411E+00  9.55249411E+00
 -1.91049882E+01  0.00000000E+00  9.55249411E+00  9.55249411E+00 -1.91049882E+01
  0.00000000E+00  9.55249411E+00  9.55249411E+00 -1.91049882E+01  0.00000000E+00
  9.55249411E+00  9.55249411E+00 -1.91049882E+01  0.00000000E+00  9.55249411E+00
  9.55249411E+00 -1.91049882E+01  0.00000000E+00  9.55249411E+00  9.55249411E+00
 -1.91049882E+01  0.00000000E+00  9.55249411E+00  9.55249411E+00 -1.91049882E+01
  0.00000000E+00  9.55249411E+00  9.55249411E+00 -1.91049882E+01  0.00000000E+00
  9.55249411E+00  9.55249411E+00 -1.91049882E+01  0.00000000E+00  9.55249411E+00
  9.55249411E+00 -1.91049882E+01  0.00000000E+00  9.55249411E+00  9.55249411E+00
 -1.91049882E+01  0.00000000E+00  9.55249411E+00  9.55249411E+00 -1.91049882E+01
  0.00000000E+00  9.55249411E+00  9.55249411E+00 -1.91049882E+01  0.00000000E+00
  9.55249411E+00  9.55249411E+00 -1.91049882E+01  0.00000000E+00  9.55249411E+00
  9.55249411E+00 -1.91049882E+01  0.00000000E+00  9.55249411E+00  9.55249411E+00
 -1.91049882E+01  0.00000000E+00  9.55249411E+00  9.55249411E+00 -1.91049882E+01
  0.00000000E+00  9.55249411E+00  9.55249411E+00 -1.91049882E+01  0.00000000E+00
  9.55249411E+00  9.55249411E+00 -1.91049882E+01  0.00000000E+00  9.55249411E+00
  9.55249411E+00 -1.91049882E+01  0.00000000E+00  9.55249411E+00  9.55249411E+00
 -1.91049882E+01  0.00000000E+00  9.55249411E+00  9.55249411E+00 -1.91049882E+01
  0.00000000E+00  9.55249411E+00  9.55249411E+00 -1.91049882E+01  0.00000000E+00
  9.55249411E+00  9.55249411E+00 -1.91049882E+01  0.00000000E+00  9.55249411E+00
  9.55249411E+00 -1.91049882E+01  0.00000000E+00  9.55249411E+00  9.55249411E+00
 -1.91049882E+01  0.00000000E+00  9.55249411E+00  9.55249411E+00 -1.91049882E+01
  0.00000000E+00  9.55249411E+00  9.55249411E+00 -1.91049882E+01  0.00000000E+00
  9.55249411E+00  9.55249411E+00 -1.91049882E+01  0.00000000E+00  9.55249411E+00
  9.55249411E+00 -1.91049882E+01  0.00000000E+00  9.55249411E+00  9.55249411E+00
 -1.91049882E+01  0.00000000E+00  9.55249411E+00  9.55249411E+00 -1.91049882E+01
  0.00000000E+00  9.55249411E+00  9.55249411E+00 -1.91049882E+01  0.00000000E+00
  9.55249411E+00  9.55249411E+00 -1.91049882E+01  0.00000000E+00  9.55249411E+00
  9.55249411E+00 -1.91049882E+01  0.00000000E+00  9.55249411E+00  9.55249411E+00
 -1.91049882E+01  0.00000000E+00  9.55249411E+00  9.55249411E+00 -1.91049882E+01
  0.00000000E+00  9.55249411E+00  9.55249411E+00 -1.91049882E+01  0.00000000E+00
  9.55249411E+00  9.55249411E+00 -1.91049882E+01  0.00000000E+00  9.55249411E+00
  9.55249411E+00 -1.91049882E+01  0.00000000E+00  9.55249411E+00  9.55249411E+00
 -1.91049882E+01  0.00000000E+00  9.55249411E+00  9.55249411E+00 -1.91049882E+01
  0.00000000E+00  9.55249411E+00  9.55249411E+00 -1.91049882E+01  0.00000000E+00
  9.55249411E+00  9.55249411E+00 -1.91049882E+01  0.00000000E+00  9.55249411E+00
  9.55249411E+00 -1.91049882E+01  0.00000000E+00  9.55249411E+00  9.55249411E+00
 -1.91049882E+01  0.00000000E+00  9.55249411E+00  9.55249411E+00 -1.91049882E+01
  0.00000000E+00  9.55249411E+00  9.55249411E+00 -1.91049882E+01  0.00000000E+00
  9.55249411E+00  9.55249411E+00 -1.91049882E+01  0.00000000E+00  9.55249411E+00
  9.55249411E+00 -1.91049882E+01  0.00000000E+00  9.55249411E+00  9.55249411E+00
 -1.91049882E+01  0.00000000E+00  9.55249411E+00  9.55249411E+00 -1.91049882E+01
  0.00000000E+00  9.55249411E+00  9.55249411E+00 -1.91049882E+01  0.00000000E+00
  9.55249411E+00  9.55249411E+00 -1.91049882E+01  0.00000000E+00  9.55249411E+00
  9.55249411E+00 -1.91049882E+01  0.00000000E+00  9.55249411E+00  9.55249411E+00
 -1.91049882E+01  0.00000000E+00  9.55249411E+00  9.55249411E+00 -1.91049882E+01
  0.00000000E+00  9.55249411E+00  9.55249411E+00 -1.91049882E+01  0.00000000E+00
  9.55249411E+00  9.55249411E+00 -1.91049882E+01  0.00000000E+00  9.55249411E+00
  9.55249411E+00 -1.91049882E+01  0.00000000E+00  9.55249411E+00  9.55249411E+00
 -1.91049882E+01  0.00000000E+00  9.55249411E+00  9.55249411E+00 -1.91049882E+01
  0.00000000E+00  9.55249411E+00  9.55249411E+00 -1.91049882E+01  0.00000000E+00
  9.55249411E+00  9.55249411E+00 -1.91049882E+01  0.00000000E+00  9.55249411E+00
  9.55249411E+00 -1.91049882E+01  0.00000000E+00  9.55249411E+00  9.55249411E+00
 -1.91049882E+01  0.00000000E+00  9.55249411E+00  9.55249411E+00 -1.91049882E+01
  0.00000000E+00  9.55249411E+00  9.55249411E+00 -1.91049882E+01  0.00000000E+00
  9.55249411E+00  9.55249411E+00 -1.91049882E+01  0.00000000E+00  9.55249411E+00
  9.55249411E+00 -1.91049882E+01  0.00000000E+00  9.55249411E+00  9.55249411E+00
 -1.91049882E+01  0.00000000E+00  9.55249411E+00  9.55249411E+00 -1.91049882E+01
  0.00000000E+00  9.55249411E+00  9.55249411E+00 -1.91049882E+01  0.00000000E+00
  9.55249411E+00  9.55249411E+00 -1.91049882E+01  0.00000000E+00  9.55249411E+00
  9.55249411E+00 -1.91049882E+01  0.00000000E+00  9.55249411E+00  9.55249411E+00
 -1.91049882E+01  0.00000000E+00  9.55249411E+00  9.55249411E+00 -1.91049882E+01
  0.00000000E+00  9.55249411E+00  9.55249411E+00 -1.91049882E+01  0.00000000E+00
  9.55249411E+00  9.55249411E+00 -1.91049882E+01  0.00000000E+00  9.55249411E+00
  9.55249411E+00 -1.91049882E+01  0.00000000E+00  9.55249411E+00  9.55249411E+00
 -1.91049882E+01  0.00000000E+00  9.55249411E+00  9.55249411E+00 -1.91049882E+01
  0.00000000E+00  9.55249411E+00  9.55249411E+00 -1.91049882E+01  0.00000000E+00
  9.55249411E+00  9.55249411E+00 -1.91049882E+01  0.00000000E+00  9.55249411E+00
  9.55249411E+00 -1.91049882E+01  0.00000000E+00  9.55249411E+00  9.55249411E+00
 -1.91049882E+01  0.00000000E+00  9.55249411E+00  9.55249411E+00 -1.91049882E+01
  0.00000000E+00  9.55249411E+00  9.55249411E+00 -1.91049882E+01  0.00000000E+00
  9.55249411E+00  9.55249411E+00 -1.91049882E+01  0.00000000E+00  9.55249411E+00
  9.55249411E+00 -1.91049882E+01  0.00000000E+00  9.55249411E+00  9.55249411E+00
 -1.91049882E+01  0.00000000E+00  9.55249411E+00  9.55249411E+00 -1.91049882E+01
  0.00000000E+00  9.55249411E+00  9.55249411E+00 -1.91049882E+01  0.00000000E+00
  9.55249411E+00  9.55249411E+00 -1.91049882E+01  0.00000000E+00  9.55249411E+00
  9.55249411E+00 -1.91049882E+01  0.00000000E+00  9.55249411E+00  9.55249411E+00
 -1.91049882E+01  0.00000000E+00  9.55249411E+00  9.55249411E+00 -1.91049882E+01
  0.00000000E+00  9.55249411E+00  9.55249411E+00 -1.91049882E+01  0.00000000E+00
  9.55249411E+00  9.55249411E+00 -1.91049882E+01  0.00000000E+00  9.55249411E+00
  9.55249411E+00 -1.91049882E+01  0.00000000E+00  9.55249411E+00  9.55249411E+00
 -1.91049882E+01  0.00000000E+00  9.55249411E+00  9.55249411E+00 -1.91049882E+01
  0.00000000E+00  9.55249411E+00  9.55249411E+00 -1.91049882E+01  0.00000000E+00
  9.55249411E+00  9.55249411E+00 -1.91049882E+01  0.00000000E+00  9.55249411E+00
  9.55249411E+00 -1.91049882E+01  0.00000000E+00  9.55249411E+00  9.55249411E+00
 -1.91049882E+01  0.00000000E+00  9.55249411E+00  9.55249411E+00 -1.91049882E+01
  0.00000000E+00  9.55249411E+00  9.55249411E+00 -1.91049882E+01  0.00000000E+00
  9.55249411E+00  9.55249411E+00 -1.91049882E+01  0.00000000E+00  9.55249411E+00
  9.55249411E+00 -1.91049882E+01  0.00000000E+00  9.55249411E+00  9.55249411E+00
 -1.91049882E+01  0.00000000E+00  9.55249411E+00  9.55249411E+00 -1.91049882E+01
  0.00000000E+00  9.55249411E+00  9.55249411E+00 -1.91049882E+01  0.00000000E+00
  9.55249411E+00  9.55249411E+00 -1.91049882E+01  0.00000000E+00  9.55249411E+00
  9.55249411E+00 -1.91049882E+01  0.00000000E+00  9.55249411E+00  9.55249411E+00
 -1.91049882E+01  0.00000000E+00  9.55249411E+00  9.55249411E+00 -1.91049882E+01
  0.00000000E+00  9.55249411E+00  9.55249411E+00 -1.91049882E+01  0.00000000E+00
  9.55249411E+00  9.55249411E+00 -1.91049882E+01  0.00000000E+00  9.55249411E+00
  9.55249411E+00 -1.91049882E+01  0.00000000E+00  9.55249411E+00  9.55249411E+00
 -1.91049882E+01  0.00000000E+00  9.55249411E+00  9.55249411E+00 -1.91049882E+01
  0.00000000E+00  9.55249411E+00  9.55249411E+00 -1.91049882E+01  0.00000000E+00
  9.55249411E+00  9.55249411E+00 -1.91049882E+01  0.00000000E+00  9.55249411E+00
  9.55249411E+00 -1.91049882E+01  0.00000000E+00  9.55249411E+00  9.55249411E+00
 -1.91049882E+01  0.00000000E+00  9.55249411E+00  9.55249411E+00 -1.91049882E+01
  0.00000000E+00  9.55249411E+00  9.55249411E+00 -1.91049882E+01  0.00000000E+00
  9.55249411E+00  9.55249411E+00 -1.91049882E+01  0.00000000E+00  9.55249411E+00
  9.55249411E+00 -1.91049882E+01  0.00000000E+00  9.55249411E+00  9.55249411E+00
 -1.91049882E+01  0.00000000E+00  9.55249411E+00  9.55249411E+00 -1.91049882E+01
  0.00000000E+00  9.55249411E+00  9.55249411E+00 -1.91049882E+01  0.00000000E+00
  9.55249411E+00  9.55249411E+00 -1.91049882E+01  0.00000000E+00  9.55249411E+00
  9.55249411E+00 -1.91049882E+01  0.00000000E+00  9.55249411E+00  9.55249411E+00
 -1.91049882E+01  0.00000000E+00  9.55249411E+00  9.55249411E+00 -1.91049882E+01
  0.00000000E+00  9.55249411E+00  9.55249411E+00 -1.91049882E+01  0.00000000E+00
  9.55249411E+00  9.55249411E+00 -1.91049882E+01  0.00000000E+00  9.55249411E+00
  9.55249411E+00 -1.91049882E+01  0.00000000E+00  9.55249411E+00  9.55249411E+00
 -1.91049882E+01  0.00000000E+00  9.55249411E+00  9.55249411E+00 -1.91049882E+01
  0.00000000E+00  9.55249411E+00  9.55249411E+00 -1.91049882E+01  0.00000000E+00
  9.55249411E+00  9.55249411E+00 -1.91049882E+01  0.00000000E+00  9.55249411E+00
  9.55249411E+00 -1.91049882E+01  0.00000000E+00  9.55249411E+00  9.55249411E+00
 -1.91049882E+01  0.00000000E+00  9.55249411E+00  9.55249411E+00 -1.91049882E+01
  0.00000000E+00  9.55249411E+00  9.55249411E+00 -1.91049882E+01  0.00000000E+00
  9.55249411E+00  9.55249411E+00 -1.91049882E+01  0.00000000E+00  9.55249411E+00
  9.55249411E+00 -1.91049882E+01  0.00000000E+00  9.55249411E+00  9.55249411E+00
 -1.91049882E+01  0.00000000E+00  9.55249411E+00  9.55249411E+00 -1.91049882E+01
  0.00000000E+00  9.55249411E+00  9.55249411E+00 -1.91049882E+01  0.00000000E+00
  9.55249411E+00  9.55249411E+00 -1.91049882E+01  0.00000000E+00  9.55249411E+00
  9.55249411E+00 -1.91049882E+01  0.00000000E+00  9.55249411E+00  9.55249411E+00
 -1.91049882E+01  0.00000000E+00  9.55249411E+00  9.55249411E+00 -1.91049882E+01
  0.00000000E+00  9.55249411E+00  9.55249411E+00 -1.91049882E+01  0.00000000E+00
  9.55249411E+00  9.55249411E+00 -1.91049882E+01  0.00000000E+00  9.55249411E+00
  9.55249411E+00 -1.91049882E+01  0.00000000E+00  9.55249411E+00  9.55249411E+00
 -1.91049882E+01  0.00000000E+00  9.55249411E+00  9.55249411E+00 -1.91049882E+01
  0.00000000E+00  9.55249411E+00  9.55249411E+00 -1.91049882E+01  0.00000000E+00
  9.55249411E+00  9.55249411E+00 -1.91049882E+01  0.00000000E+00  9.55249411E+00
  9.55249411E+00 -1.91049882E+01  0.00000000E+00  9.55249411E+00  9.55249411E+00
 -1.91049882E+01  0.00000000E+00  9.55249411E+00  9.55249411E+00 -1.91049882E+01
  0.00000000E+00  9.55249411E+00  9.55249411E+00 -1.91049882E+01  0.00000000E+00
  9.55249411E+00  9.55249411E+00 -1.91049882E+01  0.00000000E+00  9.55249411E+00
  9.55249411E+00 -1.91049882E+01  0.00000000E+00  9.55249411E+00  9.55249411E+00
 -1.91049882E+01  0.00000000E+00  9.55249411E+00  9.55249411E+00 -1.91049882E+01
  0.00000000E+00  9.55249411E+00  9.55249411E+00 -1.91049882E+01  0.00000000E+00
  9.55249411E+00  9.55249411E+00 -1.91049882E+01  0.00000000E+00  9.55249411E+00
  9.55249411E+00 -1.91049882E+01  0.00000000E+00  9.55249411E+00  9.55249411E+00
 -1.91049882E+01  0.00000000E+00  9.55249411E+00  9.55249411E+00 -1.91049882E+01
  0.00000000E+00  9.55249411E+00  9.55249411E+00 -1.91049882E+01  0.00000000E+00
  9.55249411E+00  9.55249411E+00 -1.91049882E+01  0.00000000E+00  9.55249411E+00
  9.55249411E+00 -1.91049882E+01  0.00000000E+00  9.55249411E+00  9.55249411E+00
 -1.91049882E+01  0.00000000E+00  9.55249411E+00  9.55249411E+00 -1.91049882E+01
  0.00000000E+00  9.55249411E+00  9.55249411E+00 -1.91049882E+01  0.00000000E+00
  9.55249411E+00  9.55249411E+00 -1.91049882E+01  0.00000000E+00  9.55249411E+00
  9.55249411E+00 -1.91049882E+01  0.00000000E+00  9.55249411E+00  9.55249411E+00
 -1.91049882E+01  0.00000000E+00  9.55249411E+00  9.55249411E+00 -1.91049882E+01
  0.00000000E+00  9.55249411E+00  9.55249411E+00 -1.91049882E+01  0.00000000E+00
  9.55249411E+00  9.55249411E+00 -1.91049882E+01  0.00000000E+00  9.55249411E+00
  9.55249411E+00 -1.91049882E+01  0.00000000E+00  9.55249411E+00  9.55249411E+00
 -1.91049882E+01  0.00000000E+00  9.55249411E+00  9.55249411E+00 -1.91049882E+01
  0.00000000E+00  9.55249411E+00  9.55249411E+00 -1.91049882E+01  0.00000000E+00
  9.55249411E+00  9.55249411E+00 -1.91049882E+01  0.00000000E+00  9.55249411E+00
  9.55249411E+00 -1.91049882E+01  0.00000000E+00  9.55249411E+00  9.55249411E+00
 -1.91049882E+01  0.00000000E+00  9.55249411E+00  9.55249411E+00 -1.91049882E+01
  0.00000000E+00  9.55249411E+00  9.55249411E+00 -1.91049882E+01  0.00000000E+00
  9.55249411E+00  9.55249411E+00 -1.91049882E+01  0.00000000E+00  9.55249411E+00
  9.55249411E+00 -1.91049882E+01  0.00000000E+00  9.55249411E+00  9.55249411E+00
 -1.91049882E+01  0.00000000E+00  9.55249411E+00  9.55249411E+00 -1.91049882E+01
  0.00000000E+00  9.55249411E+00  9.55249411E+00 -1.91049882E+01  0.00000000E+00
  9.55249411E+00  9.55249411E+00 -1.91049882E+01  0.00000000E+00  9.55249411E+00
  9.55249411E+00 -1.91049882E+01  0.00000000E+00  9.55249411E+00  9.55249411E+00
 -1.91049882E+01  0.00000000E+00  9.55249411E+00  9.55249411E+00 -1.91049882E+01
  0.00000000E+00  9.55249411E+00  9.55249411E+00 -1.91049882E+01  0.00000000E+00
  9.55249411E+00  9.55249411E+00 -1.91049882E+01  0.00000000E+00  9.55249411E+00
  9.55249411E+00 -1.91049882E+01  0.00000000E+00  9.55249411E+00  9.55249411E+00
 -1.91049882E+01  0.00000000E+00  9.55249411E+00  9.55249411E+00 -1.91049882E+01
  0.00000000E+00  9.55249411E+00  9.55249411E+00 -1.91049882E+01  0.00000000E+00
  9.55249411E+00  9.55249411E+00 -1.91049882E+01  0.00000000E+00  9.55249411E+00
  9.55249411E+00 -1.91049882E+01  0.00000000E+00  9.55249411E+00  9.55249411E+00
 -1.91049882E+01  0.00000000E+00  9.55249411E+00  9.55249411E+00 -1.91049882E+01
  0.00000000E+00  9.55249411E+00  9.55249411E+00 -1.91049882E+01  0.00000000E+00
  9.55249411E+00  9.55249411E+00 -1.91049882E+01  0.00000000E+00  9.55249411E+00
  9.55249411E+00 -1.91049882E+01  0.00000000E+00  9.55249411E+00  9.55249411E+00
 -1.91049882E+01  0.00000000E+00  9.55249411E+00  9.55249411E+00 -1.91049882E+01
  0.00000000E+00  9.55249411E+00  9.55249411E+00 -1.91049882E+01  0.00000000E+00
  9.55249411E+00  9.55249411E+00 -1.91049882E+01  0.00000000E+00  9.55249411E+00
  9.55249411E+00 -1.91049882E+01  0.00000000E+00  9.55249411E+00  9.55249411E+00
 -1.91049882E+01  0.00000000E+00  9.55249411E+00  9.55249411E+00 -1.91049882E+01
  0.00000000E+00  9.55249411E+00  9.55249411E+00 -1.91049882E+01  0.00000000E+00
  9.55249411E+00  9.55249411E+00 -1.91049882E+01  0.00000000E+00  9.55249411E+00
  9.55249411E+00 -1.91049882E+01  0.00000000E+00  9.55249411E+00  9.55249411E+00
 -1.91049882E+01  0.00000000E+00  9.55249411E+00  9.55249411E+00 -1.91049882E+01
  0.00000000E+00  9.55249411E+00  9.55249411E+00 -1.91049882E+01  0.00000000E+00
  9.55249411E+00  9.55249411E+00 -1.91049882E+01  0.00000000E+00  9.55249411E+00
  9.55249411E+00 -1.91049882E+01  0.00000000E+00  9.55249411E+00  9.55249411E+00
 -1.91049882E+01  0.00000000E+00  9.55249411E+00  9.55249411E+00 -1.91049882E+01
  0.00000000E+00  9.55249411E+00  9.55249411E+00 -1.91049882E+01  0.00000000E+00
  9.55249411E+00  9.55249411E+00 -1.91049882E+01  0.00000000E+00  9.55249411E+00
  9.55249411E+00 -1.91049882E+01  0.00000000E+00  9.55249411E+00  9.55249411E+00
 -1.91049882E+01  0.00000000E+00  9.55249411E+00  9.55249411E+00 -1.91049882E+01
  0.00000000E+00  9.55249411E+00  9.55249411E+00 -1.91049882E+01  0.00000000E+00
  9.55249411E+00  9.55249411E+00 -1.91049882E+01  0.00000000E+00  9.55249411E+00
  9.55249411E+00 -1.91049882E+01  0.00000000E+00  9.55249411E+00  9.55249411E+00
 -1.91049882E+01  0.00000000E+00  9.55249411E+00  9.55249411E+00 -1.91049882E+01
  0.00000000E+00  9.55249411E+00  9.55249411E+00 -1.91049882E+01  0.00000000E+00
  9.55249411E+00  9.55249411E+00 -1.91049882E+01  0.00000000E+00  9.55249411E+00
  9.55249411E+00 -1.91049882E+01  0.00000000E+00  9.55249411E+00  9.55249411E+00
 -1.91049882E+01  0.00000000E+00  9.55249411E+00  9.55249411E+00 -1.91049882E+01
  0.00000000E+00  9.55249411E+00  9.55249411E+00 -1.91049882E+01  0.00000000E+00
  9.55249411E+00  9.55249411E+00 -1.91049882E+01  0.00000000E+00  9.55249411E+00
  9.55249411E+00 -1.91049882E+01  0.00000000E+00  9.55249411E+00  9.55249411E+00
 -1.91049882E+01  0.00000000E+00  9.55249411E+00  9.55249411E+00 -1.91049882E+01
  0.00000000E+00  9.55249411E+00  9.55249411E+00 -1.91049882E+01  0.00000000E+00
  9.55249411E+00  9.55249411E+00 -1.91049882E+01  0.00000000E+00  9.55249411E+00
  9.55249411E+00 -1.91049882E+01  0.00000000E+00  9.55249411E+00  9.55249411E+00
 -1.91049882E+01  0.00000000E+00  9.55249411E+00  9.55249411E+00 -1.91049882E+01
  0.00000000E+00  9.55249411E+00  9.55249411E+00 -1.91049882E+01  0.00000000E+00
  9.55249411E+00  9.55249411E+00 -1.91049882E+01  0.00000000E+00  9.55249411E+00
  9.55249411E+00 -1.91049882E+01  0.00000000E+00  9.55249411E+00  9.55249411E+00
 -1.91049882E+01  0.00000000E+00  9.55249411E+00  9.55249411E+00 -1.91049882E+01
  0.00000000E+00  9.55249411E+00  9.55249411E+00 -1.91049882E+01  0.00000000E+00
  9.55249411E+00  9.55249411E+00 -1.91049882E+01  0.00000000E+00  9.55249411E+00
  9.55249411E+00 -1.91049882E+01  0.00000000E+00  9.55249411E+00  9.55249411E+00
 -1.91049882E+01  0.00000000E+00  9.55249411E+00  9.55249411E+00 -1.91049882E+01
  0.00000000E+00  9.55249411E+00  9.55249411E+00 -1.91049882E+01  0.00000000E+00
  9.55249411E+00  9.55249411E+00 -1.91049882E+01  0.00000000E+00  9.55249411E+00
  9.55249411E+00 -1.91049882E+01  0.00000000E+00  9.55249411E+00  9.55249411E+00
 -1.91049882E+01  0.00000000E+00  9.55249411E+00  9.55249411E+00 -1.91049882E+01
  0.00000000E+00  9.55249411E+00  9.55249411E+00 -1.91049882E+01  0.00000000E+00
  9.55249411E+00  9.55249411E+00 -1.91049882E+01  0.00000000E+00  9.55249411E+00
  9.55249411E+00 -1.91049882E+01  0.00000000E+00  9.55249411E+00  9.55249411E+00
 -1.91049882E+01  0.00000000E+00  9.55249411E+00  9.55249411E+00 -1.91049882E+01
  0.00000000E+00  9.55249411E+00  9.55249411E+00 -1.91049882E+01  0.00000000E+00
  9.55249411E+00  9.55249411E+00 -1.91049882E+01  0.00000000E+00  9.55249411E+00
  9.55249411E+00 -1.91049882E+01  0.00000000E+00  9.55249411E+00  9.55249411E+00
 -1.91049882E+01  0.00000000E+00  9.55249411E+00  9.55249411E+00 -1.91049882E+01
  0.00000000E+00  9.55249411E+00  9.55249411E+00 -1.91049882E+01  0.00000000E+00
  9.55249411E+00  9.55249411E+00 -1.91049882E+01  0.00000000E+00  9.55249411E+00
  9.55249411E+00 -1.91049882E+01  0.00000000E+00  9.55249411E+00  9.55249411E+00
 -1.91049882E+01  0.00000000E+00  9.55249411E+00  9.55249411E+00 -1.91049882E+01
  0.00000000E+00  9.55249411E+00  9.55249411E+00 -1.91049882E+01  0.00000000E+00
  9.55249411E+00  9.55249411E+00 -1.91049882E+01  0.00000000E+00  9.55249411E+00
  9.55249411E+00 -1.91049882E+01  0.00000000E+00  9.55249411E+00  9.55249411E+00
 -1.91049882E+01  0.00000000E+00  9.55249411E+00  9.55249411E+00 -1.91049882E+01
  0.00000000E+00  9.55249411E+00  9.55249411E+00 -1.91049882E+01  0.00000000E+00
  9.55249411E+00  9.55249411E+00 -1.91049882E+01  0.00000000E+00  9.55249411E+00
  9.55249411E+00 -1.91049882E+01  0.00000000E+00  9.55249411E+00  9.55249411E+00
 -1.91049882E+01  0.00000000E+00  9.55249411E+00  9.55249411E+00 -1.91049882E+01
  0.00000000E+00  9.55249411E+00  9.55249411E+00 -1.91049882E+01  0.00000000E+00
  9.55249411E+00  9.55249411E+00 -1.91049882E+01  0.00000000E+00  9.55249411E+00
  9.55249411E+00 -1.91049882E+01  0.00000000E+00  9.55249411E+00  9.55249411E+00
 -1.91049882E+01  0.00000000E+00  9.55249411E+00  9.55249411E+00 -1.91049882E+01
  0.00000000E+00  9.55249411E+00  9.55249411E+00 -1.91049882E+01  0.00000000E+00
  9.55249411E+00  9.55249411E+00 -1.91049882E+01  0.00000000E+00  9.55249411E+00
  9.55249411E+00 -1.91049882E+01  0.00000000E+00  9.55249411E+00  9.55249411E+00
 -1.91049882E+01  0.00000000E+00  9.55249411E+00  9.55249411E+00 -1.91049882E+01
  0.00000000E+00  9.55249411E+00  9.55249411E+00 -1.91049882E+01  0.00000000E+00
  9.55249411E+00  9.55249411E+00 -1.91049882E+01  0.00000000E+00  9.55249411E+00
  9.55249411E+00 -1.91049882E+01  0.00000000E+00  9.55249411E+00  9.55249411E+00
 -1.91049882E+01  0.00000000E+00  9.55249411E+00  9.55249411E+00 -1.91049882E+01
  0.00000000E+00  9.55249411E+00  9.55249411E+00 -1.91049882E+01  0.00000000E+00
  9.55249411E+00  9.55249411E+00 -1.91049882E+01  0.00000000E+00  9.55249411E+00
  9.55249411E+00 -1.91049882E+01  0.00000000E+00  9.55249411E+00  9.55249411E+00
 -1.91049882E+01  0.00000000E+00  9.55249411E+00  9.55249411E+00 -1.91049882E+01
  0.00000000E+00  9.55249411E+00  9.55249411E+00 -1.91049882E+01  0.00000000E+00
  9.55249411E+00  9.55249411E+00 -1.91049882E+01  0.00000000E+00  9.55249411E+00
  9.55249411E+00 -1.91049882E+01  0.00000000E+00  9.55249411E+00  9.55249411E+00
 -1.91049882E+01  0.00000000E+00  9.55249411E+00  9.55249411E+00 -1.91049882E+01
  0.00000000E+00  9.55249411E+00  9.55249411E+00 -1.91049882E+01  0.00000000E+00
  9.55249411E+00  9.55249411E+00 -1.91049882E+01  0.00000000E+00  9.55249411E+00
  9.55249411E+00 -1.91049882E+01  0.00000000E+00  9.55249411E+00  9.55249411E+00
 -1.91049882E+01  0.00000000E+00  9.55249411E+00  9.55249411E+00 -1.91049882E+01
  0.00000000E+00  9.55249411E+00  9.55249411E+00 -1.91049882E+01  0.00000000E+00
  9.55249411E+00  9.55249411E+00 -1.91049882E+01  0.00000000E+00  9.55249411E+00
  9.55249411E+00 -1.91049882E+01  0.00000000E+00  9.55249411E+00  9.55249411E+00
 -1.91049882E+01  0.00000000E+00  9.55249411E+00  9.55249411E+00 -1.91049882E+01
  0.00000000E+00  9.55249411E+00  9.55249411E+00 -1.91049882E+01  0.00000000E+00
  9.55249411E+00  9.55249411E+00 -1.91049882E+01  0.00000000E+00  9.55249411E+00
  9.55249411E+00 -1.91049882E+01  0.00000000E+00  9.55249411E+00  9.55249411E+00
 -1.91049882E+01  0.00000000E+00  9.55249411E+00  9.55249411E+00 -1.91049882E+01
  0.00000000E+00  9.55249411E+00  9.55249411E+00 -1.91049882E+01  0.00000000E+00
  9.55249411E+00  9.55249411E+00 -1.91049882E+01  0.00000000E+00  9.55249411E+00
  9.55249411E+00 -1.91049882E+01  0.00000000E+00  9.55249411E+00  9.55249411E+00
 -1.91049882E+01  0.00000000E+00  9.55249411E+00  9.55249411E+00 -1.91049882E+01
  0.00000000E+00  9.55249411E+00  9.55249411E+00 -1.91049882E+01  0.00000000E+00
  9.55249411E+00  9.55249411E+00 -1.91049882E+01  0.00000000E+00  9.55249411E+00
  9.55249411E+00 -1.91049882E+01  0.00000000E+00  9.55249411E+00  9.55249411E+00
 -1.91049882E+01  0.00000000E+00  9.55249411E+00  9.55249411E+00 -1.91049882E+01
  0.00000000E+00  9.55249411E+00  9.55249411E+00 -1.91049882E+01  0.00000000E+00
  9.55249411E+00  9.55249411E+00 -1.91049882E+01  0.00000000E+00  9.55249411E+00
  9.55249411E+00 -1.91049882E+01  0.00000000E+00  9.55249411E+00  9.55249411E+00
 -1.91049882E+01  0.00000000E+00  9.55249411E+00  9.55249411E+00 -1.91049882E+01
  0.00000000E+00  9.55249411E+00  9.55249411E+00 -1.91049882E+01  0.00000000E+00
  9.55249411E+00  9.55249411E+00 -1.91049882E+01  0.00000000E+00  9.55249411E+00
  9.55249411E+00 -1.91049882E+01  0.00000000E+00  9.55249411E+00  9.55249411E+00
 -1.91049882E+01  0.00000000E+00  9.55249411E+00  9.55249411E+00 -1.91049882E+01
  0.00000000E+00  9.55249411E+00  9.55249411E+00 -1.91049882E+01  0.00000000E+00
  9.55249411E+00  9.55249411E+00 -1.91049882E+01  0.00000000E+00  9.55249411E+00
  9.55249411E+00 -1.91049882E+01  0.00000000E+00  9.55249411E+00  9.55249411E+00
 -1.91049882E+01  0.00000000E+00  9.55249411E+00  9.55249411E+00 -1.91049882E+01
  0.00000000E+00  9.55249411E+00  9.55249411E+00 -1.91049882E+01  0.00000000E+00
  9.55249411E+00  9.55249411E+00 -1.91049882E+01  0.00000000E+00  9.55249411E+00
  9.55249411E+00 -1.91049882E+01  0.00000000E+00  9.55249411E+00  9.55249411E+00
 -1.91049882E+01  0.00000000E+00  9.55249411E+00  9.55249411E+00 -1.91049882E+01
  0.00000000E+00  9.55249411E+00  9.55249411E+00 -1.91049882E+01  0.00000000E+00
  9.55249411E+00  9.55249411E+00 -1.91049882E+01  0.00000000E+00  9.55249411E+00
  9.55249411E+00 -1.91049882E+01  0.00000000E+00  9.55249411E+00  9.55249411E+00
 -1.91049882E+01  0.00000000E+00  9.55249411E+00  9.55249411E+00 -1.91049882E+01
  0.00000000E+00  9.55249411E+00  9.55249411E+00 -1.91049882E+01  0.00000000E+00
  9.55249411E+00  9.55249411E+00 -1.91049882E+01  0.00000000E+00  9.55249411E+00
  9.55249411E+00 -1.91049882E+01  0.00000000E+00  9.55249411E+00  9.55249411E+00
 -1.91049882E+01  0.00000000E+00  9.55249411E+00  9.55249411E+00 -1.91049882E+01
  0.00000000E+00  9.55249411E+00  9.55249411E+00 -1.91049882E+01  0.00000000E+00
  9.55249411E+00  9.55249411E+00 -1.91049882E+01  0.00000000E+00  9.55249411E+00
  9.55249411E+00 -1.91049882E+01  0.00000000E+00  9.55249411E+00  9.55249411E+00
 -1.91049882E+01  0.00000000E+00  9.55249411E+00  9.55249411E+00 -1.91049882E+01
  0.00000000E+00  9.55249411E+00  9.55249411E+00 -1.91049882E+01  0.00000000E+00
  9.55249411E+00  9.55249411E+00 -1.91049882E+01  0.00000000E+00  9.55249411E+00
  9.55249411E+00 -1.91049882E+01  0.00000000E+00  9.55249411E+00  9.55249411E+00
 -1.91049882E+01  0.00000000E+00  9.55249411E+00  9.55249411E+00 -1.91049882E+01
  0.00000000E+00  9.55249411E+00  9.55249411E+00 -1.91049882E+01  0.00000000E+00
  9.55249411E+00  9.55249411E+00 -1.91049882E+01  0.00000000E+00  9.55249411E+00
  9.55249411E+00 -1.91049882E+01  0.00000000E+00  9.55249411E+00  9.55249411E+00
 -1.91049882E+01  0.00000000E+00  9.55249411E+00  9.55249411E+00 -1.91049882E+01
  0.00000000E+00  9.55249411E+00  9.55249411E+00 -1.91049882E+01  0.00000000E+00
  9.55249411E+00  9.55249411E+00 -1.91049882E+01  0.00000000E+00  9.55249411E+00
  9.55249411E+00 -1.91049882E+01  0.00000000E+00  9.55249411E+00  9.55249411E+00
 -1.91049882E+01  0.00000000E+00  9.55249411E+00  9.55249411E+00 -1.91049882E+01
  0.00000000E+00  9.55249411E+00  9.55249411E+00 -1.91049882E+01  0.00000000E+00
  9.55249411E+00  9.55249411E+00 -1.91049882E+01  0.00000000E+00  9.55249411E+00
  9.55249411E+00 -1.91049882E+01  0.00000000E+00  9.55249411E+00  9.55249411E+00
 -1.91049882E+01  0.00000000E+00  9.55249411E+00  9.55249411E+00 -1.91049882E+01
  0.00000000E+00  9.55249411E+00  9.55249411E+00 -1.91049882E+01  0.00000000E+00
  9.55249411E+00  9.55249411E+00 -1.91049882E+01  0.00000000E+00  9.55249411E+00
  9.55249411E+00 -1.91049882E+01  0.00000000E+00  9.55249411E+00  9.55249411E+00
 -1.91049882E+01  0.00000000E+00  9.55249411E+00  9.55249411E+00 -1.91049882E+01
  0.00000000E+00  9.55249411E+00  9.55249411E+00 -1.91049882E+01  0.00000000E+00
  9.55249411E+00  9.55249411E+00 -1.91049882E+01  0.00000000E+00  9.55249411E+00
  9.55249411E+00 -1.91049882E+01  0.00000000E+00  9.55249411E+00  9.55249411E+00
 -1.91049882E+01  0.00000000E+00  9.55249411E+00  9.55249411E+00 -1.91049882E+01
  0.00000000E+00  9.55249411E+00  9.55249411E+00 -1.91049882E+01  0.00000000E+00
  9.55249411E+00  9.55249411E+00 -1.91049882E+01  0.00000000E+00  9.55249411E+00
  9.55249411E+00 -1.91049882E+01  0.00000000E+00  9.55249411E+00  9.55249411E+00
 -1.91049882E+01  0.00000000E+00  9.55249411E+00  9.55249411E+00 -1.91049882E+01
  0.00000000E+00  9.55249411E+00  9.55249411E+00 -1.91049882E+01  0.00000000E+00
  9.55249411E+00  9.55249411E+00 -1.91049882E+01  0.00000000E+00  9.55249411E+00
  9.55249411E+00 -1.91049882E+01  0.00000000E+00  9.55249411E+00  9.55249411E+00
 -1.91049882E+01  0.00000000E+00  9.55249411E+00  9.55249411E+00 -1.91049882E+01
  0.00000000E+00  9.55249411E+00  9.55249411E+00 -1.91049882E+01  0.00000000E+00
  9.55249411E+00  9.55249411E+00 -1.91049882E+01  0.00000000E+00  9.55249411E+00
  9.55249411E+00 -1.91049882E+01  0.00000000E+00  9.55249411E+00  9.55249411E+00
 -1.91049882E+01  0.00000000E+00  9.55249411E+00  9.55249411E+00 -1.91049882E+01
  0.00000000E+00  9.55249411E+00  9.55249411E+00 -1.91049882E+01  0.00000000E+00
  9.55249411E+00  9.55249411E+00 -1.91049882E+01  0.00000000E+00  9.55249411E+00
  9.55249411E+00 -1.91049882E+01  0.00000000E+00  9.55249411E+00  9.55249411E+00
 -1.91049882E+01  0.00000000E+00  9.55249411E+00  9.55249411E+00 -1.91049882E+01
  0.00000000E+00  9.55249411E+00  9.55249411E+00 -1.91049882E+01  0.00000000E+00
  9.55249411E+00  9.55249411E+00 -1.91049882E+01  0.00000000E+00  9.55249411E+00
  9.55249411E+00 -1.91049882E+01  0.00000000E+00  9.55249411E+00  9.55249411E+00
 -1.91049882E+01  0.00000000E+00  9.55249411E+00  9.55249411E+00 -1.91049882E+01
  0.00000000E+00  9.55249411E+00  9.55249411E+00 -1.91049882E+01  0.00000000E+00
  9.55249411E+00  9.55249411E+00 -1.91049882E+01  0.00000000E+00  9.55249411E+00
  9.55249411E+00 -1.91049882E+01  0.00000000E+00  9.55249411E+00  9.55249411E+00
 -1.91049882E+01  0.00000000E+00  9.55249411E+00  9.55249411E+00 -1.91049882E+01
  0.00000000E+00  9.55249411E+00  9.55249411E+00 -1.91049882E+01  0.00000000E+00
  9.55249411E+00  9.55249411E+00 -1.91049882E+01  0.00000000E+00  9.55249411E+00
  9.55249411E+00 -1.91049882E+01  0.00000000E+00  9.55249411E+00  9.55249411E+00
 -1.91049882E+01  0.00000000E+00  9.55249411E+00  9.55249411E+00 -1.91049882E+01
  0.00000000E+00  9.55249411E+00  9.55249411E+00 -1.91049882E+01  0.00000000E+00
  9.55249411E+00  9.55249411E+00 -1.91049882E+01  0.00000000E+00  9.55249411E+00
  9.55249411E+00 -1.91049882E+01  0.00000000E+00  9.55249411E+00  9.55249411E+00
 -1.91049882E+01  0.00000000E+00  9.55249411E+00  9.55249411E+00 -1.91049882E+01
  0.00000000E+00  9.55249411E+00  9.55249411E+00 -1.91049882E+01  0.00000000E+00
  9.55249411E+00  9.55249411E+00 -1.91049882E+01  0.00000000E+00  9.55249411E+00
  9.55249411E+00 -1.91049882E+01  0.00000000E+00  9.55249411E+00  9.55249411E+00
 -1.91049882E+01  0.00000000E+00  9.55249411E+00  9.55249411E+00 -1.91049882E+01
  0.00000000E+00  9.55249411E+00  9.55249411E+00 -1.91049882E+01  0.00000000E+00
  9.55249411E+00  9.55249411E+00 -1.91049882E+01  0.00000000E+00  9.55249411E+00
  9.55249411E+00 -1.91049882E+01  0.00000000E+00  9.55249411E+00  9.55249411E+00
 -1.91049882E+01  0.00000000E+00  9.55249411E+00  9.55249411E+00 -1.91049882E+01
  0.00000000E+00  9.55249411E+00  9.55249411E+00 -1.91049882E+01  0.00000000E+00
  9.55249411E+00  9.55249411E+00 -1.91049882E+01  0.00000000E+00  9.55249411E+00
  9.55249411E+00 -1.91049882E+01  0.00000000E+00  9.55249411E+00  9.55249411E+00
 -1.91049882E+01  0.00000000E+00  9.55249411E+00  9.55249411E+00 -1.91049882E+01
  0.00000000E+00  9.55249411E+00  9.55249411E+00 -1.91049882E+01  0.00000000E+00
  9.55249411E+00  9.55249411E+00 -1.91049882E+01  0.00000000E+00  9.55249411E+00
  9.55249411E+00 -1.91049882E+01  0.00000000E+00  9.55249411E+00  9.55249411E+00
 -1.91049882E+01  0.00000000E+00  9.55249411E+00  9.55249411E+00 -1.91049882E+01
  0.00000000E+00  9.55249411E+00  9.55249411E+00 -1.91049882E+01  0.00000000E+00
  9.55249411E+00  9.55249411E+00 -1.91049882E+01  0.00000000E+00  9.55249411E+00
  9.55249411E+00 -1.91049882E+01  0.00000000E+00  9.55249411E+00  9.55249411E+00
 -1.91049882E+01  0.00000000E+00  9.55249411E+00  9.55249411E+00 -1.91049882E+01
  0.00000000E+00  9.55249411E+00  9.55249411E+00 -1.91049882E+01  0.00000000E+00
  9.55249411E+00  9.55249411E+00 -1.91049882E+01  0.00000000E+00  9.55249411E+00
  9.55249411E+00 -1.91049882E+01  0.00000000E+00  9.55249411E+00  9.55249411E+00
 -1.91049882E+01  0.00000000E+00  9.55249411E+00  9.55249411E+00 -1.91049882E+01
  0.00000000E+00  9.55249411E+00  9.55249411E+00 -1.91049882E+01  0.00000000E+00
  9.55249411E+00  9.55249411E+00 -1.91049882E+01  0.00000000E+00  9.55249411E+00
  9.55249411E+00 -1.91049882E+01  0.00000000E+00  9.55249411E+00  9.55249411E+00
 -1.91049882E+01  0.00000000E+00  9.55249411E+00  9.55249411E+00 -1.91049882E+01
  0.00000000E+00  9.55249411E+00  9.55249411E+00 -1.91049882E+01  0.00000000E+00
  9.55249411E+00  9.55249411E+00 -1.91049882E+01  0.00000000E+00  9.55249411E+00
  9.55249411E+00 -1.91049882E+01  0.00000000E+00  9.55249411E+00  9.55249411E+00
 -1.91049882E+01  0.00000000E+00  9.55249411E+00  9.55249411E+00 -1.91049882E+01
  0.00000000E+00  9.55249411E+00  9.55249411E+00 -1.91049882E+01  0.00000000E+00
  9.55249411E+00  9.55249411E+00 -1.91049882E+01  0.00000000E+00  9.55249411E+00
  9.55249411E+00 -1.91049882E+01  0.00000000E+00  9.55249411E+00  9.55249411E+00
 -1.91049882E+01  0.00000000E+00  9.55249411E+00  9.55249411E+00 -1.91049882E+01
  0.00000000E+00  9.55249411E+00  9.55249411E+00 -1.91049882E+01  0.00000000E+00
  9.55249411E+00  9.55249411E+00 -1.91049882E+01  0.00000000E+00  9.55249411E+00
  9.55249411E+00 -1.91049882E+01  0.00000000E+00  9.55249411E+00  9.55249411E+00
 -1.91049882E+01  0.00000000E+00  9.55249411E+00  9.55249411E+00 -1.91049882E+01
  0.00000000E+00  9.55249411E+00  9.55249411E+00 -1.91049882E+01  0.00000000E+00
  9.55249411E+00  9.55249411E+00 -1.91049882E+01  0.00000000E+00  9.55249411E+00
  9.55249411E+00 -1.91049882E+01  0.00000000E+00  9.55249411E+00  9.55249411E+00
 -1.91049882E+01  0.00000000E+00  9.55249411E+00  9.55249411E+00 -1.91049882E+01
  0.00000000E+00  9.55249411E+00  9.55249411E+00 -1.91049882E+01  0.00000000E+00
  9.55249411E+00  9.55249411E+00 -1.91049882E+01  0.00000000E+00  9.55249411E+00
  9.55249411E+00 -1.91049882E+01  0.00000000E+00  9.55249411E+00  9.55249411E+00
 -1.91049882E+01  0.00000000E+00  9.55249411E+00  9.55249411E+00 -1.91049882E+01
  0.00000000E+00  9.55249411E+00  9.55249411E+00 -1.91049882E+01  0.00000000E+00
  9.55249411E+00  9.55249411E+00 -1.91049882E+01  0.00000000E+00  9.55249411E+00
  9.55249411E+00 -1.91049882E+01  0.00000000E+00  9.55249411E+00  9.55249411E+00
 -1.91049882E+01  0.00000000E+00  9.55249411E+00  9.55249411E+00 -1.91049882E+01
  0.00000000E+00  9.55249411E+00  9.55249411E+00 -1.91049882E+01  0.00000000E+00
  9.55249411E+00  9.55249411E+00 -1.91049882E+01  0.00000000E+00  9.55249411E+00
  9.55249411E+00 -1.91049882E+01  0.00000000E+00  9.55249411E+00  9.55249411E+00
 -1.91049882E+01  0.00000000E+00  9.55249411E+00  9.55249411E+00 -1.91049882E+01
  0.00000000E+00  9.55249411E+00  9.55249411E+00 -1.91049882E+01  0.00000000E+00
  9.55249411E+00  9.55249411E+00 -1.91049882E+01  0.00000000E+00  9.55249411E+00
  9.55249411E+00 -1.91049882E+01  0.00000000E+00  9.55249411E+00  9.55249411E+00
 -1.91049882E+01  0.00000000E+00  9.55249411E+00  9.55249411E+00 -1.91049882E+01
  0.00000000E+00  9.55249411E+00  9.55249411E+00 -1.91049882E+01  0.00000000E+00
  9.55249411E+00  9.55249411E+00 -1.91049882E+01  0.00000000E+00  9.55249411E+00
  9.55249411E+00 -1.91049882E+01  0.00000000E+00  9.55249411E+00  9.55249411E+00
 -1.91049882E+01  0.00000000E+00  9.55249411E+00  9.55249411E+00 -1.91049882E+01
  0.00000000E+00  9.55249411E+00  9.55249411E+00 -1.91049882E+01  0.00000000E+00
  9.55249411E+00  9.55249411E+00 -1.91049882E+01  0.00000000E+00  9.55249411E+00
  9.55249411E+00 -1.91049882E+01  0.00000000E+00  9.55249411E+00  9.55249411E+00
 -1.91049882E+01  0.00000000E+00  9.55249411E+00  9.55249411E+00 -1.91049882E+01
  0.00000000E+00  9.55249411E+00  9.55249411E+00 -1.91049882E+01  0.00000000E+00
  9.55249411E+00  9.55249411E+00 -1.91049882E+01  0.00000000E+00  9.55249411E+00
  9.55249411E+00 -1.91049882E+01  0.00000000E+00  9.55249411E+00  9.55249411E+00
 -1.91049882E+01  0.00000000E+00  9.55249411E+00  9.55249411E+00 -1.91049882E+01
  0.00000000E+00  9.55249411E+00  9.55249411E+00 -1.91049882E+01  0.00000000E+00
  9.55249411E+00  9.55249411E+00 -1.91049882E+01  0.00000000E+00  9.55249411E+00
  9.55249411E+00 -1.91049882E+01  0.00000000E+00  9.55249411E+00  9.55249411E+00
 -1.91049882E+01  0.00000000E+00  9.55249411E+00  9.55249411E+00 -1.91049882E+01
  0.00000000E+00  9.55249411E+00  9.55249411E+00 -1.91049882E+01  0.00000000E+00
  9.55249411E+00  9.55249411E+00 -1.91049882E+01  0.00000000E+00  9.55249411E+00
  9.55249411E+00 -1.91049882E+01  0.00000000E+00  9.55249411E+00  9.55249411E+00
 -1.91049882E+01  0.00000000E+00  9.55249411E+00  9.55249411E+00 -1.91049882E+01
  0.00000000E+00  9.55249411E+00  9.55249411E+00 -1.91049882E+01  0.00000000E+00
  9.55249411E+00  9.55249411E+00 -1.91049882E+01  0.00000000E+00  9.55249411E+00
  9.55249411E+00 -1.91049882E+01  0.00000000E+00  9.55249411E+00  9.55249411E+00
 -1.91049882E+01  0.00000000E+00  9.55249411E+00  9.55249411E+00 -1.91049882E+01
  0.00000000E+00  9.55249411E+00  9.55249411E+00 -1.91049882E+01  0.00000000E+00
  9.55249411E+00  9.55249411E+00 -1.91049882E+01  0.00000000E+00  9.55249411E+00
  9.55249411E+00 -1.91049882E+01  0.00000000E+00  9.55249411E+00  9.55249411E+00
 -1.91049882E+01  0.00000000E+00  9.55249411E+00  9.55249411E+00 -1.91049882E+01
  0.00000000E+00  9.55249411E+00  9.55249411E+00 -1.91049882E+01  0.00000000E+00
  9.55249411E+00  9.55249411E+00 -1.91049882E+01  0.00000000E+00  9.55249411E+00
  9.55249411E+00 -1.91049882E+01  0.00000000E+00  9.55249411E+00  9.55249411E+00
 -1.91049882E+01  0.00000000E+00  9.55249411E+00  9.55249411E+00 -1.91049882E+01
  0.00000000E+00  9.55249411E+00  9.55249411E+00 -1.91049882E+01  0.00000000E+00
  9.55249411E+00  9.55249411E+00 -1.91049882E+01  0.00000000E+00  9.55249411E+00
  9.55249411E+00 -1.91049882E+01  0.00000000E+00  9.55249411E+00  9.55249411E+00
 -1.91049882E+01  0.00000000E+00  9.55249411E+00  9.55249411E+00 -1.91049882E+01
  0.00000000E+00  9.55249411E+00  9.55249411E+00 -1.91049882E+01  0.00000000E+00
  9.55249411E+00  9.55249411E+00 -1.91049882E+01  0.00000000E+00  9.55249411E+00
  9.55249411E+00 -1.91049882E+01  0.00000000E+00  9.55249411E+00  9.55249411E+00
 -1.91049882E+01  0.00000000E+00  9.55249411E+00  9.55249411E+00 -1.91049882E+01
  0.00000000E+00  9.55249411E+00  9.55249411E+00 -1.91049882E+01  0.00000000E+00
  9.55249411E+00  9.55249411E+00 -1.91049882E+01  0.00000000E+00  9.55249411E+00
  9.55249411E+00 -1.91049882E+01  0.00000000E+00  9.55249411E+00  9.55249411E+00
 -1.91049882E+01  0.00000000E+00  9.55249411E+00  9.55249411E+00 -1.91049882E+01
  0.00000000E+00  9.55249411E+00  9.55249411E+00 -1.91049882E+01  0.00000000E+00
  9.55249411E+00  9.55249411E+00 -1.91049882E+01  0.00000000E+00  9.55249411E+00
  9.55249411E+00 -1.91049882E+01  0.00000000E+00  9.55249411E+00  9.55249411E+00
 -1.91049882E+01  0.00000000E+00  9.55249411E+00  9.55249411E+00 -1.91049882E+01
  0.00000000E+00  9.55249411E+00  9.55249411E+00 -1.91049882E+01  0.00000000E+00
  9.55249411E+00  9.55249411E+00 -1.91049882E+01  0.00000000E+00  9.55249411E+00
  9.55249411E+00 -1.91049882E+01  0.00000000E+00  9.55249411E+00  9.55249411E+00
 -1.91049882E+01  0.00000000E+00  9.55249411E+00  9.55249411E+00 -1.91049882E+01
  0.00000000E+00  9.55249411E+00  9.55249411E+00 -1.91049882E+01  0.00000000E+00
  9.55249411E+00  9.55249411E+00 -1.91049882E+01  0.00000000E+00  9.55249411E+00
  9.55249411E+00 -1.91049882E+01  0.00000000E+00  9.55249411E+00  9.55249411E+00
 -1.91049882E+01  0.00000000E+00  9.55249411E+00  9.55249411E+00 -1.91049882E+01
  0.00000000E+00  9.55249411E+00  9.55249411E+00 -1.91049882E+01  0.00000000E+00
  9.55249411E+00  9.55249411E+00 -1.91049882E+01  0.00000000E+00  9.55249411E+00
  9.55249411E+00 -1.91049882E+01  0.00000000E+00  9.55249411E+00  9.55249411E+00
 -1.91049882E+01  0.00000000E+00  9.55249411E+00  9.55249411E+00 -1.91049882E+01
  0.00000000E+00  9.55249411E+00  9.55249411E+00 -1.91049882E+01  0.00000000E+00
  9.55249411E+00  9.55249411E+00 -1.91049882E+01  0.00000000E+00  9.55249411E+00
  9.55249411E+00 -1.91049882E+01  0.00000000E+00  9.55249411E+00  9.55249411E+00
 -1.91049882E+01  0.00000000E+00  9.55249411E+00  9.55249411E+00 -1.91049882E+01
  0.00000000E+00  9.55249411E+00  9.55249411E+00 -1.91049882E+01  0.00000000E+00
  9.55249411E+00  9.55249411E+00 -1.91049882E+01  0.00000000E+00  9.55249411E+00
  9.55249411E+00 -1.91049882E+01  0.00000000E+00  9.55249411E+00  9.55249411E+00
 -1.91049882E+01  0.00000000E+00  9.55249411E+00  9.55249411E+00 -1.91049882E+01
  0.00000000E+00  9.55249411E+00  9.55249411E+00 -1.91049882E+01  0.00000000E+00
  9.55249411E+00  9.55249411E+00 -1.91049882E+01  0.00000000E+00  9.55249411E+00
  9.55249411E+00 -1.91049882E+01  0.00000000E+00  9.55249411E+00  9.55249411E+00
 -1.91049882E+01  0.00000000E+00  9.55249411E+00  9.55249411E+00 -1.91049882E+01
  0.00000000E+00  9.55249411E+00  9.55249411E+00 -1.91049882E+01  0.00000000E+00
  9.55249411E+00  9.55249411E+00 -1.91049882E+01  0.00000000E+00  9.55249411E+00
  9.55249411E+00 -1.91049882E+01  0.00000000E+00  9.55249411E+00  9.55249411E+00
 -1.91049882E+01  0.00000000E+00  9.55249411E+00  9.55249411E+00 -1.91049882E+01
  0.00000000E+00  9.55249411E+00  9.55249411E+00 -1.91049882E+01  0.00000000E+00
  9.55249411E+00  9.55249411E+00 -1.91049882E+01  0.00000000E+00  9.55249411E+00
  9.55249411E+00 -1.91049882E+01  0.00000000E+00  9.55249411E+00  9.55249411E+00
 -1.91049882E+01  0.00000000E+00  9.55249411E+00  9.55249411E+00 -1.91049882E+01
  0.00000000E+00  9.55249411E+00  9.55249411E+00 -1.91049882E+01  0.00000000E+00
  9.55249411E+00  9.55249411E+00 -1.91049882E+01  0.00000000E+00  9.55249411E+00
  9.55249411E+00 -1.91049882E+01  0.00000000E+00  9.55249411E+00  9.55249411E+00
 -1.91049882E+01  0.00000000E+00  9.55249411E+00  9.55249411E+00 -1.91049882E+01
  0.00000000E+00  9.55249411E+00  9.55249411E+00 -1.91049882E+01  0.00000000E+00
  9.55249411E+00  9.55249411E+00 -1.91049882E+01  0.00000000E+00  9.55249411E+00
  9.55249411E+00 -1.91049882E+01  0.00000000E+00  9.55249411E+00  9.55249411E+00
 -1.91049882E+01  0.00000000E+00  9.55249411E+00  9.55249411E+00 -1.91049882E+01
  0.00000000E+00  9.55249411E+00  9.55249411E+00 -1.91049882E+01  0.00000000E+00
  9.55249411E+00  9.55249411E+00 -1.91049882E+01  0.00000000E+00  9.55249411E+00
  9.55249411E+00 -1.91049882E+01  0.00000000E+00  9.55249411E+00  9.55249411E+00
 -1.91049882E+01  0.00000000E+00  9.55249411E+00  9.55249411E+00 -1.91049882E+01
  0.00000000E+00  9.55249411E+00  9.55249411E+00 -1.91049882E+01  0.00000000E+00
  9.55249411E+00  9.55249411E+00 -1.91049882E+01  0.00000000E+00  9.55249411E+00
  9.55249411E+00 -1.91049882E+01  0.00000000E+00  9.55249411E+00  9.55249411E+00
 -1.91049882E+01  0.00000000E+00  9.55249411E+00  9.55249411E+00 -1.91049882E+01
  0.00000000E+00  9.55249411E+00  9.55249411E+00 -1.91049882E+01  0.00000000E+00
  9.55249411E+00  9.55249411E+00 -1.91049882E+01  0.00000000E+00  9.55249411E+00
  9.55249411E+00 -1.91049882E+01  0.00000000E+00  9.55249411E+00  9.55249411E+00
 -1.91049882E+01  0.00000000E+00  9.55249411E+00  9.55249411E+00 -1.91049882E+01
  0.00000000E+00  9.55249411E+00  9.55249411E+00 -1.91049882E+01  0.00000000E+00
  9.55249411E+00  9.55249411E+00 -1.91049882E+01  0.00000000E+00  9.55249411E+00
  9.55249411E+00 -1.91049882E+01  0.00000000E+00  9.55249411E+00  9.55249411E+00
 -1.91049882E+01  0.00000000E+00  9.55249411E+00  9.55249411E+00 -1.91049882E+01
  0.00000000E+00  9.55249411E+00  9.55249411E+00 -1.91049882E+01  0.00000000E+00
  9.55249411E+00  9.55249411E+00 -1.91049882E+01  0.00000000E+00  9.55249411E+00
  9.55249411E+00 -1.91049882E+01  0.00000000E+00  9.55249411E+00  9.55249411E+00
 -1.91049882E+01  0.00000000E+00  9.55249411E+00  9.55249411E+00 -1.91049882E+01
  0.00000000E+00  9.55249411E+00  9.55249411E+00 -1.91049882E+01  0.00000000E+00
  9.55249411E+00  9.55249411E+00 -1.91049882E+01  0.00000000E+00  9.55249411E+00
  9.55249411E+00 -1.91049882E+01  0.00000000E+00  9.55249411E+00  9.55249411E+00
 -1.91049882E+01  0.00000000E+00  9.55249411E+00  9.55249411E+00 -1.91049882E+01
  0.00000000E+00  9.55249411E+00  9.55249411E+00 -1.91049882E+01  0.00000000E+00
  9.55249411E+00  9.55249411E+00 -1.91049882E+01  0.00000000E+00  9.55249411E+00
  9.55249411E+00 -1.91049882E+01  0.00000000E+00  9.55249411E+00  9.55249411E+00
 -1.91049882E+01  0.00000000E+00  9.55249411E+00  9.55249411E+00 -1.91049882E+01
  0.00000000E+00  9.55249411E+00  9.55249411E+00 -1.91049882E+01  0.00000000E+00
  9.55249411E+00  9.55249411E+00 -1.91049882E+01  0.00000000E+00  9.55249411E+00
  9.55249411E+00 -1.91049882E+01  0.00000000E+00  9.55249411E+00  9.55249411E+00
 -1.91049882E+01  0.00000000E+00  9.55249411E+00  9.55249411E+00 -1.91049882E+01
  0.00000000E+00  9.55249411E+00  9.55249411E+00 -1.91049882E+01  0.00000000E+00
  9.55249411E+00  9.55249411E+00 -1.91049882E+01  0.00000000E+00  9.55249411E+00
  9.55249411E+00 -1.91049882E+01  0.00000000E+00  9.55249411E+00  9.55249411E+00
 -1.91049882E+01  0.00000000E+00  9.55249411E+00  9.55249411E+00 -1.91049882E+01
  0.00000000E+00  9.55249411E+00  9.55249411E+00 -1.91049882E+01  0.00000000E+00
  9.55249411E+00  9.55249411E+00 -1.91049882E+01  0.00000000E+00  9.55249411E+00
  9.55249411E+00 -1.91049882E+01  0.00000000E+00  9.55249411E+00  9.55249411E+00
 -1.91049882E+01  0.00000000E+00  9.55249411E+00  9.55249411E+00 -1.91049882E+01
  0.00000000E+00  9.55249411E+00  9.55249411E+00 -1.91049882E+01  0.00000000E+00
  9.55249411E+00  9.55249411E+00 -1.91049882E+01  0.00000000E+00  9.55249411E+00
  9.55249411E+00 -1.91049882E+01  0.00000000E+00  9.55249411E+00  9.55249411E+00
 -1.91049882E+01  0.00000000E+00  9.55249411E+00  9.55249411E+00 -1.91049882E+01
  0.00000000E+00  9.55249411E+00  9.55249411E+00 -1.91049882E+01  0.00000000E+00
  9.55249411E+00  9.55249411E+00 -1.91049882E+01  0.00000000E+00  9.55249411E+00
  9.55249411E+00 -1.91049882E+01  0.00000000E+00  9.55249411E+00  9.55249411E+00
 -1.91049882E+01  0.00000000E+00  9.55249411E+00  9.55249411E+00 -1.91049882E+01
  0.00000000E+00  9.55249411E+00  9.55249411E+00 -1.91049882E+01  0.00000000E+00
  9.55249411E+00  9.55249411E+00 -1.91049882E+01  0.00000000E+00  9.55249411E+00
  9.55249411E+00 -1.91049882E+01  0.00000000E+00  9.55249411E+00  9.55249411E+00
 -1.91049882E+01  0.00000000E+00  9.55249411E+00  9.55249411E+00 -1.91049882E+01
  0.00000000E+00  9.55249411E+00  9.55249411E+00 -1.91049882E+01  0.00000000E+00
  9.55249411E+00  9.55249411E+00 -1.91049882E+01  0.00000000E+00  9.55249411E+00
  9.55249411E+00 -1.91049882E+01  0.00000000E+00  9.55249411E+00  9.55249411E+00
 -1.91049882E+01  0.00000000E+00  9.55249411E+00  9.55249411E+00 -1.91049882E+01
  0.00000000E+00  9.55249411E+00  9.55249411E+00 -1.91049882E+01  0.00000000E+00
  9.55249411E+00  9.55249411E+00 -1.91049882E+01  0.00000000E+00  9.55249411E+00
  9.55249411E+00 -1.91049882E+01  0.00000000E+00  9.55249411E+00  9.55249411E+00
 -1.91049882E+01  0.00000000E+00  9.55249411E+00  9.55249411E+00 -1.91049882E+01
  0.00000000E+00  9.55249411E+00  9.55249411E+00 -1.91049882E+01  0.00000000E+00
  9.55249411E+00  9.55249411E+00 -1.91049882E+01  0.00000000E+00  9.55249411E+00
  9.55249411E+00 -1.91049882E+01  0.00000000E+00  9.55249411E+00  9.55249411E+00
 -1.91049882E+01  0.00000000E+00  9.55249411E+00  9.55249411E+00 -1.91049882E+01
  0.00000000E+00  9.55249411E+00  9.55249411E+00 -1.91049882E+01  0.00000000E+00
  9.55249411E+00  9.55249411E+00 -1.91049882E+01  0.00000000E+00  9.55249411E+00
  9.55249411E+00 -1.91049882E+01  0.00000000E+00  9.55249411E+00  9.55249411E+00
 -1.91049882E+01  0.00000000E+00  9.55249411E+00  9.55249411E+00 -1.91049882E+01
  0.00000000E+00  9.55249411E+00  9.55249411E+00 -1.91049882E+01  0.00000000E+00
  9.55249411E+00  9.55249411E+00 -1.91049882E+01  0.00000000E+00  9.55249411E+00
  9.55249411E+00 -1.91049882E+01  0.00000000E+00  9.55249411E+00  9.55249411E+00
 -1.91049882E+01  0.00000000E+00  9.55249411E+00  9.55249411E+00 -1.91049882E+01
  0.00000000E+00  9.55249411E+00  9.55249411E+00 -1.91049882E+01  0.00000000E+00
  9.55249411E+00  9.55249411E+00 -1.91049882E+01  0.00000000E+00  9.55249411E+00
  9.55249411E+00 -1.91049882E+01  0.00000000E+00  9.55249411E+00  9.55249411E+00
 -1.91049882E+01  0.00000000E+00  9.55249411E+00  9.55249411E+00 -1.91049882E+01
  0.00000000E+00  9.55249411E+00  9.55249411E+00 -1.91049882E+01  0.00000000E+00
  9.55249411E+00  9.55249411E+00 -1.91049882E+01  0.00000000E+00  9.55249411E+00
  9.55249411E+00 -1.91049882E+01  0.00000000E+00  9.55249411E+00  9.55249411E+00
 -1.91049882E+01  0.00000000E+00  9.55249411E+00  9.55249411E+00 -1.91049882E+01
  0.00000000E+00  9.55249411E+00  9.55249411E+00 -1.91049882E+01  0.00000000E+00
  9.55249411E+00  9.55249411E+00 -1.91049882E+01  0.00000000E+00  9.55249411E+00
  9.55249411E+00 -1.91049882E+01  0.00000000E+00  9.55249411E+00  9.55249411E+00
 -1.91049882E+01  0.00000000E+00  9.55249411E+00  9.55249411E+00 -1.91049882E+01
  0.00000000E+00  9.55249411E+00  9.55249411E+00 -1.91049882E+01  0.00000000E+00
  9.55249411E+00  9.55249411E+00 -1.91049882E+01  0.00000000E+00  9.55249411E+00
  9.55249411E+00 -1.91049882E+01  0.00000000E+00  9.55249411E+00  9.55249411E+00
 -1.91049882E+01  0.00000000E+00  9.55249411E+00  9.55249411E+00 -1.91049882E+01
  0.00000000E+00  9.55249411E+00  9.55249411E+00 -1.91049882E+01  0.00000000E+00
  9.55249411E+00  9.55249411E+00 -1.91049882E+01  0.00000000E+00  9.55249411E+00
  9.55249411E+00 -1.91049882E+01  0.00000000E+00  9.55249411E+00  9.55249411E+00
 -1.91049882E+01  0.00000000E+00  9.55249411E+00  9.55249411E+00 -1.91049882E+01
  0.00000000E+00  9.55249411E+00  9.55249411E+00 -1.91049882E+01  0.00000000E+00
  9.55249411E+00  9.55249411E+00 -1.91049882E+01  0.00000000E+00  9.55249411E+00
  9.55249411E+00 -1.91049882E+01  0.00000000E+00  9.55249411E+00  9.55249411E+00
 -1.91049882E+01  0.00000000E+00  9.55249411E+00  9.55249411E+00 -1.91049882E+01
  0.00000000E+00  9.55249411E+00  9.55249411E+00 -1.91049882E+01  0.00000000E+00
  9.55249411E+00  9.55249411E+00 -1.91049882E+01  0.00000000E+00  9.55249411E+00
  9.55249411E+00 -1.91049882E+01  0.00000000E+00  9.55249411E+00  9.55249411E+00
 -1.91049882E+01  0.00000000E+00  9.55249411E+00  9.55249411E+00 -1.91049882E+01
  0.00000000E+00  9.55249411E+00  9.55249411E+00 -1.91049882E+01  0.00000000E+00
  9.55249411E+00  9.55249411E+00 -1.91049882E+01  0.00000000E+00  9.55249411E+00
  9.55249411E+00 -1.91049882E+01  0.00000000E+00  9.55249411E+00  9.55249411E+00
 -1.91049882E+01  0.00000000E+00  9.55249411E+00  9.55249411E+00 -1.91049882E+01
  0.00000000E+00  9.55249411E+00  9.55249411E+00 -1.91049882E+01  0.00000000E+00
  9.55249411E+00  9.55249411E+00 -1.91049882E+01  0.00000000E+00  9.55249411E+00
  9.55249411E+00 -1.91049882E+01  0.00000000E+00  9.55249411E+00  9.55249411E+00
 -1.91049882E+01  0.00000000E+00  9.55249411E+00  9.55249411E+00 -1.91049882E+01
  0.00000000E+00  9.55249411E+00  9.55249411E+00 -1.91049882E+01  0.00000000E+00
  9.55249411E+00  9.55249411E+00 -1.91049882E+01  0.00000000E+00  9.55249411E+00
  9.55249411E+00 -1.91049882E+01  0.00000000E+00  9.55249411E+00  9.55249411E+00
 -1.91049882E+01  0.00000000E+00  9.55249411E+00  9.55249411E+00 -1.91049882E+01
  0.00000000E+00  9.55249411E+00  9.55249411E+00 -1.91049882E+01  0.00000000E+00
  9.55249411E+00  9.55249411E+00 -1.91049882E+01  0.00000000E+00  9.55249411E+00
  9.55249411E+00 -1.91049882E+01  0.00000000E+00  9.55249411E+00  9.55249411E+00
 -1.91049882E+01  0.00000000E+00  9.55249411E+00  9.55249411E+00 -1.91049882E+01
  0.00000000E+00  9.55249411E+00  9.55249411E+00 -1.91049882E+01  0.00000000E+00
  9.55249411E+00  9.55249411E+00 -1.91049882E+01  0.00000000E+00  9.55249411E+00
  9.55249411E+00 -1.91049882E+01  0.00000000E+00  9.55249411E+00  9.55249411E+00
 -1.91049882E+01  0.00000000E+00  9.55249411E+00  9.55249411E+00 -1.91049882E+01
  0.00000000E+00  9.55249411E+00  9.55249411E+00 -1.91049882E+01  0.00000000E+00
  9.55249411E+00  9.55249411E+00 -1.91049882E+01  0.00000000E+00  9.55249411E+00
  9.55249411E+00 -1.91049882E+01  0.00000000E+00  9.55249411E+00  9.55249411E+00
 -1.91049882E+01  0.00000000E+00  9.55249411E+00  9.55249411E+00 -1.91049882E+01
  0.00000000E+00  9.55249411E+00  9.55249411E+00 -1.91049882E+01  0.00000000E+00
  9.55249411E+00  9.55249411E+00 -1.91049882E+01  0.00000000E+00  9.55249411E+00
  9.55249411E+00 -1.91049882E+01  0.00000000E+00  9.55249411E+00  9.55249411E+00
 -1.91049882E+01  0.00000000E+00  9.55249411E+00  9.55249411E+00 -1.91049882E+01
  0.00000000E+00  9.55249411E+00  9.55249411E+00 -1.91049882E+01  0.00000000E+00
  9.55249411E+00  9.55249411E+00 -1.91049882E+01  0.00000000E+00  9.55249411E+00
  9.55249411E+00 -1.91049882E+01  0.00000000E+00  9.55249411E+00  9.55249411E+00
 -1.91049882E+01  0.00000000E+00  9.55249411E+00  9.55249411E+00 -1.91049882E+01
  0.00000000E+00  9.55249411E+00  9.55249411E+00 -1.91049882E+01  0.00000000E+00
  9.55249411E+00  9.55249411E+00 -1.91049882E+01  0.00000000E+00  9.55249411E+00
  9.55249411E+00 -1.91049882E+01  0.00000000E+00  9.55249411E+00  9.55249411E+00
 -1.91049882E+01  0.00000000E+00  9.55249411E+00  9.55249411E+00 -1.91049882E+01
  0.00000000E+00  9.55249411E+00  9.55249411E+00 -1.91049882E+01  0.00000000E+00
  9.55249411E+00  9.55249411E+00 -1.91049882E+01  0.00000000E+00  9.55249411E+00
  9.55249411E+00 -1.91049882E+01  0.00000000E+00  9.55249411E+00  9.55249411E+00
 -1.91049882E+01  0.00000000E+00  9.55249411E+00  9.55249411E+00 -1.91049882E+01
  0.00000000E+00  9.55249411E+00  9.55249411E+00 -1.91049882E+01  0.00000000E+00
  9.55249411E+00  9.55249411E+00 -1.91049882E+01  0.00000000E+00  9.55249411E+00
  9.55249411E+00 -1.91049882E+01  0.00000000E+00  9.55249411E+00  9.55249411E+00
 -1.91049882E+01  0.00000000E+00  9.55249411E+00  9.55249411E+00 -1.91049882E+01
  0.00000000E+00  9.55249411E+00  9.55249411E+00 -1.91049882E+01  0.00000000E+00
  9.55249411E+00  9.55249411E+00 -1.91049882E+01  0.00000000E+00  9.55249411E+00
  9.55249411E+00 -1.91049882E+01  0.00000000E+00  9.55249411E+00  9.55249411E+00
 -1.91049882E+01  0.00000000E+00  9.55249411E+00  9.55249411E+00 -1.91049882E+01
  0.00000000E+00  9.55249411E+00  9.55249411E+00 -1.91049882E+01  0.00000000E+00
  9.55249411E+00  9.55249411E+00 -1.91049882E+01  0.00000000E+00  9.55249411E+00
  9.55249411E+00 -1.91049882E+01  0.00000000E+00  9.55249411E+00  9.55249411E+00
 -1.91049882E+01  0.00000000E+00  9.55249411E+00  9.55249411E+00 -1.91049882E+01
  0.00000000E+00  9.55249411E+00  9.55249411E+00 -1.91049882E+01  0.00000000E+00
  9.55249411E+00  9.55249411E+00 -1.91049882E+01  0.00000000E+00  9.55249411E+00
  9.55249411E+00 -1.91049882E+01  0.00000000E+00  9.55249411E+00  9.55249411E+00
 -1.91049882E+01  0.00000000E+00  9.55249411E+00  9.55249411E+00 -1.91049882E+01
  0.00000000E+00  9.55249411E+00  9.55249411E+00 -1.91049882E+01  0.00000000E+00
  9.55249411E+00  9.55249411E+00 -1.91049882E+01  0.00000000E+00  9.55249411E+00
  9.55249411E+00 -1.91049882E+01  0.00000000E+00  9.55249411E+00  9.55249411E+00
 -1.91049882E+01  0.00000000E+00  9.55249411E+00  9.55249411E+00 -1.91049882E+01
  0.00000000E+00  9.55249411E+00  9.55249411E+00 -1.91049882E+01  0.00000000E+00
  9.55249411E+00  9.55249411E+00 -1.91049882E+01  0.00000000E+00  9.55249411E+00
  9.55249411E+00 -1.91049882E+01  0.00000000E+00  9.55249411E+00  9.55249411E+00
 -1.91049882E+01  0.00000000E+00  9.55249411E+00  9.55249411E+00 -1.91049882E+01
  0.00000000E+00  9.55249411E+00  9.55249411E+00 -1.91049882E+01  0.00000000E+00
  9.55249411E+00  9.55249411E+00 -1.91049882E+01  0.00000000E+00  9.55249411E+00
  9.55249411E+00 -1.91049882E+01  0.00000000E+00  9.55249411E+00  9.55249411E+00
 -1.91049882E+01  0.00000000E+00  9.55249411E+00  9.55249411E+00 -1.91049882E+01
  0.00000000E+00  9.55249411E+00  9.55249411E+00 -1.91049882E+01  0.00000000E+00
  9.55249411E+00  9.55249411E+00 -1.91049882E+01  0.00000000E+00  9.55249411E+00
  9.55249411E+00 -1.91049882E+01  0.00000000E+00  9.55249411E+00  9.55249411E+00
 -1.91049882E+01  0.00000000E+00  9.55249411E+00  9.55249411E+00 -1.91049882E+01
  0.00000000E+00  9.55249411E+00  9.55249411E+00 -1.91049882E+01  0.00000000E+00
  9.55249411E+00  9.55249411E+00 -1.91049882E+01  0.00000000E+00  9.55249411E+00
  9.55249411E+00 -1.91049882E+01  0.00000000E+00  9.55249411E+00  9.55249411E+00
 -1.91049882E+01  0.00000000E+00  9.55249411E+00  9.55249411E+00 -1.91049882E+01
  0.00000000E+00  9.55249411E+00  9.55249411E+00 -1.91049882E+01  0.00000000E+00
  9.55249411E+00  9.55249411E+00 -1.91049882E+01  0.00000000E+00  9.55249411E+00
  9.55249411E+00 -1.91049882E+01  0.00000000E+00  9.55249411E+00  9.55249411E+00
 -1.91049882E+01  0.00000000E+00  9.55249411E+00  9.55249411E+00 -1.91049882E+01
  0.00000000E+00  9.55249411E+00  9.55249411E+00 -1.91049882E+01  0.00000000E+00
  9.55249411E+00  9.55249411E+00 -1.91049882E+01  0.00000000E+00  9.55249411E+00
  9.55249411E+00 -1.91049882E+01  0.00000000E+00  9.55249411E+00  9.55249411E+00
 -1.91049882E+01  0.00000000E+00  9.55249411E+00  9.55249411E+00 -1.91049882E+01
  0.00000000E+00  9.55249411E+00  9.55249411E+00 -1.91049882E+01  0.00000000E+00
  9.55249411E+00  9.55249411E+00 -1.91049882E+01  0.00000000E+00  9.55249411E+00
  9.55249411E+00 -1.91049882E+01  0.00000000E+00  9.55249411E+00  9.55249411E+00
 -1.91049882E+01  0.00000000E+00  9.55249411E+00  9.55249411E+00 -1.91049882E+01
  0.00000000E+00  9.55249411E+00  9.55249411E+00 -1.91049882E+01  0.00000000E+00
  9.55249411E+00  9.55249411E+00 -1.91049882E+01  0.00000000E+00  9.55249411E+00
  9.55249411E+00 -1.91049882E+01  0.00000000E+00  9.55249411E+00  9.55249411E+00
 -1.91049882E+01  0.00000000E+00  9.55249411E+00  9.55249411E+00 -1.91049882E+01
  0.00000000E+00  9.55249411E+00  9.55249411E+00 -1.91049882E+01  0.00000000E+00
  9.55249411E+00  9.55249411E+00 -1.91049882E+01  0.00000000E+00  9.55249411E+00
  9.55249411E+00 -1.91049882E+01  0.00000000E+00  9.55249411E+00  9.55249411E+00
 -1.91049882E+01  0.00000000E+00  9.55249411E+00  9.55249411E+00 -1.91049882E+01
  0.00000000E+00  9.55249411E+00  9.55249411E+00 -1.91049882E+01  0.00000000E+00
  9.55249411E+00  9.55249411E+00 -1.91049882E+01  0.00000000E+00  9.55249411E+00
  9.55249411E+00 -1.91049882E+01  0.00000000E+00  9.55249411E+00  9.55249411E+00
 -1.91049882E+01  0.00000000E+00  9.55249411E+00  9.55249411E+00 -1.91049882E+01
  0.00000000E+00  9.55249411E+00  9.55249411E+00 -1.91049882E+01  0.00000000E+00
  9.55249411E+00  9.55249411E+00 -1.91049882E+01  0.00000000E+00  9.55249411E+00
  9.55249411E+00 -1.91049882E+01  0.00000000E+00  9.55249411E+00  9.55249411E+00
 -1.91049882E+01  0.00000000E+00  9.55249411E+00  9.55249411E+00 -1.91049882E+01
  0.00000000E+00  9.55249411E+00  9.55249411E+00 -1.91049882E+01  0.00000000E+00
  9.55249411E+00  9.55249411E+00 -1.91049882E+01  0.00000000E+00  9.55249411E+00
  9.55249411E+00 -1.91049882E+01  0.00000000E+00  9.55249411E+00  9.55249411E+00
 -1.91049882E+01  0.00000000E+00  9.55249411E+00  9.55249411E+00 -1.91049882E+01
  0.00000000E+00  9.55249411E+00  9.55249411E+00 -1.91049882E+01  0.00000000E+00
  9.55249411E+00  9.55249411E+00 -1.91049882E+01  0.00000000E+00  9.55249411E+00
  9.55249411E+00 -1.91049882E+01  0.00000000E+00  9.55249411E+00  9.55249411E+00
 -1.91049882E+01  0.00000000E+00  9.55249411E+00  9.55249411E+00 -1.91049882E+01
  0.00000000E+00  9.55249411E+00  9.55249411E+00 -1.91049882E+01  0.00000000E+00
  9.55249411E+00  9.55249411E+00 -1.91049882E+01  0.00000000E+00  9.55249411E+00
  9.55249411E+00 -1.91049882E+01  0.00000000E+00  9.55249411E+00  9.55249411E+00
 -1.91049882E+01  0.00000000E+00  9.55249411E+00  9.55249411E+00 -1.91049882E+01
  0.00000000E+00  9.55249411E+00  9.55249411E+00 -1.91049882E+01  0.00000000E+00
  9.55249411E+00  9.55249411E+00 -1.91049882E+01  0.00000000E+00  9.55249411E+00
  9.55249411E+00 -1.91049882E+01  0.00000000E+00  9.55249411E+00  9.55249411E+00
 -1.91049882E+01  0.00000000E+00  9.55249411E+00  9.55249411E+00 -1.91049882E+01
  0.00000000E+00  9.55249411E+00  9.55249411E+00 -1.91049882E+01  0.00000000E+00
  9.55249411E+00  9.55249411E+00 -1.91049882E+01  0.00000000E+00  9.55249411E+00
  9.55249411E+00 -1.91049882E+01  0.00000000E+00  9.55249411E+00  9.55249411E+00
 -1.91049882E+01  0.00000000E+00  9.55249411E+00  9.55249411E+00 -1.91049882E+01
  0.00000000E+00  9.55249411E+00  9.55249411E+00 -1.91049882E+01  0.00000000E+00
  9.55249411E+00  9.55249411E+00 -1.91049882E+01  0.00000000E+00  9.55249411E+00
  9.55249411E+00 -1.91049882E+01  0.00000000E+00  9.55249411E+00  9.55249411E+00
 -1.91049882E+01  0.00000000E+00  9.55249411E+00  9.55249411E+00 -1.91049882E+01
  0.00000000E+00  9.55249411E+00  9.55249411E+00 -1.91049882E+01  0.00000000E+00
  9.55249411E+00  9.55249411E+00 -1.91049882E+01  0.00000000E+00  9.55249411E+00
  9.55249411E+00 -1.91049882E+01  0.00000000E+00  9.55249411E+00  9.55249411E+00
 -1.91049882E+01  0.00000000E+00  9.55249411E+00  9.55249411E+00 -1.91049882E+01
  0.00000000E+00  9.55249411E+00  9.55249411E+00 -1.91049882E+01  0.00000000E+00
  9.55249411E+00  9.55249411E+00 -1.91049882E+01  0.00000000E+00  9.55249411E+00
  9.55249411E+00 -1.91049882E+01  0.00000000E+00  9.55249411E+00  9.55249411E+00
 -1.91049882E+01  0.00000000E+00  9.55249411E+00  9.55249411E+00 -1.91049882E+01
  0.00000000E+00  9.55249411E+00  9.55249411E+00 -1.91049882E+01  0.00000000E+00
  9.55249411E+00  9.55249411E+00 -1.91049882E+01  0.00000000E+00  9.55249411E+00
  9.55249411E+00 -1.91049882E+01  0.00000000E+00  9.55249411E+00  9.55249411E+00
 -1.91049882E+01  0.00000000E+00  9.55249411E+00  9.55249411E+00 -1.91049882E+01
  0.00000000E+00  9.55249411E+00  9.55249411E+00 -1.91049882E+01  0.00000000E+00
  9.55249411E+00  9.55249411E+00 -1.91049882E+01  0.00000000E+00  9.55249411E+00
  9.55249411E+00 -1.91049882E+01  0.00000000E+00  9.55249411E+00  9.55249411E+00
 -1.91049882E+01  0.00000000E+00  9.55249411E+00  9.55249411E+00 -1.91049882E+01
  0.00000000E+00  9.55249411E+00  9.55249411E+00 -1.91049882E+01  0.00000000E+00
  9.55249411E+00  9.55249411E+00 -1.91049882E+01  0.00000000E+00  9.55249411E+00
  9.55249411E+00 -1.91049882E+01  0.00000000E+00  9.55249411E+00  9.55249411E+00
 -1.91049882E+01  0.00000000E+00  9.55249411E+00  9.55249411E+00 -1.91049882E+01
  0.00000000E+00  9.55249411E+00  9.55249411E+00 -1.91049882E+01  0.00000000E+00
  9.55249411E+00  9.55249411E+00 -1.91049882E+01  0.00000000E+00  9.55249411E+00
  9.55249411E+00 -1.91049882E+01  0.00000000E+00  9.55249411E+00  9.55249411E+00
 -1.91049882E+01  0.00000000E+00  9.55249411E+00  9.55249411E+00 -1.91049882E+01
  0.00000000E+00  9.55249411E+00  9.55249411E+00 -1.91049882E+01  0.00000000E+00
  9.55249411E+00  9.55249411E+00 -1.91049882E+01  0.00000000E+00  9.55249411E+00
  9.55249411E+00 -1.91049882E+01  0.00000000E+00  9.55249411E+00  9.55249411E+00
 -1.91049882E+01  0.00000000E+00  9.55249411E+00  9.55249411E+00 -1.91049882E+01
  0.00000000E+00  9.55249411E+00  9.55249411E+00 -1.91049882E+01  0.00000000E+00
  9.55249411E+00  9.55249411E+00 -1.91049882E+01  0.00000000E+00  9.55249411E+00
  9.55249411E+00 -1.91049882E+01  0.00000000E+00  9.55249411E+00  9.55249411E+00
 -1.91049882E+01  0.00000000E+00  9.55249411E+00  9.55249411E+00 -1.91049882E+01
  0.00000000E+00  9.55249411E+00  9.55249411E+00 -1.91049882E+01  0.00000000E+00
  9.55249411E+00  9.55249411E+00 -1.91049882E+01  0.00000000E+00  9.55249411E+00
  9.55249411E+00 -1.91049882E+01  0.00000000E+00  9.55249411E+00  9.55249411E+00
 -1.91049882E+01  0.00000000E+00  9.55249411E+00  9.55249411E+00 -1.91049882E+01
  0.00000000E+00  9.55249411E+00  9.55249411E+00 -1.91049882E+01  0.00000000E+00
  9.55249411E+00  9.55249411E+00 -1.91049882E+01  0.00000000E+00  9.55249411E+00
  9.55249411E+00 -1.91049882E+01  0.00000000E+00  9.55249411E+00  9.55249411E+00
 -1.91049882E+01  0.00000000E+00  9.55249411E+00  9.55249411E+00 -1.91049882E+01
  0.00000000E+00  9.55249411E+00  9.55249411E+00 -1.91049882E+01  0.00000000E+00
  9.55249411E+00  9.55249411E+00 -1.91049882E+01  0.00000000E+00  9.55249411E+00
  9.55249411E+00 -1.91049882E+01  0.00000000E+00  9.55249411E+00  9.55249411E+00
 -1.91049882E+01  0.00000000E+00  9.55249411E+00  9.55249411E+00 -1.91049882E+01
  0.00000000E+00  9.55249411E+00  9.55249411E+00 -1.91049882E+01  0.00000000E+00
  9.55249411E+00  9.55249411E+00 -1.91049882E+01  0.00000000E+00  9.55249411E+00
  9.55249411E+00 -1.91049882E+01  0.00000000E+00  9.55249411E+00  9.55249411E+00
 -1.91049882E+01  0.00000000E+00  9.55249411E+00  9.55249411E+00 -1.91049882E+01
  0.00000000E+00  9.55249411E+00  9.55249411E+00 -1.91049882E+01  0.00000000E+00
  9.55249411E+00  9.55249411E+00 -1.91049882E+01  0.00000000E+00  9.55249411E+00
  9.55249411E+00 -1.91049882E+01  0.00000000E+00  9.55249411E+00  9.55249411E+00
 -1.91049882E+01  0.00000000E+00  9.55249411E+00  9.55249411E+00 -1.91049882E+01
  0.00000000E+00  9.55249411E+00  9.55249411E+00 -1.91049882E+01  0.00000000E+00
  9.55249411E+00  9.55249411E+00 -1.91049882E+01  0.00000000E+00  9.55249411E+00
  9.55249411E+00 -1.91049882E+01  0.00000000E+00  9.55249411E+00  9.55249411E+00
 -1.91049882E+01  0.00000000E+00  9.55249411E+00  9.55249411E+00 -1.91049882E+01
  0.00000000E+00  9.55249411E+00  9.55249411E+00 -1.91049882E+01  0.00000000E+00
  9.55249411E+00  9.55249411E+00 -1.91049882E+01  0.00000000E+00  9.55249411E+00
  9.55249411E+00 -1.91049882E+01  0.00000000E+00  9.55249411E+00  9.55249411E+00
 -1.91049882E+01  0.00000000E+00  9.55249411E+00  9.55249411E+00 -1.91049882E+01
  0.00000000E+00  9.55249411E+00  9.55249411E+00 -1.91049882E+01  0.00000000E+00
  9.55249411E+00  9.55249411E+00 -1.91049882E+01  0.00000000E+00  9.55249411E+00
  9.55249411E+00 -1.91049882E+01  0.00000000E+00  9.55249411E+00  9.55249411E+00
 -1.91049882E+01  0.00000000E+00  9.55249411E+00  9.55249411E+00 -1.91049882E+01
  0.00000000E+00  9.55249411E+00  9.55249411E+00 -1.91049882E+01  0.00000000E+00
  9.55249411E+00  9.55249411E+00 -1.91049882E+01  0.00000000E+00  9.55249411E+00
  9.55249411E+00 -1.91049882E+01  0.00000000E+00  9.55249411E+00  9.55249411E+00
 -1.91049882E+01  0.00000000E+00  9.55249411E+00  9.55249411E+00 -1.91049882E+01
  0.00000000E+00  9.55249411E+00  9.55249411E+00 -1.91049882E+01  0.00000000E+00
  9.55249411E+00  9.55249411E+00 -1.91049882E+01  0.00000000E+00  9.55249411E+00
  9.55249411E+00 -1.91049882E+01  0.00000000E+00  9.55249411E+00  9.55249411E+00
 -1.91049882E+01  0.00000000E+00  9.55249411E+00  9.55249411E+00 -1.91049882E+01
  0.00000000E+00  9.55249411E+00  9.55249411E+00 -1.91049882E+01  0.00000000E+00
  9.55249411E+00  9.55249411E+00 -1.91049882E+01  0.00000000E+00  9.55249411E+00
  9.55249411E+00 -1.91049882E+01  0.00000000E+00  9.55249411E+00  9.55249411E+00
 -1.91049882E+01  0.00000000E+00  9.55249411E+00  9.55249411E+00 -1.91049882E+01
  0.00000000E+00  9.55249411E+00  9.55249411E+00 -1.91049882E+01  0.00000000E+00
  9.55249411E+00  9.55249411E+00 -1.91049882E+01  0.00000000E+00  9.55249411E+00
  9.55249411E+00 -1.91049882E+01  0.00000000E+00  9.55249411E+00  9.55249411E+00
 -1.91049882E+01  0.00000000E+00  9.55249411E+00  9.55249411E+00 -1.91049882E+01
  0.00000000E+00  9.55249411E+00  9.55249411E+00 -1.91049882E+01  0.00000000E+00
  9.55249411E+00  9.55249411E+00 -1.91049882E+01  0.00000000E+00  9.55249411E+00
  9.55249411E+00 -1.91049882E+01  0.00000000E+00  9.55249411E+00  9.55249411E+00
 -1.91049882E+01  0.00000000E+00  9.55249411E+00  9.55249411E+00 -1.91049882E+01
  0.00000000E+00  9.55249411E+00  9.55249411E+00 -1.91049882E+01  0.00000000E+00
  9.55249411E+00  9.55249411E+00 -1.91049882E+01  0.00000000E+00  9.55249411E+00
  9.55249411E+00 -1.91049882E+01  0.00000000E+00  9.55249411E+00  9.55249411E+00
 -1.91049882E+01  0.00000000E+00  9.55249411E+00  9.55249411E+00 -1.91049882E+01
  0.00000000E+00  9.55249411E+00  9.55249411E+00 -1.91049882E+01  0.00000000E+00
  9.55249411E+00  9.55249411E+00 -1.91049882E+01  0.00000000E+00  9.55249411E+00
  9.55249411E+00 -1.91049882E+01  0.00000000E+00  9.55249411E+00  9.55249411E+00
 -1.91049882E+01  0.00000000E+00  9.55249411E+00  9.55249411E+00 -1.91049882E+01
  0.00000000E+00  9.55249411E+00  9.55249411E+00 -1.91049882E+01  0.00000000E+00
  9.55249411E+00  9.55249411E+00 -1.91049882E+01  0.00000000E+00  9.55249411E+00
  9.55249411E+00 -1.91049882E+01  0.00000000E+00  9.55249411E+00  9.55249411E+00
 -1.91049882E+01  0.00000000E+00  9.55249411E+00  9.55249411E+00 -1.91049882E+01
  0.00000000E+00  9.55249411E+00  9.55249411E+00 -1.91049882E+01  0.00000000E+00
  9.55249411E+00  9.55249411E+00 -1.91049882E+01  0.00000000E+00  9.55249411E+00
  9.55249411E+00 -1.91049882E+01  0.00000000E+00  9.55249411E+00  9.55249411E+00
 -1.91049882E+01  0.00000000E+00  9.55249411E+00  9.55249411E+00 -1.91049882E+01
  0.00000000E+00  9.55249411E+00  9.55249411E+00 -1.91049882E+01  0.00000000E+00
  9.55249411E+00  9.55249411E+00 -1.91049882E+01  0.00000000E+00  9.55249411E+00
  9.55249411E+00 -1.91049882E+01  0.00000000E+00  9.55249411E+00  9.55249411E+00
 -1.91049882E+01  0.00000000E+00  9.55249411E+00  9.55249411E+00 -1.91049882E+01
  0.00000000E+00  9.55249411E+00  9.55249411E+00 -1.91049882E+01  0.00000000E+00
  9.55249411E+00  9.55249411E+00 -1.91049882E+01  0.00000000E+00  9.55249411E+00
  9.55249411E+00 -1.91049882E+01  0.00000000E+00  9.55249411E+00  9.55249411E+00
 -1.91049882E+01  0.00000000E+00  9.55249411E+00  9.55249411E+00 -1.91049882E+01
  0.00000000E+00  9.55249411E+00  9.55249411E+00 -1.91049882E+01  0.00000000E+00
  9.55249411E+00  9.55249411E+00 -1.91049882E+01  0.00000000E+00  9.55249411E+00
  9.55249411E+00 -1.91049882E+01  0.00000000E+00  9.55249411E+00  9.55249411E+00
 -1.91049882E+01  0.00000000E+00  9.55249411E+00  9.55249411E+00 -1.91049882E+01
  0.00000000E+00  9.55249411E+00  9.55249411E+00 -1.91049882E+01  0.00000000E+00
  9.55249411E+00  9.55249411E+00 -1.91049882E+01  0.00000000E+00  9.55249411E+00
  9.55249411E+00 -1.91049882E+01  0.00000000E+00  9.55249411E+00  9.55249411E+00
 -1.91049882E+01  0.00000000E+00  9.55249411E+00  9.55249411E+00 -1.91049882E+01
  0.00000000E+00  9.55249411E+00  9.55249411E+00 -1.91049882E+01  0.00000000E+00
  9.55249411E+00  9.55249411E+00 -1.91049882E+01  0.00000000E+00  9.55249411E+00
  9.55249411E+00 -1.91049882E+01  0.00000000E+00  9.55249411E+00  9.55249411E+00
 -1.91049882E+01  0.00000000E+00  9.55249411E+00  9.55249411E+00 -1.91049882E+01
  0.00000000E+00  9.55249411E+00  9.55249411E+00 -1.91049882E+01  0.00000000E+00
  9.55249411E+00  9.55249411E+00 -1.91049882E+01  0.00000000E+00  9.55249411E+00
  9.55249411E+00 -1.91049882E+01  0.00000000E+00  9.55249411E+00  9.55249411E+00
 -1.91049882E+01  0.00000000E+00  9.55249411E+00  9.55249411E+00 -1.91049882E+01
  0.00000000E+00  9.55249411E+00  9.55249411E+00 -1.91049882E+01  0.00000000E+00
  9.55249411E+00  9.55249411E+00 -1.91049882E+01  0.00000000E+00  9.55249411E+00
  9.55249411E+00 -1.91049882E+01  0.00000000E+00  9.55249411E+00  9.55249411E+00
 -1.91049882E+01  0.00000000E+00  9.55249411E+00  9.55249411E+00 -1.91049882E+01
  0.00000000E+00  9.55249411E+00  9.55249411E+00 -1.91049882E+01  0.00000000E+00
  9.55249411E+00  9.55249411E+00 -1.91049882E+01  0.00000000E+00  9.55249411E+00
  9.55249411E+00 -1.91049882E+01  0.00000000E+00  9.55249411E+00  9.55249411E+00
 -1.91049882E+01  0.00000000E+00  9.55249411E+00  9.55249411E+00 -1.91049882E+01
  0.00000000E+00  9.55249411E+00  9.55249411E+00 -1.91049882E+01  0.00000000E+00
  9.55249411E+00  9.55249411E+00 -1.91049882E+01  0.00000000E+00  9.55249411E+00
  9.55249411E+00 -1.91049882E+01  0.00000000E+00  9.55249411E+00  9.55249411E+00
 -1.91049882E+01  0.00000000E+00  9.55249411E+00  9.55249411E+00 -1.91049882E+01
  0.00000000E+00  9.55249411E+00  9.55249411E+00 -1.91049882E+01  0.00000000E+00
  9.55249411E+00  9.55249411E+00 -1.91049882E+01  0.00000000E+00  9.55249411E+00
  9.55249411E+00 -1.91049882E+01  0.00000000E+00  9.55249411E+00  9.55249411E+00
 -1.91049882E+01  0.00000000E+00  9.55249411E+00  9.55249411E+00 -1.91049882E+01
  0.00000000E+00  9.55249411E+00  9.55249411E+00 -1.91049882E+01  0.00000000E+00
  9.55249411E+00  9.55249411E+00 -1.91049882E+01  0.00000000E+00  9.55249411E+00
  9.55249411E+00 -1.91049882E+01  0.00000000E+00  9.55249411E+00  9.55249411E+00
 -1.91049882E+01  0.00000000E+00  9.55249411E+00  9.55249411E+00 -1.91049882E+01
  0.00000000E+00  9.55249411E+00  9.55249411E+00 -1.91049882E+01  0.00000000E+00
  9.55249411E+00  9.55249411E+00 -1.91049882E+01  0.00000000E+00  9.55249411E+00
  9.55249411E+00 -1.91049882E+01  0.00000000E+00  9.55249411E+00  9.55249411E+00
 -1.91049882E+01  0.00000000E+00  9.55249411E+00  9.55249411E+00 -1.91049882E+01
  0.00000000E+00  9.55249411E+00  9.55249411E+00 -1.91049882E+01  0.00000000E+00
  9.55249411E+00  9.55249411E+00 -1.91049882E+01  0.00000000E+00  9.55249411E+00
  9.55249411E+00 -1.91049882E+01  0.00000000E+00  9.55249411E+00  9.55249411E+00
 -1.91049882E+01  0.00000000E+00  9.55249411E+00  9.55249411E+00 -1.91049882E+01
  0.00000000E+00  9.55249411E+00  9.55249411E+00 -1.91049882E+01  0.00000000E+00
  9.55249411E+00  9.55249411E+00 -1.91049882E+01  0.00000000E+00  9.55249411E+00
  9.55249411E+00 -1.91049882E+01  0.00000000E+00  9.55249411E+00  9.55249411E+00
 -1.91049882E+01  0.00000000E+00  9.55249411E+00  9.55249411E+00 -1.91049882E+01
  0.00000000E+00  9.55249411E+00  9.55249411E+00 -1.91049882E+01  0.00000000E+00
  9.55249411E+00  9.55249411E+00 -1.91049882E+01  0.00000000E+00  9.55249411E+00
  9.55249411E+00 -1.91049882E+01  0.00000000E+00  9.55249411E+00  9.55249411E+00
 -1.91049882E+01  0.00000000E+00  9.55249411E+00  9.55249411E+00 -1.91049882E+01
  0.00000000E+00  9.55249411E+00  9.55249411E+00 -1.91049882E+01  0.00000000E+00
  9.55249411E+00  9.55249411E+00 -1.91049882E+01  0.00000000E+00  9.55249411E+00
  9.55249411E+00 -1.91049882E+01  0.00000000E+00  9.55249411E+00  9.55249411E+00
 -1.91049882E+01  0.00000000E+00  9.55249411E+00  9.55249411E+00 -1.91049882E+01
  0.00000000E+00  9.55249411E+00  9.55249411E+00 -1.91049882E+01  0.00000000E+00
  9.55249411E+00  9.55249411E+00 -1.91049882E+01  0.00000000E+00  9.55249411E+00
  9.55249411E+00 -1.91049882E+01  0.00000000E+00  9.55249411E+00  9.55249411E+00
 -1.91049882E+01  0.00000000E+00  9.55249411E+00  9.55249411E+00 -1.91049882E+01
  0.00000000E+00  9.55249411E+00  9.55249411E+00 -1.91049882E+01  0.00000000E+00
  9.55249411E+00  9.55249411E+00 -1.91049882E+01  0.00000000E+00  9.55249411E+00
  9.55249411E+00 -1.91049882E+01  0.00000000E+00  9.55249411E+00  9.55249411E+00
 -1.91049882E+01  0.00000000E+00  9.55249411E+00  9.55249411E+00 -1.91049882E+01
  0.00000000E+00  9.55249411E+00  9.55249411E+00 -1.91049882E+01  0.00000000E+00
  9.55249411E+00  9.55249411E+00 -1.91049882E+01  0.00000000E+00  9.55249411E+00
  9.55249411E+00 -1.91049882E+01  0.00000000E+00  9.55249411E+00  9.55249411E+00
 -1.91049882E+01  0.00000000E+00  9.55249411E+00  9.55249411E+00 -1.91049882E+01
  0.00000000E+00  9.55249411E+00  9.55249411E+00 -1.91049882E+01  0.00000000E+00
  9.55249411E+00  9.55249411E+00 -1.91049882E+01  0.00000000E+00  9.55249411E+00
  9.55249411E+00 -1.91049882E+01  0.00000000E+00  9.55249411E+00  9.55249411E+00
 -1.91049882E+01  0.00000000E+00  9.55249411E+00  9.55249411E+00 -1.91049882E+01
  0.00000000E+00  9.55249411E+00  9.55249411E+00 -1.91049882E+01  0.00000000E+00
  9.55249411E+00  9.55249411E+00 -1.91049882E+01  0.00000000E+00  9.55249411E+00
  9.55249411E+00 -1.91049882E+01  0.00000000E+00  9.55249411E+00  9.55249411E+00
 -1.91049882E+01  0.00000000E+00  9.55249411E+00  9.55249411E+00 -1.91049882E+01
  0.00000000E+00  9.55249411E+00  9.55249411E+00 -1.91049882E+01  0.00000000E+00
  9.55249411E+00  9.55249411E+00 -1.91049882E+01  0.00000000E+00  9.55249411E+00
  9.55249411E+00 -1.91049882E+01  0.00000000E+00  9.55249411E+00  9.55249411E+00
 -1.91049882E+01  0.00000000E+00  9.55249411E+00  9.55249411E+00 -1.91049882E+01
  0.00000000E+00  9.55249411E+00  9.55249411E+00 -1.91049882E+01  0.00000000E+00
  9.55249411E+00  9.55249411E+00 -1.91049882E+01  0.00000000E+00  9.55249411E+00
  9.55249411E+00 -1.91049882E+01  0.00000000E+00  9.55249411E+00  9.55249411E+00
 -1.91049882E+01  0.00000000E+00  9.55249411E+00  9.55249411E+00 -1.91049882E+01
  0.00000000E+00  9.55249411E+00  9.55249411E+00 -1.91049882E+01  0.00000000E+00
  9.55249411E+00  9.55249411E+00 -1.91049882E+01  0.00000000E+00  9.55249411E+00
  9.55249411E+00 -1.91049882E+01  0.00000000E+00  9.55249411E+00  9.55249411E+00
 -1.91049882E+01  0.00000000E+00  9.55249411E+00  9.55249411E+00 -1.91049882E+01
  0.00000000E+00  9.55249411E+00  9.55249411E+00 -1.91049882E+01  0.00000000E+00
  9.55249411E+00  9.55249411E+00 -1.91049882E+01  0.00000000E+00  9.55249411E+00
  9.55249411E+00 -1.91049882E+01  0.00000000E+00  9.55249411E+00  9.55249411E+00
 -1.91049882E+01  0.00000000E+00  9.55249411E+00  9.55249411E+00 -1.91049882E+01
  0.00000000E+00  9.55249411E+00  9.55249411E+00 -1.91049882E+01  0.00000000E+00
  9.55249411E+00  9.55249411E+00 -1.91049882E+01  0.00000000E+00  9.55249411E+00
  9.55249411E+00 -1.91049882E+01  0.00000000E+00  9.55249411E+00  9.55249411E+00
 -1.91049882E+01  0.00000000E+00  9.55249411E+00  9.55249411E+00 -1.91049882E+01
  0.00000000E+00  9.55249411E+00  9.55249411E+00 -1.91049882E+01  0.00000000E+00
  9.55249411E+00  9.55249411E+00 -1.91049882E+01  0.00000000E+00  9.55249411E+00
  9.55249411E+00 -1.91049882E+01  0.00000000E+00  9.55249411E+00  9.55249411E+00
 -1.91049882E+01  0.00000000E+00  9.55249411E+00  9.55249411E+00 -1.91049882E+01
  0.00000000E+00  9.55249411E+00  9.55249411E+00 -1.91049882E+01  0.00000000E+00
  9.55249411E+00  9.55249411E+00 -1.91049882E+01  0.00000000E+00  9.55249411E+00
  9.55249411E+00 -1.91049882E+01  0.00000000E+00  9.55249411E+00  9.55249411E+00
 -1.91049882E+01  0.00000000E+00  9.55249411E+00  9.55249411E+00 -1.91049882E+01
  0.00000000E+00  9.55249411E+00  9.55249411E+00 -1.91049882E+01  0.00000000E+00
  9.55249411E+00  9.55249411E+00 -1.91049882E+01  0.00000000E+00  9.55249411E+00
  9.55249411E+00 -1.91049882E+01  0.00000000E+00  9.55249411E+00  9.55249411E+00
 -1.91049882E+01  0.00000000E+00  9.55249411E+00  9.55249411E+00 -1.91049882E+01
  0.00000000E+00  9.55249411E+00  9.55249411E+00 -1.91049882E+01  0.00000000E+00
  9.55249411E+00  9.55249411E+00 -1.91049882E+01  0.00000000E+00  9.55249411E+00
  9.55249411E+00 -1.91049882E+01  0.00000000E+00  9.55249411E+00  9.55249411E+00
 -1.91049882E+01  0.00000000E+00  9.55249411E+00  9.55249411E+00 -1.91049882E+01
  0.00000000E+00  9.55249411E+00  9.55249411E+00 -1.91049882E+01  0.00000000E+00
  9.55249411E+00  9.55249411E+00 -1.91049882E+01  0.00000000E+00  9.55249411E+00
  9.55249411E+00 -1.91049882E+01  0.00000000E+00  9.55249411E+00  9.55249411E+00
 -1.91049882E+01  0.00000000E+00  9.55249411E+00  9.55249411E+00 -1.91049882E+01
  0.00000000E+00  9.55249411E+00  9.55249411E+00 -1.91049882E+01  0.00000000E+00
  9.55249411E+00  9.55249411E+00 -1.91049882E+01  0.00000000E+00  9.55249411E+00
  9.55249411E+00 -1.91049882E+01  0.00000000E+00  9.55249411E+00  9.55249411E+00
 -1.91049882E+01  0.00000000E+00  9.55249411E+00  9.55249411E+00 -1.91049882E+01
  0.00000000E+00  9.55249411E+00  9.55249411E+00 -1.91049882E+01  0.00000000E+00
  9.55249411E+00  9.55249411E+00 -1.91049882E+01  0.00000000E+00  9.55249411E+00
  9.55249411E+00 -1.91049882E+01  0.00000000E+00  9.55249411E+00  9.55249411E+00
 -1.91049882E+01  0.00000000E+00  9.55249411E+00  9.55249411E+00 -1.91049882E+01
  0.00000000E+00  9.55249411E+00  9.55249411E+00 -1.91049882E+01  0.00000000E+00
  9.55249411E+00  9.55249411E+00 -1.91049882E+01  0.00000000E+00  9.55249411E+00
  9.55249411E+00 -1.91049882E+01  0.00000000E+00  9.55249411E+00  9.55249411E+00
 -1.91049882E+01  0.00000000E+00  9.55249411E+00  9.55249411E+00 -1.91049882E+01
  0.00000000E+00  9.55249411E+00  9.55249411E+00 -1.91049882E+01  0.00000000E+00
  9.55249411E+00  9.55249411E+00 -1.91049882E+01  0.00000000E+00  9.55249411E+00
  9.55249411E+00 -1.91049882E+01  0.00000000E+00  9.55249411E+00  9.55249411E+00
 -1.91049882E+01  0.00000000E+00  9.55249411E+00  9.55249411E+00 -1.91049882E+01
  0.00000000E+00  9.55249411E+00  9.55249411E+00 -1.91049882E+01  0.00000000E+00
  9.55249411E+00  9.55249411E+00 -1.91049882E+01  0.00000000E+00  9.55249411E+00
  9.55249411E+00 -1.91049882E+01  0.00000000E+00  9.55249411E+00  9.55249411E+00
 -1.91049882E+01  0.00000000E+00  9.55249411E+00  9.55249411E+00 -1.91049882E+01
  0.00000000E+00  9.55249411E+00  9.55249411E+00 -1.91049882E+01  0.00000000E+00
  9.55249411E+00  9.55249411E+00 -1.91049882E+01  0.00000000E+00  9.55249411E+00
  9.55249411E+00 -1.91049882E+01  0.00000000E+00  9.55249411E+00  9.55249411E+00
 -1.91049882E+01  0.00000000E+00  9.55249411E+00  9.55249411E+00 -1.91049882E+01
  0.00000000E+00  9.55249411E+00  9.55249411E+00 -1.91049882E+01  0.00000000E+00
  9.55249411E+00  9.55249411E+00 -1.91049882E+01  0.00000000E+00  9.55249411E+00
  9.55249411E+00 -1.91049882E+01  0.00000000E+00  9.55249411E+00  9.55249411E+00
 -1.91049882E+01  0.00000000E+00  9.55249411E+00  9.55249411E+00 -1.91049882E+01
  0.00000000E+00  9.55249411E+00  9.55249411E+00 -1.91049882E+01  0.00000000E+00
  9.55249411E+00  9.55249411E+00 -1.91049882E+01  0.00000000E+00  9.55249411E+00
  9.55249411E+00 -1.91049882E+01  0.00000000E+00  9.55249411E+00  9.55249411E+00
 -1.91049882E+01  0.00000000E+00  9.55249411E+00  9.55249411E+00 -1.91049882E+01
  0.00000000E+00  9.55249411E+00  9.55249411E+00 -1.91049882E+01  0.00000000E+00
  9.55249411E+00  9.55249411E+00 -1.91049882E+01  0.00000000E+00  9.55249411E+00
  9.55249411E+00 -1.91049882E+01  0.00000000E+00  9.55249411E+00  9.55249411E+00
 -1.91049882E+01  0.00000000E+00  9.55249411E+00  9.55249411E+00 -1.91049882E+01
  0.00000000E+00  9.55249411E+00  9.55249411E+00 -1.91049882E+01  0.00000000E+00
  9.55249411E+00  9.55249411E+00 -1.91049882E+01  0.00000000E+00  9.55249411E+00
  9.55249411E+00 -1.91049882E+01  0.00000000E+00  9.55249411E+00  9.55249411E+00
 -1.91049882E+01  0.00000000E+00  9.55249411E+00  9.55249411E+00 -1.91049882E+01
  0.00000000E+00  9.55249411E+00  9.55249411E+00 -1.91049882E+01  0.00000000E+00
  9.55249411E+00  9.55249411E+00 -1.91049882E+01  0.00000000E+00  9.55249411E+00
  9.55249411E+00 -1.91049882E+01  0.00000000E+00  9.55249411E+00  9.55249411E+00
 -1.91049882E+01  0.00000000E+00  9.55249411E+00  9.55249411E+00 -1.91049882E+01
  0.00000000E+00  9.55249411E+00  9.55249411E+00 -1.91049882E+01  0.00000000E+00
  9.55249411E+00  9.55249411E+00 -1.91049882E+01  0.00000000E+00  9.55249411E+00
  9.55249411E+00 -1.91049882E+01  0.00000000E+00  9.55249411E+00  9.55249411E+00
 -1.91049882E+01  0.00000000E+00  9.55249411E+00  9.55249411E+00 -1.91049882E+01
  0.00000000E+00  9.55249411E+00  9.55249411E+00 -1.91049882E+01  0.00000000E+00
  9.55249411E+00  9.55249411E+00 -1.91049882E+01  0.00000000E+00  9.55249411E+00
  9.55249411E+00 -1.91049882E+01  0.00000000E+00  9.55249411E+00  9.55249411E+00
 -1.91049882E+01  0.00000000E+00  9.55249411E+00  9.55249411E+00 -1.91049882E+01
  0.00000000E+00  9.55249411E+00  9.55249411E+00 -1.91049882E+01  0.00000000E+00
  9.55249411E+00  9.55249411E+00 -1.91049882E+01  0.00000000E+00  9.55249411E+00
  9.55249411E+00 -1.91049882E+01  0.00000000E+00  9.55249411E+00  9.55249411E+00
 -1.91049882E+01  0.00000000E+00  9.55249411E+00  9.55249411E+00 -1.91049882E+01
  0.00000000E+00  9.55249411E+00  9.55249411E+00 -1.91049882E+01  0.00000000E+00
  9.55249411E+00  9.55249411E+00 -1.91049882E+01  0.00000000E+00  9.55249411E+00
  9.55249411E+00 -1.91049882E+01  0.00000000E+00  9.55249411E+00  9.55249411E+00
 -1.91049882E+01  0.00000000E+00  9.55249411E+00  9.55249411E+00 -1.91049882E+01
  0.00000000E+00  9.55249411E+00  9.55249411E+00 -1.91049882E+01  0.00000000E+00
  9.55249411E+00  9.55249411E+00 -1.91049882E+01  0.00000000E+00  9.55249411E+00
  9.55249411E+00 -1.91049882E+01  0.00000000E+00  9.55249411E+00  9.55249411E+00
 -1.91049882E+01  0.00000000E+00  9.55249411E+00  9.55249411E+00 -1.91049882E+01
  0.00000000E+00  9.55249411E+00  9.55249411E+00 -1.91049882E+01  0.00000000E+00
  9.55249411E+00  9.55249411E+00 -1.91049882E+01  0.00000000E+00  9.55249411E+00
  9.55249411E+00 -1.91049882E+01  0.00000000E+00  9.55249411E+00  9.55249411E+00
 -1.91049882E+01  0.00000000E+00  9.55249411E+00  9.55249411E+00 -1.91049882E+01
  0.00000000E+00  9.55249411E+00  9.55249411E+00 -1.91049882E+01  0.00000000E+00
  9.55249411E+00  9.55249411E+00 -1.91049882E+01  0.00000000E+00  9.55249411E+00
  9.55249411E+00 -1.91049882E+01  0.00000000E+00  9.55249411E+00  9.55249411E+00
 -1.91049882E+01  0.00000000E+00  9.55249411E+00  9.55249411E+00 -1.91049882E+01
  0.00000000E+00  9.55249411E+00  9.55249411E+00 -1.91049882E+01  0.00000000E+00
  9.55249411E+00  9.55249411E+00 -1.91049882E+01  0.00000000E+00  9.55249411E+00
  9.55249411E+00 -1.91049882E+01  0.00000000E+00  9.55249411E+00  9.55249411E+00
 -1.91049882E+01  0.00000000E+00  9.55249411E+00  9.55249411E+00 -1.91049882E+01
  0.00000000E+00  9.55249411E+00  9.55249411E+00 -1.91049882E+01  0.00000000E+00
  9.55249411E+00  9.55249411E+00 -1.91049882E+01  0.00000000E+00  9.55249411E+00
  9.55249411E+00 -1.91049882E+01  0.00000000E+00  9.55249411E+00  9.55249411E+00
 -1.91049882E+01  0.00000000E+00  9.55249411E+00  9.55249411E+00 -1.91049882E+01
  0.00000000E+00  9.55249411E+00  9.55249411E+00 -1.91049882E+01  0.00000000E+00
  9.55249411E+00  9.55249411E+00 -1.91049882E+01  0.00000000E+00  9.55249411E+00
  9.55249411E+00 -1.91049882E+01  0.00000000E+00  9.55249411E+00  9.55249411E+00
 -1.91049882E+01  0.00000000E+00  9.55249411E+00  9.55249411E+00 -1.91049882E+01
  0.00000000E+00  9.55249411E+00  9.55249411E+00 -1.91049882E+01  0.00000000E+00
  9.55249411E+00  9.55249411E+00 -1.91049882E+01  0.00000000E+00  9.55249411E+00
  9.55249411E+00 -1.91049882E+01  0.00000000E+00  9.55249411E+00  9.55249411E+00
 -1.91049882E+01  0.00000000E+00  9.55249411E+00  9.55249411E+00 -1.91049882E+01
  0.00000000E+00  9.55249411E+00  9.55249411E+00 -1.91049882E+01  0.00000000E+00
  9.55249411E+00  9.55249411E+00 -1.91049882E+01  0.00000000E+00  9.55249411E+00
  9.55249411E+00 -1.91049882E+01  0.00000000E+00  9.55249411E+00  9.55249411E+00
 -1.91049882E+01  0.00000000E+00  9.55249411E+00  9.55249411E+00 -1.91049882E+01
  0.00000000E+00  9.55249411E+00  9.55249411E+00 -1.91049882E+01  0.00000000E+00
  9.55249411E+00  9.55249411E+00 -1.91049882E+01  0.00000000E+00  9.55249411E+00
  9.55249411E+00 -1.91049882E+01  0.00000000E+00  9.55249411E+00  9.55249411E+00
 -1.91049882E+01  0.00000000E+00  9.55249411E+00  9.55249411E+00 -1.91049882E+01
  0.00000000E+00  9.55249411E+00  9.55249411E+00 -1.91049882E+01  0.00000000E+00
  9.55249411E+00  9.55249411E+00 -1.91049882E+01  0.00000000E+00  9.55249411E+00
  9.55249411E+00 -1.91049882E+01  0.00000000E+00  9.55249411E+00  9.55249411E+00
 -1.91049882E+01  0.00000000E+00  9.55249411E+00  9.55249411E+00 -1.91049882E+01
  0.00000000E+00  9.55249411E+00  9.55249411E+00 -1.91049882E+01  0.00000000E+00
  9.55249411E+00  9.55249411E+00 -1.91049882E+01  0.00000000E+00  9.55249411E+00
  9.55249411E+00 -1.91049882E+01  0.00000000E+00  9.55249411E+00  9.55249411E+00
 -1.91049882E+01  0.00000000E+00  9.55249411E+00  9.55249411E+00 -1.91049882E+01
  0.00000000E+00  9.55249411E+00  9.55249411E+00 -1.91049882E+01  0.00000000E+00
  9.55249411E+00  9.55249411E+00 -1.91049882E+01  0.00000000E+00  9.55249411E+00
  9.55249411E+00 -1.91049882E+01  0.00000000E+00  9.55249411E+00  9.55249411E+00
 -1.91049882E+01  0.00000000E+00  9.55249411E+00  9.55249411E+00 -1.91049882E+01
  0.00000000E+00  9.55249411E+00  9.55249411E+00 -1.91049882E+01  0.00000000E+00
  9.55249411E+00  9.55249411E+00 -1.91049882E+01  0.00000000E+00  9.55249411E+00
  9.55249411E+00 -1.91049882E+01  0.00000000E+00  9.55249411E+00  9.55249411E+00
 -1.91049882E+01  0.00000000E+00  9.55249411E+00  9.55249411E+00 -1.91049882E+01
  0.00000000E+00  9.55249411E+00  9.55249411E+00 -1.91049882E+01  0.00000000E+00
  9.55249411E+00  9.55249411E+00 -1.91049882E+01  0.00000000E+00  9.55249411E+00
  9.55249411E+00 -1.91049882E+01  0.00000000E+00  9.55249411E+00  9.55249411E+00
 -1.91049882E+01  0.00000000E+00  9.55249411E+00  9.55249411E+00 -1.91049882E+01
  0.00000000E+00  9.55249411E+00  9.55249411E+00 -1.91049882E+01  0.00000000E+00
  9.55249411E+00  9.55249411E+00 -1.91049882E+01  0.00000000E+00  9.55249411E+00
  9.55249411E+00 -1.91049882E+01  0.00000000E+00  9.55249411E+00  9.55249411E+00
 -1.91049882E+01  0.00000000E+00  9.55249411E+00  9.55249411E+00 -1.91049882E+01
  0.00000000E+00  9.55249411E+00  9.55249411E+00 -1.91049882E+01  0.00000000E+00
  9.55249411E+00  9.55249411E+00 -1.91049882E+01  0.00000000E+00  9.55249411E+00
  9.55249411E+00 -1.91049882E+01  0.00000000E+00  9.55249411E+00  9.55249411E+00
 -1.91049882E+01  0.00000000E+00  9.55249411E+00  9.55249411E+00 -1.91049882E+01
  0.00000000E+00  9.55249411E+00  9.55249411E+00 -1.91049882E+01  0.00000000E+00
  9.55249411E+00  9.55249411E+00 -1.91049882E+01  0.00000000E+00  9.55249411E+00
  9.55249411E+00 -1.91049882E+01  0.00000000E+00  9.55249411E+00  9.55249411E+00
 -1.91049882E+01  0.00000000E+00  9.55249411E+00  9.55249411E+00 -1.91049882E+01
  0.00000000E+00  9.55249411E+00  9.55249411E+00 -1.91049882E+01  0.00000000E+00
  9.55249411E+00  9.55249411E+00 -1.91049882E+01  0.00000000E+00  9.55249411E+00
  9.55249411E+00 -1.91049882E+01  0.00000000E+00  9.55249411E+00  9.55249411E+00
 -1.91049882E+01  0.00000000E+00  9.55249411E+00  9.55249411E+00 -1.91049882E+01
  0.00000000E+00  9.55249411E+00  9.55249411E+00 -1.91049882E+01  0.00000000E+00
  9.55249411E+00  9.55249411E+00 -1.91049882E+01  0.00000000E+00  9.55249411E+00
  9.55249411E+00 -1.91049882E+01  0.00000000E+00  9.55249411E+00  9.55249411E+00
 -1.91049882E+01  0.00000000E+00  9.55249411E+00  9.55249411E+00 -1.91049882E+01
  0.00000000E+00  9.55249411E+00  9.55249411E+00 -1.91049882E+01  0.00000000E+00
  9.55249411E+00  9.55249411E+00 -1.91049882E+01  0.00000000E+00  9.55249411E+00
  9.55249411E+00 -1.91049882E+01  0.00000000E+00  9.55249411E+00  9.55249411E+00
 -1.91049882E+01  0.00000000E+00  9.55249411E+00  9.55249411E+00 -1.91049882E+01
  0.00000000E+00  9.55249411E+00  9.55249411E+00 -1.91049882E+01  0.00000000E+00
  9.55249411E+00  9.55249411E+00 -1.91049882E+01  0.00000000E+00  9.55249411E+00
  9.55249411E+00 -1.91049882E+01  0.00000000E+00  9.55249411E+00  9.55249411E+00
 -1.91049882E+01  0.00000000E+00  9.55249411E+00  9.55249411E+00 -1.91049882E+01
  0.00000000E+00  9.55249411E+00  9.55249411E+00 -1.91049882E+01  0.00000000E+00
  9.55249411E+00  9.55249411E+00 -1.91049882E+01  0.00000000E+00  9.55249411E+00
  9.55249411E+00 -1.91049882E+01  0.00000000E+00  9.55249411E+00  9.55249411E+00
 -1.91049882E+01  0.00000000E+00  9.55249411E+00  9.55249411E+00 -1.91049882E+01
  0.00000000E+00  9.55249411E+00  9.55249411E+00 -1.91049882E+01  0.00000000E+00
  9.55249411E+00  9.55249411E+00 -1.91049882E+01  0.00000000E+00  9.55249411E+00
  9.55249411E+00 -1.91049882E+01  0.00000000E+00  9.55249411E+00  9.55249411E+00
 -1.91049882E+01  0.00000000E+00  9.55249411E+00  9.55249411E+00 -1.91049882E+01
  0.00000000E+00  9.55249411E+00  9.55249411E+00 -1.91049882E+01  0.00000000E+00
  9.55249411E+00  9.55249411E+00 -1.91049882E+01  0.00000000E+00  9.55249411E+00
  9.55249411E+00 -1.91049882E+01  0.00000000E+00  9.55249411E+00  9.55249411E+00
 -1.91049882E+01  0.00000000E+00  9.55249411E+00  9.55249411E+00 -1.91049882E+01
  0.00000000E+00  9.55249411E+00  9.55249411E+00 -1.91049882E+01  0.00000000E+00
  9.55249411E+00  9.55249411E+00 -1.91049882E+01  0.00000000E+00  9.55249411E+00
  9.55249411E+00 -1.91049882E+01  0.00000000E+00  9.55249411E+00  9.55249411E+00
 -1.91049882E+01  0.00000000E+00  9.55249411E+00  9.55249411E+00 -1.91049882E+01
  0.00000000E+00  9.55249411E+00  9.55249411E+00 -1.91049882E+01  0.00000000E+00
  9.55249411E+00  9.55249411E+00 -1.91049882E+01  0.00000000E+00  9.55249411E+00
  9.55249411E+00 -1.91049882E+01  0.00000000E+00  9.55249411E+00  9.55249411E+00
 -1.91049882E+01  0.00000000E+00  9.55249411E+00  9.55249411E+00 -1.91049882E+01
  0.00000000E+00  9.55249411E+00  9.55249411E+00 -1.91049882E+01  0.00000000E+00
  9.55249411E+00  9.55249411E+00 -1.91049882E+01  0.00000000E+00  9.55249411E+00
  9.55249411E+00 -1.91049882E+01  0.00000000E+00  9.55249411E+00  9.55249411E+00
 -1.91049882E+01  0.00000000E+00  9.55249411E+00  9.55249411E+00 -1.91049882E+01
  0.00000000E+00  9.55249411E+00  9.55249411E+00 -1.91049882E+01  0.00000000E+00
  9.55249411E+00  9.55249411E+00 -1.91049882E+01  0.00000000E+00  9.55249411E+00
  9.55249411E+00 -1.91049882E+01  0.00000000E+00  9.55249411E+00  9.55249411E+00
 -1.91049882E+01  0.00000000E+00  9.55249411E+00  9.55249411E+00 -1.91049882E+01
  0.00000000E+00  9.55249411E+00  9.55249411E+00 -1.91049882E+01  0.00000000E+00
  9.55249411E+00  9.55249411E+00 -1.91049882E+01  0.00000000E+00  9.55249411E+00
  9.55249411E+00 -1.91049882E+01  0.00000000E+00  9.55249411E+00  9.55249411E+00
 -1.91049882E+01  0.00000000E+00  9.55249411E+00  9.55249411E+00 -1.91049882E+01
  0.00000000E+00  9.55249411E+00  9.55249411E+00 -1.91049882E+01  0.00000000E+00
  9.55249411E+00  9.55249411E+00 -1.91049882E+01  0.00000000E+00  9.55249411E+00
  9.55249411E+00 -1.91049882E+01  0.00000000E+00  9.55249411E+00  9.55249411E+00
 -1.91049882E+01  0.00000000E+00  9.55249411E+00  9.55249411E+00 -1.91049882E+01
  0.00000000E+00  9.55249411E+00  9.55249411E+00 -1.91049882E+01  0.00000000E+00
  9.55249411E+00  9.55249411E+00 -1.91049882E+01  0.00000000E+00  9.55249411E+00
  9.55249411E+00 -1.91049882E+01  0.00000000E+00  9.55249411E+00  9.55249411E+00
 -1.91049882E+01  0.00000000E+00  9.55249411E+00  9.55249411E+00 -1.91049882E+01
  0.00000000E+00  9.55249411E+00  9.55249411E+00 -1.91049882E+01  0.00000000E+00
  9.55249411E+00  9.55249411E+00 -1.91049882E+01  0.00000000E+00  9.55249411E+00
  9.55249411E+00 -1.91049882E+01  0.00000000E+00  9.55249411E+00  9.55249411E+00
 -1.91049882E+01  0.00000000E+00  9.55249411E+00  9.55249411E+00 -1.91049882E+01
  0.00000000E+00  9.55249411E+00  9.55249411E+00 -1.91049882E+01  0.00000000E+00
  9.55249411E+00  9.55249411E+00 -1.91049882E+01  0.00000000E+00  9.55249411E+00
  9.55249411E+00 -1.91049882E+01  0.00000000E+00  9.55249411E+00  9.55249411E+00
 -1.91049882E+01  0.00000000E+00  9.55249411E+00  9.55249411E+00 -1.91049882E+01
  0.00000000E+00  9.55249411E+00  9.55249411E+00 -1.91049882E+01  0.00000000E+00
  9.55249411E+00  9.55249411E+00 -1.91049882E+01  0.00000000E+00  9.55249411E+00
  9.55249411E+00 -1.91049882E+01  0.00000000E+00  9.55249411E+00  9.55249411E+00
 -1.91049882E+01  0.00000000E+00  9.55249411E+00  9.55249411E+00 -1.91049882E+01
  0.00000000E+00  9.55249411E+00  9.55249411E+00 -1.91049882E+01  0.00000000E+00
  9.55249411E+00  9.55249411E+00 -1.91049882E+01  0.00000000E+00  9.55249411E+00
  9.55249411E+00 -1.91049882E+01  0.00000000E+00  9.55249411E+00  9.55249411E+00
 -1.91049882E+01  0.00000000E+00  9.55249411E+00  9.55249411E+00 -1.91049882E+01
  0.00000000E+00  9.55249411E+00  9.55249411E+00 -1.91049882E+01  0.00000000E+00
  9.55249411E+00  9.55249411E+00 -1.91049882E+01  0.00000000E+00  9.55249411E+00
  9.55249411E+00 -1.91049882E+01  0.00000000E+00  9.55249411E+00  9.55249411E+00
 -1.91049882E+01  0.00000000E+00  9.55249411E+00  9.55249411E+00 -1.91049882E+01
  0.00000000E+00  9.55249411E+00  9.55249411E+00 -1.91049882E+01  0.00000000E+00
  9.55249411E+00  9.55249411E+00 -1.91049882E+01  0.00000000E+00  9.55249411E+00
  9.55249411E+00 -1.91049882E+01  0.00000000E+00  9.55249411E+00  9.55249411E+00
 -1.91049882E+01  0.00000000E+00  9.55249411E+00  9.55249411E+00 -1.91049882E+01
  0.00000000E+00  9.55249411E+00  9.55249411E+00 -1.91049882E+01  0.00000000E+00
  9.55249411E+00  9.55249411E+00 -1.91049882E+01  0.00000000E+00  9.55249411E+00
  9.55249411E+00 -1.91049882E+01  0.00000000E+00  9.55249411E+00  9.55249411E+00
 -1.91049882E+01  0.00000000E+00  9.55249411E+00  9.55249411E+00 -1.91049882E+01
  0.00000000E+00  9.55249411E+00  9.55249411E+00 -1.91049882E+01  0.00000000E+00
  9.55249411E+00  9.55249411E+00 -1.91049882E+01  0.00000000E+00  9.55249411E+00
  9.55249411E+00 -1.91049882E+01  0.00000000E+00  9.55249411E+00  9.55249411E+00
 -1.91049882E+01  0.00000000E+00  9.55249411E+00  9.55249411E+00 -1.91049882E+01
  0.00000000E+00  9.55249411E+00  9.55249411E+00 -1.91049882E+01  0.00000000E+00
  9.55249411E+00  9.55249411E+00 -1.91049882E+01  0.00000000E+00  9.55249411E+00
  9.55249411E+00 -1.91049882E+01  0.00000000E+00  9.55249411E+00  9.55249411E+00
 -1.91049882E+01  0.00000000E+00  9.55249411E+00  9.55249411E+00 -1.91049882E+01
  0.00000000E+00  9.55249411E+00  9.55249411E+00 -1.91049882E+01  0.00000000E+00
  9.55249411E+00  9.55249411E+00 -1.91049882E+01  0.00000000E+00  9.55249411E+00
  9.55249411E+00 -1.91049882E+01  0.00000000E+00  9.55249411E+00  9.55249411E+00
 -1.91049882E+01  0.00000000E+00  9.55249411E+00  9.55249411E+00 -1.91049882E+01
  0.00000000E+00  9.55249411E+00  9.55249411E+00 -1.91049882E+01  0.00000000E+00
  9.55249411E+00  9.55249411E+00 -1.91049882E+01  0.00000000E+00  9.55249411E+00
  9.55249411E+00 -1.91049882E+01  0.00000000E+00  9.55249411E+00  9.55249411E+00
 -1.91049882E+01  0.00000000E+00  9.55249411E+00  9.55249411E+00 -1.91049882E+01
  0.00000000E+00  9.55249411E+00  9.55249411E+00 -1.91049882E+01  0.00000000E+00
  9.55249411E+00  9.55249411E+00 -1.91049882E+01  0.00000000E+00  9.55249411E+00
  9.55249411E+00 -1.91049882E+01  0.00000000E+00  9.55249411E+00  9.55249411E+00
 -1.91049882E+01  0.00000000E+00  9.55249411E+00  9.55249411E+00 -1.91049882E+01
  0.00000000E+00  9.55249411E+00  9.55249411E+00 -1.91049882E+01  0.00000000E+00
  9.55249411E+00  9.55249411E+00 -1.91049882E+01  0.00000000E+00  9.55249411E+00
  9.55249411E+00 -1.91049882E+01  0.00000000E+00  9.55249411E+00  9.55249411E+00
 -1.91049882E+01  0.00000000E+00  9.55249411E+00  9.55249411E+00 -1.91049882E+01
  0.00000000E+00  9.55249411E+00  9.55249411E+00 -1.91049882E+01  0.00000000E+00
  9.55249411E+00  9.55249411E+00 -1.91049882E+01  0.00000000E+00  9.55249411E+00
  9.55249411E+00 -1.91049882E+01  0.00000000E+00  9.55249411E+00  9.55249411E+00
 -1.91049882E+01  0.00000000E+00  9.55249411E+00  9.55249411E+00 -1.91049882E+01
  0.00000000E+00  9.55249411E+00  9.55249411E+00 -1.91049882E+01  0.00000000E+00
  9.55249411E+00  9.55249411E+00 -1.91049882E+01  0.00000000E+00  9.55249411E+00
  9.55249411E+00 -1.91049882E+01  0.00000000E+00  9.55249411E+00  9.55249411E+00
 -1.91049882E+01  0.00000000E+00  9.55249411E+00  9.55249411E+00 -1.91049882E+01
  0.00000000E+00  9.55249411E+00  9.55249411E+00 -1.91049882E+01  0.00000000E+00
  9.55249411E+00  9.55249411E+00 -1.91049882E+01  0.00000000E+00  9.55249411E+00
  9.55249411E+00 -1.91049882E+01  0.00000000E+00  9.55249411E+00  9.55249411E+00
 -1.91049882E+01  0.00000000E+00  9.55249411E+00  9.55249411E+00 -1.91049882E+01
  0.00000000E+00  9.55249411E+00  9.55249411E+00 -1.91049882E+01  0.00000000E+00
  9.55249411E+00  9.55249411E+00 -1.91049882E+01  0.00000000E+00  9.55249411E+00
  9.55249411E+00 -1.91049882E+01  0.00000000E+00  9.55249411E+00  9.55249411E+00
 -1.91049882E+01  0.00000000E+00  9.55249411E+00  9.55249411E+00 -1.91049882E+01
  0.00000000E+00  9.55249411E+00  9.55249411E+00 -1.91049882E+01  0.00000000E+00
  9.55249411E+00  9.55249411E+00 -1.91049882E+01  0.00000000E+00  9.55249411E+00
  9.55249411E+00 -1.91049882E+01  0.00000000E+00  9.55249411E+00  9.55249411E+00
 -1.91049882E+01  0.00000000E+00  9.55249411E+00  9.55249411E+00 -1.91049882E+01
  0.00000000E+00  9.55249411E+00  9.55249411E+00 -1.91049882E+01  0.00000000E+00
  9.55249411E+00  9.55249411E+00 -1.91049882E+01  0.00000000E+00  9.55249411E+00
  9.55249411E+00 -1.91049882E+01  0.00000000E+00  9.55249411E+00  9.55249411E+00
 -1.91049882E+01  0.00000000E+00  9.55249411E+00  9.55249411E+00 -1.91049882E+01
  0.00000000E+00  9.55249411E+00  9.55249411E+00 -1.91049882E+01  0.00000000E+00
  9.55249411E+00  9.55249411E+00 -1.91049882E+01  0.00000000E+00  9.55249411E+00
  9.55249411E+00 -1.91049882E+01  0.00000000E+00  9.55249411E+00  9.55249411E+00
 -1.91049882E+01  0.00000000E+00  9.55249411E+00  9.55249411E+00 -1.91049882E+01
  0.00000000E+00  9.55249411E+00  9.55249411E+00 -1.91049882E+01  0.00000000E+00
  9.55249411E+00  9.55249411E+00 -1.91049882E+01  0.00000000E+00  9.55249411E+00
  9.55249411E+00 -1.91049882E+01  0.00000000E+00  9.55249411E+00  9.55249411E+00
 -1.91049882E+01  0.00000000E+00  9.55249411E+00  9.55249411E+00 -1.91049882E+01
  0.00000000E+00  9.55249411E+00  9.55249411E+00 -1.91049882E+01  0.00000000E+00
  9.55249411E+00  9.55249411E+00 -1.91049882E+01  0.00000000E+00  9.55249411E+00
  9.55249411E+00 -1.91049882E+01  0.00000000E+00  9.55249411E+00  9.55249411E+00
 -1.91049882E+01  0.00000000E+00  9.55249411E+00  9.55249411E+00 -1.91049882E+01
  0.00000000E+00  9.55249411E+00  9.55249411E+00 -1.91049882E+01  0.00000000E+00
  9.55249411E+00  9.55249411E+00 -1.91049882E+01  0.00000000E+00  9.55249411E+00
  9.55249411E+00 -1.91049882E+01  0.00000000E+00  9.55249411E+00  9.55249411E+00
 -1.91049882E+01  0.00000000E+00  9.55249411E+00  9.55249411E+00 -1.91049882E+01
  0.00000000E+00  9.55249411E+00  9.55249411E+00 -1.91049882E+01  0.00000000E+00
  9.55249411E+00  9.55249411E+00 -1.91049882E+01  0.00000000E+00  9.55249411E+00
  9.55249411E+00 -1.91049882E+01  0.00000000E+00  9.55249411E+00  9.55249411E+00
 -1.91049882E+01  0.00000000E+00  9.55249411E+00  9.55249411E+00 -1.91049882E+01
  0.00000000E+00  9.55249411E+00  9.55249411E+00 -1.91049882E+01  0.00000000E+00
  9.55249411E+00  9.55249411E+00 -1.91049882E+01  0.00000000E+00  9.55249411E+00
  9.55249411E+00 -1.91049882E+01  0.00000000E+00  9.55249411E+00  9.55249411E+00
 -1.91049882E+01  0.00000000E+00  9.55249411E+00  9.55249411E+00 -1.91049882E+01
  0.00000000E+00  9.55249411E+00  9.55249411E+00 -1.91049882E+01  0.00000000E+00
  9.55249411E+00  9.55249411E+00 -1.91049882E+01  0.00000000E+00  9.55249411E+00
  9.55249411E+00 -1.91049882E+01  0.00000000E+00  9.55249411E+00  9.55249411E+00
 -1.91049882E+01  0.00000000E+00  9.55249411E+00  9.55249411E+00 -1.91049882E+01
  0.00000000E+00  9.55249411E+00  9.55249411E+00 -1.91049882E+01  0.00000000E+00
  9.55249411E+00  9.55249411E+00 -1.91049882E+01  0.00000000E+00  9.55249411E+00
  9.55249411E+00 -1.91049882E+01  0.00000000E+00  9.55249411E+00  9.55249411E+00
 -1.91049882E+01  0.00000000E+00  9.55249411E+00  9.55249411E+00 -1.91049882E+01
  0.00000000E+00  9.55249411E+00  9.55249411E+00 -1.91049882E+01  0.00000000E+00
  9.55249411E+00  9.55249411E+00 -1.91049882E+01  0.00000000E+00  9.55249411E+00
  9.55249411E+00 -1.91049882E+01  0.00000000E+00  9.55249411E+00  9.55249411E+00
 -1.91049882E+01  0.00000000E+00  9.55249411E+00  9.55249411E+00 -1.91049882E+01
  0.00000000E+00  9.55249411E+00  9.55249411E+00 -1.91049882E+01  0.00000000E+00
  9.55249411E+00  9.55249411E+00 -1.91049882E+01  0.00000000E+00  9.55249411E+00
  9.55249411E+00 -1.91049882E+01  0.00000000E+00  9.55249411E+00  9.55249411E+00
 -1.91049882E+01  0.00000000E+00  9.55249411E+00  9.55249411E+00 -1.91049882E+01
  0.00000000E+00  9.55249411E+00  9.55249411E+00 -1.91049882E+01  0.00000000E+00
  9.55249411E+00  9.55249411E+00 -1.91049882E+01  0.00000000E+00  9.55249411E+00
  9.55249411E+00 -1.91049882E+01  0.00000000E+00  9.55249411E+00  9.55249411E+00
 -1.91049882E+01  0.00000000E+00  9.55249411E+00  9.55249411E+00 -1.91049882E+01
  0.00000000E+00  9.55249411E+00  9.55249411E+00 -1.91049882E+01  0.00000000E+00
  9.55249411E+00  9.55249411E+00 -1.91049882E+01  0.00000000E+00  9.55249411E+00
  9.55249411E+00 -1.91049882E+01  0.00000000E+00  9.55249411E+00  9.55249411E+00
 -1.91049882E+01  0.00000000E+00  9.55249411E+00  9.55249411E+00 -1.91049882E+01
  0.00000000E+00  9.55249411E+00  9.55249411E+00 -1.91049882E+01  0.00000000E+00
  9.55249411E+00  9.55249411E+00 -1.91049882E+01  0.00000000E+00  9.55249411E+00
  9.55249411E+00 -1.91049882E+01  0.00000000E+00  9.55249411E+00  9.55249411E+00
 -1.91049882E+01  0.00000000E+00  9.55249411E+00  9.55249411E+00 -1.91049882E+01
  0.00000000E+00  9.55249411E+00  9.55249411E+00 -1.91049882E+01  0.00000000E+00
  9.55249411E+00  9.55249411E+00 -1.91049882E+01  0.00000000E+00  9.55249411E+00
  9.55249411E+00 -1.91049882E+01  0.00000000E+00  9.55249411E+00  9.55249411E+00
 -1.91049882E+01  0.00000000E+00  9.55249411E+00  9.55249411E+00 -1.91049882E+01
  0.00000000E+00  9.55249411E+00  9.55249411E+00 -1.91049882E+01  0.00000000E+00
  9.55249411E+00  9.55249411E+00 -1.91049882E+01  0.00000000E+00  9.55249411E+00
  9.55249411E+00 -1.91049882E+01  0.00000000E+00  9.55249411E+00  9.55249411E+00
 -1.91049882E+01  0.00000000E+00  9.55249411E+00  9.55249411E+00 -1.91049882E+01
  0.00000000E+00  9.55249411E+00  9.55249411E+00 -1.91049882E+01  0.00000000E+00
  9.55249411E+00  9.55249411E+00 -1.91049882E+01  0.00000000E+00  9.55249411E+00
  9.55249411E+00 -1.91049882E+01  0.00000000E+00  9.55249411E+00  9.55249411E+00
 -1.91049882E+01  0.00000000E+00  9.55249411E+00  9.55249411E+00 -1.91049882E+01
  0.00000000E+00  9.55249411E+00  9.55249411E+00 -1.91049882E+01  0.00000000E+00
  9.55249411E+00  9.55249411E+00 -1.91049882E+01  0.00000000E+00  9.55249411E+00
  9.55249411E+00 -1.91049882E+01  0.00000000E+00  9.55249411E+00  9.55249411E+00
 -1.91049882E+01  0.00000000E+00  9.55249411E+00  9.55249411E+00 -1.91049882E+01
  0.00000000E+00  9.55249411E+00  9.55249411E+00 -1.91049882E+01  0.00000000E+00
  9.55249411E+00  9.55249411E+00 -1.91049882E+01  0.00000000E+00  9.55249411E+00
  9.55249411E+00 -1.91049882E+01  0.00000000E+00  9.55249411E+00  9.55249411E+00
 -1.91049882E+01  0.00000000E+00  9.55249411E+00  9.55249411E+00 -1.91049882E+01
  0.00000000E+00  9.55249411E+00  9.55249411E+00 -1.91049882E+01  0.00000000E+00
  9.55249411E+00  9.55249411E+00 -1.91049882E+01  0.00000000E+00  9.55249411E+00
  9.55249411E+00 -1.91049882E+01  0.00000000E+00  9.55249411E+00  9.55249411E+00
 -1.91049882E+01  0.00000000E+00  9.55249411E+00  9.55249411E+00 -1.91049882E+01
  0.00000000E+00  9.55249411E+00  9.55249411E+00 -1.91049882E+01  0.00000000E+00
  9.55249411E+00  9.55249411E+00 -1.91049882E+01  0.00000000E+00  9.55249411E+00
  9.55249411E+00 -1.91049882E+01  0.00000000E+00  9.55249411E+00  9.55249411E+00
 -1.91049882E+01  0.00000000E+00  9.55249411E+00  9.55249411E+00 -1.91049882E+01
  0.00000000E+00  9.55249411E+00  9.55249411E+00 -1.91049882E+01  0.00000000E+00
  9.55249411E+00  9.55249411E+00 -1.91049882E+01  0.00000000E+00  9.55249411E+00
  9.55249411E+00 -1.91049882E+01  0.00000000E+00  9.55249411E+00  9.55249411E+00
 -1.91049882E+01  0.00000000E+00  9.55249411E+00  9.55249411E+00 -1.91049882E+01
  0.00000000E+00  9.55249411E+00  9.55249411E+00 -1.91049882E+01  0.00000000E+00
  9.55249411E+00  9.55249411E+00 -1.91049882E+01  0.00000000E+00  9.55249411E+00
  9.55249411E+00 -1.91049882E+01  0.00000000E+00  9.55249411E+00  9.55249411E+00
 -1.91049882E+01  0.00000000E+00  9.55249411E+00  9.55249411E+00 -1.91049882E+01
  0.00000000E+00  9.55249411E+00  9.55249411E+00 -1.91049882E+01  0.00000000E+00
  9.55249411E+00  9.55249411E+00 -1.91049882E+01  0.00000000E+00  9.55249411E+00
  9.55249411E+00 -1.91049882E+01  0.00000000E+00  9.55249411E+00  9.55249411E+00
 -1.91049882E+01  0.00000000E+00  9.55249411E+00  9.55249411E+00 -1.91049882E+01
  0.00000000E+00  9.55249411E+00  9.55249411E+00 -1.91049882E+01  0.00000000E+00
  9.55249411E+00  9.55249411E+00 -1.91049882E+01  0.00000000E+00  9.55249411E+00
  9.55249411E+00 -1.91049882E+01  0.00000000E+00  9.55249411E+00  9.55249411E+00
 -1.91049882E+01  0.00000000E+00  9.55249411E+00  9.55249411E+00 -1.91049882E+01
  0.00000000E+00  9.55249411E+00  9.55249411E+00 -1.91049882E+01  0.00000000E+00
  9.55249411E+00  9.55249411E+00 -1.91049882E+01  0.00000000E+00  9.55249411E+00
  9.55249411E+00 -1.91049882E+01  0.00000000E+00  9.55249411E+00  9.55249411E+00
 -1.91049882E+01  0.00000000E+00  9.55249411E+00  9.55249411E+00 -1.91049882E+01
  0.00000000E+00  9.55249411E+00  9.55249411E+00 -1.91049882E+01  0.00000000E+00
  9.55249411E+00  9.55249411E+00 -1.91049882E+01  0.00000000E+00  9.55249411E+00
  9.55249411E+00 -1.91049882E+01  0.00000000E+00  9.55249411E+00  9.55249411E+00
 -1.91049882E+01  0.00000000E+00  9.55249411E+00  9.55249411E+00 -1.91049882E+01
  0.00000000E+00  9.55249411E+00  9.55249411E+00 -1.91049882E+01  0.00000000E+00
  9.55249411E+00  9.55249411E+00 -1.91049882E+01  0.00000000E+00  9.55249411E+00
  9.55249411E+00 -1.91049882E+01  0.00000000E+00  9.55249411E+00  9.55249411E+00
 -1.91049882E+01  0.00000000E+00  9.55249411E+00  9.55249411E+00 -1.91049882E+01
  0.00000000E+00  9.55249411E+00  9.55249411E+00 -1.91049882E+01  0.00000000E+00
  9.55249411E+00  9.55249411E+00 -1.91049882E+01  0.00000000E+00  9.55249411E+00
  9.55249411E+00 -1.91049882E+01  0.00000000E+00  9.55249411E+00  9.55249411E+00
 -1.91049882E+01  0.00000000E+00  9.55249411E+00  9.55249411E+00 -1.91049882E+01
  0.00000000E+00  9.55249411E+00  9.55249411E+00 -1.91049882E+01  0.00000000E+00
  9.55249411E+00  9.55249411E+00 -1.91049882E+01  0.00000000E+00  9.55249411E+00
  9.55249411E+00 -1.91049882E+01  0.00000000E+00  9.55249411E+00  9.55249411E+00
 -1.91049882E+01  0.00000000E+00  9.55249411E+00  9.55249411E+00 -1.91049882E+01
  0.00000000E+00  9.55249411E+00  9.55249411E+00 -1.91049882E+01  0.00000000E+00
  9.55249411E+00  9.55249411E+00 -1.91049882E+01  0.00000000E+00  9.55249411E+00
  9.55249411E+00 -1.91049882E+01  0.00000000E+00  9.55249411E+00  9.55249411E+00
 -1.91049882E+01  0.00000000E+00  9.55249411E+00  9.55249411E+00 -1.91049882E+01
  0.00000000E+00  9.55249411E+00  9.55249411E+00 -1.91049882E+01  0.00000000E+00
  9.55249411E+00  9.55249411E+00 -1.91049882E+01  0.00000000E+00  9.55249411E+00
  9.55249411E+00 -1.91049882E+01  0.00000000E+00  9.55249411E+00  9.55249411E+00
 -1.91049882E+01  0.00000000E+00  9.55249411E+00  9.55249411E+00 -1.91049882E+01
  0.00000000E+00  9.55249411E+00  9.55249411E+00 -1.91049882E+01  0.00000000E+00
  9.55249411E+00  9.55249411E+00 -1.91049882E+01  0.00000000E+00  9.55249411E+00
  9.55249411E+00 -1.91049882E+01  0.00000000E+00  9.55249411E+00  9.55249411E+00
 -1.91049882E+01  0.00000000E+00  9.55249411E+00  9.55249411E+00 -1.91049882E+01
  0.00000000E+00  9.55249411E+00  9.55249411E+00 -1.91049882E+01  0.00000000E+00
  9.55249411E+00  9.55249411E+00 -1.91049882E+01  0.00000000E+00  9.55249411E+00
  9.55249411E+00 -1.91049882E+01  0.00000000E+00  9.55249411E+00  9.55249411E+00
 -1.91049882E+01  0.00000000E+00  9.55249411E+00  9.55249411E+00 -1.91049882E+01
  0.00000000E+00  9.55249411E+00  9.55249411E+00 -1.91049882E+01  0.00000000E+00
  9.55249411E+00  9.55249411E+00 -1.91049882E+01  0.00000000E+00  9.55249411E+00
  9.55249411E+00 -1.91049882E+01  0.00000000E+00  9.55249411E+00  9.55249411E+00
 -1.91049882E+01  0.00000000E+00  9.55249411E+00  9.55249411E+00 -1.91049882E+01
  0.00000000E+00  9.55249411E+00  9.55249411E+00 -1.91049882E+01  0.00000000E+00
  9.55249411E+00  9.55249411E+00 -1.91049882E+01  0.00000000E+00  9.55249411E+00
  9.55249411E+00 -1.91049882E+01  0.00000000E+00  9.55249411E+00  9.55249411E+00
 -1.91049882E+01  0.00000000E+00  9.55249411E+00  9.55249411E+00 -1.91049882E+01
  0.00000000E+00  9.55249411E+00  9.55249411E+00 -1.91049882E+01  0.00000000E+00
  9.55249411E+00  9.55249411E+00 -1.91049882E+01  0.00000000E+00  9.55249411E+00
  9.55249411E+00 -1.91049882E+01  0.00000000E+00  9.55249411E+00  9.55249411E+00
 -1.91049882E+01  0.00000000E+00  9.55249411E+00  9.55249411E+00 -1.91049882E+01
  0.00000000E+00  9.55249411E+00  9.55249411E+00 -1.91049882E+01  0.00000000E+00
  9.55249411E+00  9.55249411E+00 -1.91049882E+01  0.00000000E+00  9.55249411E+00
  9.55249411E+00 -1.91049882E+01  0.00000000E+00  9.55249411E+00  9.55249411E+00
 -1.91049882E+01  0.00000000E+00  9.55249411E+00  9.55249411E+00 -1.91049882E+01
  0.00000000E+00  9.55249411E+00  9.55249411E+00 -1.91049882E+01  0.00000000E+00
  9.55249411E+00  9.55249411E+00 -1.91049882E+01  0.00000000E+00  9.55249411E+00
  9.55249411E+00 -1.91049882E+01  0.00000000E+00  9.55249411E+00  9.55249411E+00
 -1.91049882E+01  0.00000000E+00  9.55249411E+00  9.55249411E+00 -1.91049882E+01
  0.00000000E+00  9.55249411E+00  9.55249411E+00 -1.91049882E+01  0.00000000E+00
  9.55249411E+00  9.55249411E+00 -1.91049882E+01  0.00000000E+00  9.55249411E+00
  9.55249411E+00 -1.91049882E+01  0.00000000E+00  9.55249411E+00  9.55249411E+00
 -1.91049882E+01  0.00000000E+00  9.55249411E+00  9.55249411E+00 -1.91049882E+01
  0.00000000E+00  9.55249411E+00  9.55249411E+00 -1.91049882E+01  0.00000000E+00
  9.55249411E+00  9.55249411E+00 -1.91049882E+01  0.00000000E+00  9.55249411E+00
  9.55249411E+00 -1.91049882E+01  0.00000000E+00  9.55249411E+00  9.55249411E+00
 -1.91049882E+01  0.00000000E+00  9.55249411E+00  9.55249411E+00 -1.91049882E+01
  0.00000000E+00  9.55249411E+00  9.55249411E+00 -1.91049882E+01  0.00000000E+00
  9.55249411E+00  9.55249411E+00 -1.91049882E+01  0.00000000E+00  9.55249411E+00
  9.55249411E+00 -1.91049882E+01  0.00000000E+00  9.55249411E+00  9.55249411E+00
 -1.91049882E+01  0.00000000E+00  9.55249411E+00  9.55249411E+00 -1.91049882E+01
  0.00000000E+00  9.55249411E+00  9.55249411E+00 -1.91049882E+01  0.00000000E+00
  9.55249411E+00  9.55249411E+00 -1.91049882E+01  0.00000000E+00  9.55249411E+00
  9.55249411E+00 -1.91049882E+01  0.00000000E+00  9.55249411E+00  9.55249411E+00
 -1.91049882E+01  0.00000000E+00  9.55249411E+00  9.55249411E+00 -1.91049882E+01
  0.00000000E+00  9.55249411E+00  9.55249411E+00 -1.91049882E+01  0.00000000E+00
  9.55249411E+00  9.55249411E+00 -1.91049882E+01  0.00000000E+00  9.55249411E+00
  9.55249411E+00 -1.91049882E+01  0.00000000E+00  9.55249411E+00  9.55249411E+00
 -1.91049882E+01  0.00000000E+00  9.55249411E+00  9.55249411E+00 -1.91049882E+01
  0.00000000E+00  9.55249411E+00  9.55249411E+00 -1.91049882E+01  0.00000000E+00
  9.55249411E+00  9.55249411E+00 -1.91049882E+01  0.00000000E+00  9.55249411E+00
  9.55249411E+00 -1.91049882E+01  0.00000000E+00  9.55249411E+00  9.55249411E+00
 -1.91049882E+01  0.00000000E+00  9.55249411E+00  9.55249411E+00 -1.91049882E+01
  0.00000000E+00  9.55249411E+00  9.55249411E+00 -1.91049882E+01  0.00000000E+00
  9.55249411E+00  9.55249411E+00 -1.91049882E+01  0.00000000E+00  9.55249411E+00
  9.55249411E+00 -1.91049882E+01  0.00000000E+00  9.55249411E+00  9.55249411E+00
 -1.91049882E+01  0.00000000E+00  9.55249411E+00  9.55249411E+00 -1.91049882E+01
  0.00000000E+00  9.55249411E+00  9.55249411E+00 -1.91049882E+01  0.00000000E+00
  9.55249411E+00  9.55249411E+00 -1.91049882E+01  0.00000000E+00  9.55249411E+00
  9.55249411E+00 -1.91049882E+01  0.00000000E+00  9.55249411E+00  9.55249411E+00
 -1.91049882E+01  0.00000000E+00  9.55249411E+00  9.55249411E+00 -1.91049882E+01
  0.00000000E+00  9.55249411E+00  9.55249411E+00 -1.91049882E+01  0.00000000E+00
  9.55249411E+00  9.55249411E+00 -1.91049882E+01  0.00000000E+00  9.55249411E+00
  9.55249411E+00 -1.91049882E+01  0.00000000E+00  9.55249411E+00  9.55249411E+00
 -1.91049882E+01  0.00000000E+00  9.55249411E+00  9.55249411E+00 -1.91049882E+01
  0.00000000E+00  9.55249411E+00  9.55249411E+00 -1.91049882E+01  0.00000000E+00
  9.55249411E+00  9.55249411E+00 -1.91049882E+01  0.00000000E+00  9.55249411E+00
  9.55249411E+00 -1.91049882E+01  0.00000000E+00  9.55249411E+00  9.55249411E+00
 -1.91049882E+01  0.00000000E+00  9.55249411E+00  9.55249411E+00 -1.91049882E+01
  0.00000000E+00  9.55249411E+00  9.55249411E+00 -1.91049882E+01  0.00000000E+00
  9.55249411E+00  9.55249411E+00 -1.91049882E+01  0.00000000E+00  9.55249411E+00
  9.55249411E+00 -1.91049882E+01  0.00000000E+00  9.55249411E+00  9.55249411E+00
 -1.91049882E+01  0.00000000E+00  9.55249411E+00  9.55249411E+00 -1.91049882E+01
  0.00000000E+00  9.55249411E+00  9.55249411E+00 -1.91049882E+01  0.00000000E+00
  9.55249411E+00  9.55249411E+00 -1.91049882E+01  0.00000000E+00  9.55249411E+00
  9.55249411E+00 -1.91049882E+01  0.00000000E+00  9.55249411E+00  9.55249411E+00
 -1.91049882E+01  0.00000000E+00  9.55249411E+00  9.55249411E+00 -1.91049882E+01
  0.00000000E+00  9.55249411E+00  9.55249411E+00 -1.91049882E+01  0.00000000E+00
  9.55249411E+00  9.55249411E+00 -1.91049882E+01  0.00000000E+00  9.55249411E+00
  9.55249411E+00 -1.91049882E+01  0.00000000E+00  9.55249411E+00  9.55249411E+00
 -1.91049882E+01  0.00000000E+00  9.55249411E+00  9.55249411E+00 -1.91049882E+01
  0.00000000E+00  9.55249411E+00  9.55249411E+00 -1.91049882E+01  0.00000000E+00
  9.55249411E+00  9.55249411E+00 -1.91049882E+01  0.00000000E+00  9.55249411E+00
  9.55249411E+00 -1.91049882E+01  0.00000000E+00  9.55249411E+00  9.55249411E+00
 -1.91049882E+01  0.00000000E+00  9.55249411E+00  9.55249411E+00 -1.91049882E+01
  0.00000000E+00  9.55249411E+00  9.55249411E+00 -1.91049882E+01  0.00000000E+00
  9.55249411E+00  9.55249411E+00 -1.91049882E+01  0.00000000E+00  9.55249411E+00
  9.55249411E+00 -1.91049882E+01  0.00000000E+00  9.55249411E+00  9.55249411E+00
 -1.91049882E+01  0.00000000E+00  9.55249411E+00  9.55249411E+00 -1.91049882E+01
  0.00000000E+00  9.55249411E+00  9.55249411E+00 -1.91049882E+01  0.00000000E+00
  9.55249411E+00  9.55249411E+00 -1.91049882E+01  0.00000000E+00  9.55249411E+00
  9.55249411E+00 -1.91049882E+01  0.00000000E+00  9.55249411E+00  9.55249411E+00
 -1.91049882E+01  0.00000000E+00  9.55249411E+00  9.55249411E+00 -1.91049882E+01
  0.00000000E+00  9.55249411E+00  9.55249411E+00 -1.91049882E+01  0.00000000E+00
  9.55249411E+00  9.55249411E+00 -1.91049882E+01  0.00000000E+00  9.55249411E+00
  9.55249411E+00 -1.91049882E+01  0.00000000E+00  9.55249411E+00  9.55249411E+00
 -1.91049882E+01  0.00000000E+00  9.55249411E+00  9.55249411E+00 -1.91049882E+01
  0.00000000E+00  9.55249411E+00  9.55249411E+00 -1.91049882E+01  0.00000000E+00
  9.55249411E+00  9.55249411E+00 -1.91049882E+01  0.00000000E+00  9.55249411E+00
  9.55249411E+00 -1.91049882E+01  0.00000000E+00  9.55249411E+00  9.55249411E+00
 -1.91049882E+01  0.00000000E+00  9.55249411E+00  9.55249411E+00 -1.91049882E+01
  0.00000000E+00  9.55249411E+00  9.55249411E+00 -1.91049882E+01  0.00000000E+00
  9.55249411E+00  9.55249411E+00 -1.91049882E+01  0.00000000E+00  9.55249411E+00
  9.55249411E+00 -1.91049882E+01  0.00000000E+00  9.55249411E+00  9.55249411E+00
 -1.91049882E+01  0.00000000E+00  9.55249411E+00  9.55249411E+00 -1.91049882E+01
  0.00000000E+00  9.55249411E+00  9.55249411E+00 -1.91049882E+01  0.00000000E+00
  9.55249411E+00  9.55249411E+00 -1.91049882E+01  0.00000000E+00  9.55249411E+00
  9.55249411E+00 -1.91049882E+01  0.00000000E+00  9.55249411E+00  9.55249411E+00
 -1.91049882E+01  0.00000000E+00  9.55249411E+00  9.55249411E+00 -1.91049882E+01
  0.00000000E+00  9.55249411E+00  9.55249411E+00 -1.91049882E+01  0.00000000E+00
  9.55249411E+00  9.55249411E+00 -1.91049882E+01  0.00000000E+00  9.55249411E+00
  9.55249411E+00 -1.91049882E+01  0.00000000E+00  9.55249411E+00  9.55249411E+00
 -1.91049882E+01  0.00000000E+00  9.55249411E+00  9.55249411E+00 -1.91049882E+01
  0.00000000E+00  9.55249411E+00  9.55249411E+00 -1.91049882E+01  0.00000000E+00
  9.55249411E+00  9.55249411E+00 -1.91049882E+01  0.00000000E+00  9.55249411E+00
  9.55249411E+00 -1.91049882E+01  0.00000000E+00  9.55249411E+00  9.55249411E+00
 -1.91049882E+01  0.00000000E+00  9.55249411E+00  9.55249411E+00 -1.91049882E+01
  0.00000000E+00  9.55249411E+00  9.55249411E+00 -1.91049882E+01  0.00000000E+00
  9.55249411E+00  9.55249411E+00 -1.91049882E+01  0.00000000E+00  9.55249411E+00
  9.55249411E+00 -1.91049882E+01  0.00000000E+00  9.55249411E+00  9.55249411E+00
 -1.91049882E+01  0.00000000E+00  9.55249411E+00  9.55249411E+00 -1.91049882E+01
  0.00000000E+00  9.55249411E+00  9.55249411E+00 -1.91049882E+01  0.00000000E+00
  9.55249411E+00  9.55249411E+00 -1.91049882E+01  0.00000000E+00  9.55249411E+00
  9.55249411E+00 -1.91049882E+01  0.00000000E+00  9.55249411E+00  9.55249411E+00
 -1.91049882E+01  0.00000000E+00  9.55249411E+00  9.55249411E+00 -1.91049882E+01
  0.00000000E+00  9.55249411E+00  9.55249411E+00 -1.91049882E+01  0.00000000E+00
  9.55249411E+00  9.55249411E+00 -1.91049882E+01  0.00000000E+00  9.55249411E+00
  9.55249411E+00 -1.91049882E+01  0.00000000E+00  9.55249411E+00  9.55249411E+00
 -1.91049882E+01  0.00000000E+00  9.55249411E+00  9.55249411E+00 -1.91049882E+01
  0.00000000E+00  9.55249411E+00  9.55249411E+00 -1.91049882E+01  0.00000000E+00
  9.55249411E+00  9.55249411E+00 -1.91049882E+01  0.00000000E+00  9.55249411E+00
  9.55249411E+00 -1.91049882E+01  0.00000000E+00  9.55249411E+00  9.55249411E+00
 -1.91049882E+01  0.00000000E+00  9.55249411E+00  9.55249411E+00 -1.91049882E+01
  0.00000000E+00  9.55249411E+00  9.55249411E+00 -1.91049882E+01  0.00000000E+00
  9.55249411E+00  9.55249411E+00 -1.91049882E+01  0.00000000E+00  9.55249411E+00
  9.55249411E+00 -1.91049882E+01  0.00000000E+00  9.55249411E+00  9.55249411E+00
 -1.91049882E+01  0.00000000E+00  9.55249411E+00  9.55249411E+00 -1.91049882E+01
  0.00000000E+00  9.55249411E+00  9.55249411E+00 -1.91049882E+01  0.00000000E+00
  9.55249411E+00  9.55249411E+00 -1.91049882E+01  0.00000000E+00  9.55249411E+00
  9.55249411E+00 -1.91049882E+01  0.00000000E+00  9.55249411E+00  9.55249411E+00
 -1.91049882E+01  0.00000000E+00  9.55249411E+00  9.55249411E+00 -1.91049882E+01
  0.00000000E+00  9.55249411E+00  9.55249411E+00 -1.91049882E+01  0.00000000E+00
  9.55249411E+00  9.55249411E+00 -1.91049882E+01  0.00000000E+00  9.55249411E+00
  9.55249411E+00 -1.91049882E+01  0.00000000E+00  9.55249411E+00  9.55249411E+00
 -1.91049882E+01  0.00000000E+00  9.55249411E+00  9.55249411E+00 -1.91049882E+01
  0.00000000E+00  9.55249411E+00  9.55249411E+00 -1.91049882E+01  0.00000000E+00
  9.55249411E+00  9.55249411E+00 -1.91049882E+01  0.00000000E+00  9.55249411E+00
  9.55249411E+00 -1.91049882E+01  0.00000000E+00  9.55249411E+00  9.55249411E+00
 -1.91049882E+01  0.00000000E+00  9.55249411E+00  9.55249411E+00 -1.91049882E+01
  0.00000000E+00  9.55249411E+00  9.55249411E+00 -1.91049882E+01  0.00000000E+00
  9.55249411E+00  9.55249411E+00 -1.91049882E+01  0.00000000E+00  9.55249411E+00
  9.55249411E+00 -1.91049882E+01  0.00000000E+00  9.55249411E+00  9.55249411E+00
 -1.91049882E+01  0.00000000E+00  9.55249411E+00  9.55249411E+00 -1.91049882E+01
  0.00000000E+00  9.55249411E+00  9.55249411E+00 -1.91049882E+01  0.00000000E+00
  9.55249411E+00  9.55249411E+00 -1.91049882E+01  0.00000000E+00  9.55249411E+00
  9.55249411E+00 -1.91049882E+01  0.00000000E+00  9.55249411E+00  9.55249411E+00
 -1.91049882E+01  0.00000000E+00  9.55249411E+00  9.55249411E+00 -1.91049882E+01
  0.00000000E+00  9.55249411E+00  9.55249411E+00 -1.91049882E+01  0.00000000E+00
  9.55249411E+00  9.55249411E+00 -1.91049882E+01  0.00000000E+00  9.55249411E+00
  9.55249411E+00 -1.91049882E+01  0.00000000E+00  9.55249411E+00  9.55249411E+00
 -1.91049882E+01  0.00000000E+00  9.55249411E+00  9.55249411E+00 -1.91049882E+01
  0.00000000E+00  9.55249411E+00  9.55249411E+00 -1.91049882E+01  0.00000000E+00
  9.55249411E+00  9.55249411E+00 -1.91049882E+01  0.00000000E+00  9.55249411E+00
  9.55249411E+00 -1.91049882E+01  0.00000000E+00  9.55249411E+00  9.55249411E+00
 -1.91049882E+01  0.00000000E+00  9.55249411E+00  9.55249411E+00 -1.91049882E+01
  0.00000000E+00  9.55249411E+00  9.55249411E+00 -1.91049882E+01  0.00000000E+00
  9.55249411E+00  9.55249411E+00 -1.91049882E+01  0.00000000E+00  9.55249411E+00
  9.55249411E+00 -1.91049882E+01  0.00000000E+00  9.55249411E+00  9.55249411E+00
 -1.91049882E+01  0.00000000E+00  9.55249411E+00  9.55249411E+00 -1.91049882E+01
  0.00000000E+00  9.55249411E+00  9.55249411E+00 -1.91049882E+01  0.00000000E+00
  9.55249411E+00  9.55249411E+00 -1.91049882E+01  0.00000000E+00  9.55249411E+00
  9.55249411E+00 -1.91049882E+01  0.00000000E+00  9.55249411E+00  9.55249411E+00
 -1.91049882E+01  0.00000000E+00  9.55249411E+00  9.55249411E+00 -1.91049882E+01
  0.00000000E+00  9.55249411E+00  9.55249411E+00 -1.91049882E+01  0.00000000E+00
  9.55249411E+00  9.55249411E+00 -1.91049882E+01  0.00000000E+00  9.55249411E+00
  9.55249411E+00 -1.91049882E+01  0.00000000E+00  9.55249411E+00  9.55249411E+00
 -1.91049882E+01  0.00000000E+00  9.55249411E+00  9.55249411E+00 -1.91049882E+01
  0.00000000E+00  9.55249411E+00  9.55249411E+00 -1.91049882E+01  0.00000000E+00
  9.55249411E+00  9.55249411E+00 -1.91049882E+01  0.00000000E+00  9.55249411E+00
  9.55249411E+00 -1.91049882E+01  0.00000000E+00  9.55249411E+00  9.55249411E+00
 -1.91049882E+01  0.00000000E+00  9.55249411E+00  9.55249411E+00 -1.91049882E+01
  0.00000000E+00  9.55249411E+00  9.55249411E+00 -1.91049882E+01  0.00000000E+00
  9.55249411E+00  9.55249411E+00 -1.91049882E+01  0.00000000E+00  9.55249411E+00
  9.55249411E+00 -1.91049882E+01  0.00000000E+00  9.55249411E+00  9.55249411E+00
 -1.91049882E+01  0.00000000E+00  9.55249411E+00  9.55249411E+00 -1.91049882E+01
  0.00000000E+00  9.55249411E+00  9.55249411E+00 -1.91049882E+01  0.00000000E+00
  9.55249411E+00  9.55249411E+00 -1.91049882E+01  0.00000000E+00  9.55249411E+00
  9.55249411E+00 -1.91049882E+01  0.00000000E+00  9.55249411E+00  9.55249411E+00
 -1.91049882E+01  0.00000000E+00  9.55249411E+00  9.55249411E+00 -1.91049882E+01
  0.00000000E+00  9.55249411E+00  9.55249411E+00 -1.91049882E+01  0.00000000E+00
  9.55249411E+00  9.55249411E+00 -1.91049882E+01  0.00000000E+00  9.55249411E+00
  9.55249411E+00 -1.91049882E+01  0.00000000E+00  9.55249411E+00  9.55249411E+00
 -1.91049882E+01  0.00000000E+00  9.55249411E+00  9.55249411E+00 -1.91049882E+01
  0.00000000E+00  9.55249411E+00  9.55249411E+00 -1.91049882E+01  0.00000000E+00
  9.55249411E+00  9.55249411E+00 -1.91049882E+01  0.00000000E+00  9.55249411E+00
  9.55249411E+00 -1.91049882E+01  0.00000000E+00  9.55249411E+00  9.55249411E+00
 -1.91049882E+01  0.00000000E+00  9.55249411E+00  9.55249411E+00 -1.91049882E+01
  0.00000000E+00  9.55249411E+00  9.55249411E+00 -1.91049882E+01  0.00000000E+00
  9.55249411E+00  9.55249411E+00 -1.91049882E+01  0.00000000E+00  9.55249411E+00
  9.55249411E+00 -1.91049882E+01  0.00000000E+00  9.55249411E+00  9.55249411E+00
 -1.91049882E+01  0.00000000E+00  9.55249411E+00  9.55249411E+00 -1.91049882E+01
  0.00000000E+00  9.55249411E+00  9.55249411E+00 -1.91049882E+01  0.00000000E+00
  9.55249411E+00  9.55249411E+00 -1.91049882E+01  0.00000000E+00  9.55249411E+00
  9.55249411E+00 -1.91049882E+01  0.00000000E+00  9.55249411E+00  9.55249411E+00
 -1.91049882E+01  0.00000000E+00  9.55249411E+00  9.55249411E+00 -1.91049882E+01
  0.00000000E+00  9.55249411E+00  9.55249411E+00 -1.91049882E+01  0.00000000E+00
  9.55249411E+00  9.55249411E+00 -1.91049882E+01  0.00000000E+00  9.55249411E+00
  9.55249411E+00 -1.91049882E+01  0.00000000E+00  9.55249411E+00  9.55249411E+00
 -1.91049882E+01  0.00000000E+00  9.55249411E+00  9.55249411E+00 -1.91049882E+01
  0.00000000E+00  9.55249411E+00  9.55249411E+00 -1.91049882E+01  0.00000000E+00
  9.55249411E+00  9.55249411E+00 -1.91049882E+01  0.00000000E+00  9.55249411E+00
  9.55249411E+00 -1.91049882E+01  0.00000000E+00  9.55249411E+00  9.55249411E+00
 -1.91049882E+01  0.00000000E+00  9.55249411E+00  9.55249411E+00 -1.91049882E+01
  0.00000000E+00  9.55249411E+00  9.55249411E+00 -1.91049882E+01  0.00000000E+00
  9.55249411E+00  9.55249411E+00 -1.91049882E+01  0.00000000E+00  9.55249411E+00
  9.55249411E+00 -1.91049882E+01  0.00000000E+00  9.55249411E+00  9.55249411E+00
 -1.91049882E+01  0.00000000E+00  9.55249411E+00  9.55249411E+00 -1.91049882E+01
  0.00000000E+00  9.55249411E+00  9.55249411E+00 -1.91049882E+01  0.00000000E+00
  9.55249411E+00  9.55249411E+00 -1.91049882E+01  0.00000000E+00  9.55249411E+00
  9.55249411E+00 -1.91049882E+01  0.00000000E+00  9.55249411E+00  9.55249411E+00
 -1.91049882E+01  0.00000000E+00  9.55249411E+00  9.55249411E+00 -1.91049882E+01
  0.00000000E+00  9.55249411E+00  9.55249411E+00 -1.91049882E+01  0.00000000E+00
  9.55249411E+00  9.55249411E+00 -1.91049882E+01  0.00000000E+00  9.55249411E+00
  9.55249411E+00 -1.91049882E+01  0.00000000E+00  9.55249411E+00  9.55249411E+00
 -1.91049882E+01  0.00000000E+00  9.55249411E+00  9.55249411E+00 -1.91049882E+01
  0.00000000E+00  9.55249411E+00  9.55249411E+00 -1.91049882E+01  0.00000000E+00
  9.55249411E+00  9.55249411E+00 -1.91049882E+01  0.00000000E+00  9.55249411E+00
  9.55249411E+00 -1.91049882E+01  0.00000000E+00  9.55249411E+00  9.55249411E+00
 -1.91049882E+01  0.00000000E+00  9.55249411E+00  9.55249411E+00 -1.91049882E+01
  0.00000000E+00  9.55249411E+00  9.55249411E+00 -1.91049882E+01  0.00000000E+00
  9.55249411E+00  9.55249411E+00 -1.91049882E+01  0.00000000E+00  9.55249411E+00
  9.55249411E+00 -1.91049882E+01  0.00000000E+00  9.55249411E+00  9.55249411E+00
 -1.91049882E+01  0.00000000E+00  9.55249411E+00  9.55249411E+00 -1.91049882E+01
  0.00000000E+00  9.55249411E+00  9.55249411E+00 -1.91049882E+01  0.00000000E+00
  9.55249411E+00  9.55249411E+00 -1.91049882E+01  0.00000000E+00  9.55249411E+00
  9.55249411E+00 -1.91049882E+01  0.00000000E+00  9.55249411E+00  9.55249411E+00
 -1.91049882E+01  0.00000000E+00  9.55249411E+00  9.55249411E+00 -1.91049882E+01
  0.00000000E+00  9.55249411E+00  9.55249411E+00 -1.91049882E+01  0.00000000E+00
  9.55249411E+00  9.55249411E+00 -1.91049882E+01  0.00000000E+00  9.55249411E+00
  9.55249411E+00 -1.91049882E+01  0.00000000E+00  9.55249411E+00  9.55249411E+00
 -1.91049882E+01  0.00000000E+00  9.55249411E+00  9.55249411E+00 -1.91049882E+01
  0.00000000E+00  9.55249411E+00  9.55249411E+00 -1.91049882E+01  0.00000000E+00
  9.55249411E+00  9.55249411E+00 -1.91049882E+01  0.00000000E+00  9.55249411E+00
  9.55249411E+00 -1.91049882E+01  0.00000000E+00  9.55249411E+00  9.55249411E+00
 -1.91049882E+01  0.00000000E+00  9.55249411E+00  9.55249411E+00 -1.91049882E+01
  0.00000000E+00  9.55249411E+00  9.55249411E+00 -1.91049882E+01  0.00000000E+00
  9.55249411E+00  9.55249411E+00 -1.91049882E+01  0.00000000E+00  9.55249411E+00
  9.55249411E+00 -1.91049882E+01  0.00000000E+00  9.55249411E+00  9.55249411E+00
 -1.91049882E+01  0.00000000E+00  9.55249411E+00  9.55249411E+00 -1.91049882E+01
  0.00000000E+00  9.55249411E+00  9.55249411E+00 -1.91049882E+01  0.00000000E+00
  9.55249411E+00  9.55249411E+00 -1.91049882E+01  0.00000000E+00  9.55249411E+00
  9.55249411E+00 -1.91049882E+01  0.00000000E+00  9.55249411E+00  9.55249411E+00
 -1.91049882E+01  0.00000000E+00  9.55249411E+00  9.55249411E+00 -1.91049882E+01
  0.00000000E+00  9.55249411E+00  9.55249411E+00 -1.91049882E+01  0.00000000E+00
  9.55249411E+00  9.55249411E+00 -1.91049882E+01  0.00000000E+00  9.55249411E+00
  9.55249411E+00 -1.91049882E+01  0.00000000E+00  9.55249411E+00  9.55249411E+00
 -1.91049882E+01  0.00000000E+00  9.55249411E+00  9.55249411E+00 -1.91049882E+01
  0.00000000E+00  9.55249411E+00  9.55249411E+00 -1.91049882E+01  0.00000000E+00
  9.55249411E+00  9.55249411E+00 -1.91049882E+01  0.00000000E+00  9.55249411E+00
  9.55249411E+00 -1.91049882E+01  0.00000000E+00  9.55249411E+00  9.55249411E+00
 -1.91049882E+01  0.00000000E+00  9.55249411E+00  9.55249411E+00 -1.91049882E+01
  0.00000000E+00  9.55249411E+00  9.55249411E+00 -1.91049882E+01  0.00000000E+00
  9.55249411E+00  9.55249411E+00 -1.91049882E+01  0.00000000E+00  9.55249411E+00
  9.55249411E+00 -1.91049882E+01  0.00000000E+00  9.55249411E+00  9.55249411E+00
 -1.91049882E+01  0.00000000E+00  9.55249411E+00  9.55249411E+00 -1.91049882E+01
  0.00000000E+00  9.55249411E+00  9.55249411E+00 -1.91049882E+01  0.00000000E+00
  9.55249411E+00  9.55249411E+00 -1.91049882E+01  0.00000000E+00  9.55249411E+00
  9.55249411E+00 -1.91049882E+01  0.00000000E+00  9.55249411E+00  9.55249411E+00
 -1.91049882E+01  0.00000000E+00  9.55249411E+00  9.55249411E+00 -1.91049882E+01
  0.00000000E+00  9.55249411E+00  9.55249411E+00 -1.91049882E+01  0.00000000E+00
  9.55249411E+00  9.55249411E+00 -1.91049882E+01  0.00000000E+00  9.55249411E+00
  9.55249411E+00 -1.91049882E+01  0.00000000E+00  9.55249411E+00  9.55249411E+00
 -1.91049882E+01  0.00000000E+00  9.55249411E+00  9.55249411E+00 -1.91049882E+01
  0.00000000E+00  9.55249411E+00  9.55249411E+00 -1.91049882E+01  0.00000000E+00
  9.55249411E+00  9.55249411E+00 -1.91049882E+01  0.00000000E+00  9.55249411E+00
  9.55249411E+00 -1.91049882E+01  0.00000000E+00  9.55249411E+00  9.55249411E+00
 -1.91049882E+01  0.00000000E+00  9.55249411E+00  9.55249411E+00 -1.91049882E+01
  0.00000000E+00  9.55249411E+00  9.55249411E+00 -1.91049882E+01  0.00000000E+00
  9.55249411E+00  9.55249411E+00 -1.91049882E+01  0.00000000E+00  9.55249411E+00
  9.55249411E+00 -1.91049882E+01  0.00000000E+00  9.55249411E+00  9.55249411E+00
 -1.91049882E+01  0.00000000E+00  9.55249411E+00  9.55249411E+00 -1.91049882E+01
  0.00000000E+00  9.55249411E+00  9.55249411E+00 -1.91049882E+01  0.00000000E+00
  9.55249411E+00  9.55249411E+00 -1.91049882E+01  0.00000000E+00  9.55249411E+00
  9.55249411E+00 -1.91049882E+01  0.00000000E+00  9.55249411E+00  9.55249411E+00
 -1.91049882E+01  0.00000000E+00  9.55249411E+00  9.55249411E+00 -1.91049882E+01
  0.00000000E+00  9.55249411E+00  9.55249411E+00 -1.91049882E+01  0.00000000E+00
  9.55249411E+00  9.55249411E+00 -1.91049882E+01  0.00000000E+00  9.55249411E+00
  9.55249411E+00 -1.91049882E+01  0.00000000E+00  9.55249411E+00  9.55249411E+00
 -1.91049882E+01  0.00000000E+00  9.55249411E+00  9.55249411E+00 -1.91049882E+01
  0.00000000E+00  9.55249411E+00  9.55249411E+00 -1.91049882E+01  0.00000000E+00
  9.55249411E+00  9.55249411E+00 -1.91049882E+01  0.00000000E+00  9.55249411E+00
  9.55249411E+00 -1.91049882E+01  0.00000000E+00  9.55249411E+00  9.55249411E+00
 -1.91049882E+01  0.00000000E+00  9.55249411E+00  9.55249411E+00 -1.91049882E+01
  0.00000000E+00  9.55249411E+00  9.55249411E+00 -1.91049882E+01  0.00000000E+00
  9.55249411E+00  9.55249411E+00 -1.91049882E+01  0.00000000E+00  9.55249411E+00
  9.55249411E+00 -1.91049882E+01  0.00000000E+00  9.55249411E+00  9.55249411E+00
 -1.91049882E+01  0.00000000E+00  9.55249411E+00  9.55249411E+00 -1.91049882E+01
  0.00000000E+00  9.55249411E+00  9.55249411E+00 -1.91049882E+01  0.00000000E+00
  9.55249411E+00  9.55249411E+00 -1.91049882E+01  0.00000000E+00  9.55249411E+00
  9.55249411E+00 -1.91049882E+01  0.00000000E+00  9.55249411E+00  9.55249411E+00
 -1.91049882E+01  0.00000000E+00  9.55249411E+00  9.55249411E+00 -1.91049882E+01
  0.00000000E+00  9.55249411E+00  9.55249411E+00 -1.91049882E+01  0.00000000E+00
  9.55249411E+00  9.55249411E+00 -1.91049882E+01  0.00000000E+00  9.55249411E+00
  9.55249411E+00 -1.91049882E+01  0.00000000E+00  9.55249411E+00  9.55249411E+00
 -1.91049882E+01  0.00000000E+00  9.55249411E+00  9.55249411E+00 -1.91049882E+01
  0.00000000E+00  9.55249411E+00  9.55249411E+00 -1.91049882E+01  0.00000000E+00
  9.55249411E+00  9.55249411E+00 -1.91049882E+01  0.00000000E+00  9.55249411E+00
  9.55249411E+00 -1.91049882E+01  0.00000000E+00  9.55249411E+00  9.55249411E+00
 -1.91049882E+01  0.00000000E+00  9.55249411E+00  9.55249411E+00 -1.91049882E+01
  0.00000000E+00  9.55249411E+00  9.55249411E+00 -1.91049882E+01  0.00000000E+00
  9.55249411E+00  9.55249411E+00 -1.91049882E+01  0.00000000E+00  9.55249411E+00
  9.55249411E+00 -1.91049882E+01  0.00000000E+00  9.55249411E+00  9.55249411E+00
 -1.91049882E+01  0.00000000E+00  9.55249411E+00  9.55249411E+00 -1.91049882E+01
  0.00000000E+00  9.55249411E+00  9.55249411E+00 -1.91049882E+01  0.00000000E+00
  9.55249411E+00  9.55249411E+00 -1.91049882E+01  0.00000000E+00  9.55249411E+00
  9.55249411E+00 -1.91049882E+01  0.00000000E+00  9.55249411E+00  9.55249411E+00
 -1.91049882E+01  0.00000000E+00  9.55249411E+00  9.55249411E+00 -1.91049882E+01
  0.00000000E+00  9.55249411E+00  9.55249411E+00 -1.91049882E+01  0.00000000E+00
  9.55249411E+00  9.55249411E+00 -1.91049882E+01  0.00000000E+00  9.55249411E+00
  9.55249411E+00 -1.91049882E+01  0.00000000E+00  9.55249411E+00  9.55249411E+00
 -1.91049882E+01  0.00000000E+00  9.55249411E+00  9.55249411E+00 -1.91049882E+01
  0.00000000E+00  9.55249411E+00  9.55249411E+00 -1.91049882E+01  0.00000000E+00
  9.55249411E+00  9.55249411E+00 -1.91049882E+01  0.00000000E+00  9.55249411E+00
  9.55249411E+00 -1.91049882E+01  0.00000000E+00  9.55249411E+00  9.55249411E+00
 -1.91049882E+01  0.00000000E+00  9.55249411E+00  9.55249411E+00 -1.91049882E+01
  0.00000000E+00  9.55249411E+00  9.55249411E+00 -1.91049882E+01  0.00000000E+00
  9.55249411E+00  9.55249411E+00 -1.91049882E+01  0.00000000E+00  9.55249411E+00
  9.55249411E+00 -1.91049882E+01  0.00000000E+00  9.55249411E+00  9.55249411E+00
 -1.91049882E+01  0.00000000E+00  9.55249411E+00  9.55249411E+00 -1.91049882E+01
  0.00000000E+00  9.55249411E+00  9.55249411E+00 -1.91049882E+01  0.00000000E+00
  9.55249411E+00  9.55249411E+00 -1.91049882E+01  0.00000000E+00  9.55249411E+00
  9.55249411E+00 -1.91049882E+01  0.00000000E+00  9.55249411E+00  9.55249411E+00
 -1.91049882E+01  0.00000000E+00  9.55249411E+00  9.55249411E+00 -1.91049882E+01
  0.00000000E+00  9.55249411E+00  9.55249411E+00 -1.91049882E+01  0.00000000E+00
  9.55249411E+00  9.55249411E+00 -1.91049882E+01  0.00000000E+00  9.55249411E+00
  9.55249411E+00 -1.91049882E+01  0.00000000E+00  9.55249411E+00  9.55249411E+00
 -1.91049882E+01  0.00000000E+00  9.55249411E+00  9.55249411E+00 -1.91049882E+01
  0.00000000E+00  9.55249411E+00  9.55249411E+00 -1.91049882E+01  0.00000000E+00
  9.55249411E+00  9.55249411E+00 -1.91049882E+01  0.00000000E+00  9.55249411E+00
  9.55249411E+00 -1.91049882E+01  0.00000000E+00  9.55249411E+00  9.55249411E+00
 -1.91049882E+01  0.00000000E+00  9.55249411E+00  9.55249411E+00 -1.91049882E+01
  0.00000000E+00  9.55249411E+00  9.55249411E+00 -1.91049882E+01  0.00000000E+00
  9.55249411E+00  9.55249411E+00 -1.91049882E+01  0.00000000E+00  9.55249411E+00
  9.55249411E+00 -1.91049882E+01  0.00000000E+00  9.55249411E+00  9.55249411E+00
 -1.91049882E+01  0.00000000E+00  9.55249411E+00  9.55249411E+00 -1.91049882E+01
  0.00000000E+00  9.55249411E+00  9.55249411E+00 -1.91049882E+01  0.00000000E+00
  9.55249411E+00  9.55249411E+00 -1.91049882E+01  0.00000000E+00  9.55249411E+00
  9.55249411E+00 -1.91049882E+01  0.00000000E+00  9.55249411E+00  9.55249411E+00
 -1.91049882E+01  0.00000000E+00  9.55249411E+00  9.55249411E+00 -1.91049882E+01
  0.00000000E+00  9.55249411E+00  9.55249411E+00 -1.91049882E+01  0.00000000E+00
  9.55249411E+00  9.55249411E+00 -1.91049882E+01  0.00000000E+00  9.55249411E+00
  9.55249411E+00 -1.91049882E+01  0.00000000E+00  9.55249411E+00  9.55249411E+00
 -1.91049882E+01  0.00000000E+00  9.55249411E+00  9.55249411E+00 -1.91049882E+01
  0.00000000E+00  9.55249411E+00  9.55249411E+00 -1.91049882E+01  0.00000000E+00
  9.55249411E+00  9.55249411E+00 -1.91049882E+01  0.00000000E+00  9.55249411E+00
  9.55249411E+00 -1.91049882E+01  0.00000000E+00  9.55249411E+00  9.55249411E+00
 -1.91049882E+01  0.00000000E+00  9.55249411E+00  9.55249411E+00 -1.91049882E+01
  0.00000000E+00  9.55249411E+00  9.55249411E+00 -1.91049882E+01  0.00000000E+00
  9.55249411E+00  9.55249411E+00 -1.91049882E+01  0.00000000E+00  9.55249411E+00
  9.55249411E+00 -1.91049882E+01  0.00000000E+00  9.55249411E+00  9.55249411E+00
 -1.91049882E+01  0.00000000E+00  9.55249411E+00  9.55249411E+00 -1.91049882E+01
  0.00000000E+00  9.55249411E+00  9.55249411E+00 -1.91049882E+01  0.00000000E+00
  9.55249411E+00  9.55249411E+00 -1.91049882E+01  0.00000000E+00  9.55249411E+00
  9.55249411E+00 -1.91049882E+01  0.00000000E+00  9.55249411E+00  9.55249411E+00
 -1.91049882E+01  0.00000000E+00  9.55249411E+00  9.55249411E+00 -1.91049882E+01
  0.00000000E+00  9.55249411E+00  9.55249411E+00 -1.91049882E+01  0.00000000E+00
  9.55249411E+00  9.55249411E+00 -1.91049882E+01  0.00000000E+00  9.55249411E+00
  9.55249411E+00 -1.91049882E+01  0.00000000E+00  9.55249411E+00  9.55249411E+00
 -1.91049882E+01  0.00000000E+00  9.55249411E+00  9.55249411E+00 -1.91049882E+01
  0.00000000E+00  9.55249411E+00  9.55249411E+00 -1.91049882E+01  0.00000000E+00
  9.55249411E+00  9.55249411E+00 -1.91049882E+01  0.00000000E+00  9.55249411E+00
  9.55249411E+00 -1.91049882E+01  0.00000000E+00  9.55249411E+00  9.55249411E+00
 -1.91049882E+01  0.00000000E+00  9.55249411E+00  9.55249411E+00 -1.91049882E+01
  0.00000000E+00  9.55249411E+00  9.55249411E+00 -1.91049882E+01  0.00000000E+00
  9.55249411E+00  9.55249411E+00 -1.91049882E+01  0.00000000E+00  9.55249411E+00
  9.55249411E+00 -1.91049882E+01  0.00000000E+00  9.55249411E+00  9.55249411E+00
 -1.91049882E+01  0.00000000E+00  9.55249411E+00  9.55249411E+00 -1.91049882E+01
  0.00000000E+00  9.55249411E+00  9.55249411E+00 -1.91049882E+01  0.00000000E+00
  9.55249411E+00  9.55249411E+00 -1.91049882E+01  0.00000000E+00  9.55249411E+00
  9.55249411E+00 -1.91049882E+01  0.00000000E+00  9.55249411E+00  9.55249411E+00
 -1.91049882E+01  0.00000000E+00  9.55249411E+00  9.55249411E+00 -1.91049882E+01
  0.00000000E+00  9.55249411E+00  9.55249411E+00 -1.91049882E+01  0.00000000E+00
  9.55249411E+00  9.55249411E+00 -1.91049882E+01  0.00000000E+00  9.55249411E+00
  9.55249411E+00 -1.91049882E+01  0.00000000E+00  9.55249411E+00  9.55249411E+00
 -1.91049882E+01  0.00000000E+00  9.55249411E+00  9.55249411E+00 -1.91049882E+01
  0.00000000E+00  9.55249411E+00  9.55249411E+00 -1.91049882E+01  0.00000000E+00
  9.55249411E+00  9.55249411E+00 -1.91049882E+01  0.00000000E+00  9.55249411E+00
  9.55249411E+00 -1.91049882E+01  0.00000000E+00  9.55249411E+00  9.55249411E+00
 -1.91049882E+01  0.00000000E+00  9.55249411E+00  9.55249411E+00 -1.91049882E+01
  0.00000000E+00  9.55249411E+00  9.55249411E+00 -1.91049882E+01  0.00000000E+00
  9.55249411E+00  9.55249411E+00 -1.91049882E+01  0.00000000E+00  9.55249411E+00
  9.55249411E+00 -1.91049882E+01  0.00000000E+00  9.55249411E+00  9.55249411E+00
 -1.91049882E+01  0.00000000E+00  9.55249411E+00  9.55249411E+00 -1.91049882E+01
  0.00000000E+00  9.55249411E+00  9.55249411E+00 -1.91049882E+01  0.00000000E+00
  9.55249411E+00  9.55249411E+00 -1.91049882E+01  0.00000000E+00  9.55249411E+00
  9.55249411E+00 -1.91049882E+01  0.00000000E+00  9.55249411E+00  9.55249411E+00
 -1.91049882E+01  0.00000000E+00  9.55249411E+00  9.55249411E+00 -1.91049882E+01
  0.00000000E+00  9.55249411E+00  9.55249411E+00 -1.91049882E+01  0.00000000E+00
  9.55249411E+00  9.55249411E+00 -1.91049882E+01  0.00000000E+00  9.55249411E+00
  9.55249411E+00 -1.91049882E+01  0.00000000E+00  9.55249411E+00  9.55249411E+00
 -1.91049882E+01  0.00000000E+00  9.55249411E+00  9.55249411E+00 -1.91049882E+01
  0.00000000E+00  9.55249411E+00  9.55249411E+00 -1.91049882E+01  0.00000000E+00
  9.55249411E+00  9.55249411E+00 -1.91049882E+01  0.00000000E+00  9.55249411E+00
  9.55249411E+00 -1.91049882E+01  0.00000000E+00  9.55249411E+00  9.55249411E+00
 -1.91049882E+01  0.00000000E+00  9.55249411E+00  9.55249411E+00 -1.91049882E+01
  0.00000000E+00  9.55249411E+00  9.55249411E+00 -1.91049882E+01  0.00000000E+00
  9.55249411E+00  9.55249411E+00 -1.91049882E+01  0.00000000E+00  9.55249411E+00
  9.55249411E+00 -1.91049882E+01  0.00000000E+00  9.55249411E+00  9.55249411E+00
 -1.91049882E+01  0.00000000E+00  9.55249411E+00  9.55249411E+00 -1.91049882E+01
  0.00000000E+00  9.55249411E+00  9.55249411E+00 -1.91049882E+01  0.00000000E+00
  9.55249411E+00  9.55249411E+00 -1.91049882E+01  0.00000000E+00  9.55249411E+00
  9.55249411E+00 -1.91049882E+01  0.00000000E+00  9.55249411E+00  9.55249411E+00
 -1.91049882E+01  0.00000000E+00  9.55249411E+00  9.55249411E+00 -1.91049882E+01
  0.00000000E+00  9.55249411E+00  9.55249411E+00 -1.91049882E+01  0.00000000E+00
  9.55249411E+00  9.55249411E+00 -1.91049882E+01  0.00000000E+00  9.55249411E+00
  9.55249411E+00 -1.91049882E+01  0.00000000E+00  9.55249411E+00  9.55249411E+00
 -1.91049882E+01  0.00000000E+00  9.55249411E+00  9.55249411E+00 -1.91049882E+01
  0.00000000E+00  9.55249411E+00  9.55249411E+00 -1.91049882E+01  0.00000000E+00
  9.55249411E+00  9.55249411E+00 -1.91049882E+01  0.00000000E+00  9.55249411E+00
  9.55249411E+00 -1.91049882E+01  0.00000000E+00  9.55249411E+00  9.55249411E+00
 -1.91049882E+01  0.00000000E+00  9.55249411E+00  9.55249411E+00 -1.91049882E+01
  0.00000000E+00  9.55249411E+00  9.55249411E+00 -1.91049882E+01  0.00000000E+00
  9.55249411E+00  9.55249411E+00 -1.91049882E+01  0.00000000E+00  9.55249411E+00
  9.55249411E+00 -1.91049882E+01  0.00000000E+00  9.55249411E+00  9.55249411E+00
 -1.91049882E+01  0.00000000E+00  9.55249411E+00  9.55249411E+00 -1.91049882E+01
  0.00000000E+00  9.55249411E+00  9.55249411E+00 -1.91049882E+01  0.00000000E+00
  9.55249411E+00  9.55249411E+00 -1.91049882E+01  0.00000000E+00  9.55249411E+00
  9.55249411E+00 -1.91049882E+01  0.00000000E+00  9.55249411E+00  9.55249411E+00
 -1.91049882E+01  0.00000000E+00  9.55249411E+00  9.55249411E+00 -1.91049882E+01
  0.00000000E+00  9.55249411E+00  9.55249411E+00 -1.91049882E+01  0.00000000E+00
  9.55249411E+00  9.55249411E+00 -1.91049882E+01  0.00000000E+00  9.55249411E+00
  9.55249411E+00 -1.91049882E+01  0.00000000E+00  9.55249411E+00  9.55249411E+00
 -1.91049882E+01  0.00000000E+00  9.55249411E+00  9.55249411E+00 -1.91049882E+01
  0.00000000E+00  9.55249411E+00  9.55249411E+00 -1.91049882E+01  0.00000000E+00
  9.55249411E+00  9.55249411E+00 -1.91049882E+01  0.00000000E+00  9.55249411E+00
  9.55249411E+00 -1.91049882E+01  0.00000000E+00  9.55249411E+00  9.55249411E+00
 -1.91049882E+01  0.00000000E+00  9.55249411E+00  9.55249411E+00 -1.91049882E+01
  0.00000000E+00  9.55249411E+00  9.55249411E+00 -1.91049882E+01  0.00000000E+00
  9.55249411E+00  9.55249411E+00 -1.91049882E+01  0.00000000E+00  9.55249411E+00
  9.55249411E+00 -1.91049882E+01  0.00000000E+00  9.55249411E+00  9.55249411E+00
 -1.91049882E+01  0.00000000E+00  9.55249411E+00  9.55249411E+00 -1.91049882E+01
  0.00000000E+00  9.55249411E+00  9.55249411E+00 -1.91049882E+01  0.00000000E+00
  9.55249411E+00  9.55249411E+00 -1.91049882E+01  0.00000000E+00  9.55249411E+00
  9.55249411E+00 -1.91049882E+01  0.00000000E+00  9.55249411E+00  9.55249411E+00
 -1.91049882E+01  0.00000000E+00  9.55249411E+00  9.55249411E+00 -1.91049882E+01
  0.00000000E+00  9.55249411E+00  9.55249411E+00 -1.91049882E+01  0.00000000E+00
  9.55249411E+00  9.55249411E+00 -1.91049882E+01  0.00000000E+00  9.55249411E+00
  9.55249411E+00 -1.91049882E+01  0.00000000E+00  9.55249411E+00  9.55249411E+00
 -1.91049882E+01  0.00000000E+00  9.55249411E+00  9.55249411E+00 -1.91049882E+01
  0.00000000E+00  9.55249411E+00  9.55249411E+00 -1.91049882E+01  0.00000000E+00
  9.55249411E+00  9.55249411E+00 -1.91049882E+01  0.00000000E+00  9.55249411E+00
  9.55249411E+00 -1.91049882E+01  0.00000000E+00  9.55249411E+00  9.55249411E+00
 -1.91049882E+01  0.00000000E+00  9.55249411E+00  9.55249411E+00 -1.91049882E+01
  0.00000000E+00  9.55249411E+00  9.55249411E+00 -1.91049882E+01  0.00000000E+00
  9.55249411E+00  9.55249411E+00 -1.91049882E+01  0.00000000E+00  9.55249411E+00
  9.55249411E+00 -1.91049882E+01  0.00000000E+00  9.55249411E+00  9.55249411E+00
 -1.91049882E+01  0.00000000E+00  9.55249411E+00  9.55249411E+00 -1.91049882E+01
  0.00000000E+00  9.55249411E+00  9.55249411E+00 -1.91049882E+01  0.00000000E+00
  9.55249411E+00  9.55249411E+00 -1.91049882E+01  0.00000000E+00  9.55249411E+00
  9.55249411E+00 -1.91049882E+01  0.00000000E+00  9.55249411E+00  9.55249411E+00
 -1.91049882E+01  0.00000000E+00  9.55249411E+00  9.55249411E+00 -1.91049882E+01
  0.00000000E+00  9.55249411E+00  9.55249411E+00 -1.91049882E+01  0.00000000E+00
  9.55249411E+00  9.55249411E+00 -1.91049882E+01  0.00000000E+00  9.55249411E+00
  9.55249411E+00 -1.91049882E+01  0.00000000E+00  9.55249411E+00  9.55249411E+00
 -1.91049882E+01  0.00000000E+00  9.55249411E+00  9.55249411E+00 -1.91049882E+01
  0.00000000E+00  9.55249411E+00  9.55249411E+00 -1.91049882E+01  0.00000000E+00
  9.55249411E+00  9.55249411E+00 -1.91049882E+01  0.00000000E+00  9.55249411E+00
  9.55249411E+00 -1.91049882E+01  0.00000000E+00  9.55249411E+00  9.55249411E+00
 -1.91049882E+01  0.00000000E+00  9.55249411E+00  9.55249411E+00 -1.91049882E+01
  0.00000000E+00  9.55249411E+00  9.55249411E+00 -1.91049882E+01  0.00000000E+00
  9.55249411E+00  9.55249411E+00 -1.91049882E+01  0.00000000E+00  9.55249411E+00
  9.55249411E+00 -1.91049882E+01  0.00000000E+00  9.55249411E+00  9.55249411E+00
 -1.91049882E+01  0.00000000E+00  9.55249411E+00  9.55249411E+00 -1.91049882E+01
  0.00000000E+00  9.55249411E+00  9.55249411E+00 -1.91049882E+01  0.00000000E+00
  9.55249411E+00  9.55249411E+00 -1.91049882E+01  0.00000000E+00  9.55249411E+00
  9.55249411E+00 -1.91049882E+01  0.00000000E+00  9.55249411E+00  9.55249411E+00
 -1.91049882E+01  0.00000000E+00  9.55249411E+00  9.55249411E+00 -1.91049882E+01
  0.00000000E+00  9.55249411E+00  9.55249411E+00 -1.91049882E+01  0.00000000E+00
  9.55249411E+00  9.55249411E+00 -1.91049882E+01  0.00000000E+00  9.55249411E+00
  9.55249411E+00 -1.91049882E+01  0.00000000E+00  9.55249411E+00  9.55249411E+00
 -1.91049882E+01  0.00000000E+00  9.55249411E+00  9.55249411E+00 -1.91049882E+01
  0.00000000E+00  9.55249411E+00  9.55249411E+00 -1.91049882E+01  0.00000000E+00
  9.55249411E+00  9.55249411E+00 -1.91049882E+01  0.00000000E+00  9.55249411E+00
  9.55249411E+00 -1.91049882E+01  0.00000000E+00  9.55249411E+00  9.55249411E+00
 -1.91049882E+01  0.00000000E+00  9.55249411E+00  9.55249411E+00 -1.91049882E+01
  0.00000000E+00  9.55249411E+00  9.55249411E+00 -1.91049882E+01  0.00000000E+00
  9.55249411E+00  9.55249411E+00 -1.91049882E+01  0.00000000E+00  9.55249411E+00
  9.55249411E+00 -1.91049882E+01  0.00000000E+00  9.55249411E+00  9.55249411E+00
 -1.91049882E+01  0.00000000E+00  9.55249411E+00  9.55249411E+00 -1.91049882E+01
  0.00000000E+00  9.55249411E+00  9.55249411E+00 -1.91049882E+01  0.00000000E+00
  9.55249411E+00  9.55249411E+00 -1.91049882E+01  0.00000000E+00  9.55249411E+00
  9.55249411E+00 -1.91049882E+01  0.00000000E+00  9.55249411E+00  9.55249411E+00
 -1.91049882E+01  0.00000000E+00  9.55249411E+00  9.55249411E+00 -1.91049882E+01
  0.00000000E+00  9.55249411E+00  9.55249411E+00 -1.91049882E+01  0.00000000E+00
  9.55249411E+00  9.55249411E+00 -1.91049882E+01  0.00000000E+00  9.55249411E+00
  9.55249411E+00 -1.91049882E+01  0.00000000E+00  9.55249411E+00  9.55249411E+00
 -1.91049882E+01  0.00000000E+00  9.55249411E+00  9.55249411E+00 -1.91049882E+01
  0.00000000E+00  9.55249411E+00  9.55249411E+00 -1.91049882E+01  0.00000000E+00
  9.55249411E+00  9.55249411E+00 -1.91049882E+01  0.00000000E+00  9.55249411E+00
  9.55249411E+00 -1.91049882E+01  0.00000000E+00  9.55249411E+00  9.55249411E+00
 -1.91049882E+01  0.00000000E+00  9.55249411E+00  9.55249411E+00 -1.91049882E+01
  0.00000000E+00  9.55249411E+00  9.55249411E+00 -1.91049882E+01  0.00000000E+00
  9.55249411E+00  9.55249411E+00 -1.91049882E+01  0.00000000E+00  9.55249411E+00
  9.55249411E+00 -1.91049882E+01  0.00000000E+00  9.55249411E+00  9.55249411E+00
 -1.91049882E+01  0.00000000E+00  9.55249411E+00  9.55249411E+00 -1.91049882E+01
  0.00000000E+00  9.55249411E+00  9.55249411E+00 -1.91049882E+01  0.00000000E+00
  9.55249411E+00  9.55249411E+00 -1.91049882E+01  0.00000000E+00  9.55249411E+00
  9.55249411E+00 -1.91049882E+01  0.00000000E+00  9.55249411E+00  9.55249411E+00
 -1.91049882E+01  0.00000000E+00  9.55249411E+00  9.55249411E+00 -1.91049882E+01
  0.00000000E+00  9.55249411E+00  9.55249411E+00 -1.91049882E+01  0.00000000E+00
  9.55249411E+00  9.55249411E+00 -1.91049882E+01  0.00000000E+00  9.55249411E+00
  9.55249411E+00 -1.91049882E+01  0.00000000E+00  9.55249411E+00  9.55249411E+00
 -1.91049882E+01  0.00000000E+00  9.55249411E+00  9.55249411E+00 -1.91049882E+01
  0.00000000E+00  9.55249411E+00  9.55249411E+00 -1.91049882E+01  0.00000000E+00
  9.55249411E+00  9.55249411E+00 -1.91049882E+01  0.00000000E+00  9.55249411E+00
  9.55249411E+00 -1.91049882E+01  0.00000000E+00  9.55249411E+00  9.55249411E+00
 -1.91049882E+01  0.00000000E+00  9.55249411E+00  9.55249411E+00 -1.91049882E+01
  0.00000000E+00  9.55249411E+00  9.55249411E+00 -1.91049882E+01  0.00000000E+00
  9.55249411E+00  9.55249411E+00 -1.91049882E+01  0.00000000E+00  9.55249411E+00
  9.55249411E+00 -1.91049882E+01  0.00000000E+00  9.55249411E+00  9.55249411E+00
 -1.91049882E+01  0.00000000E+00  9.55249411E+00  9.55249411E+00 -1.91049882E+01
  0.00000000E+00  9.55249411E+00  9.55249411E+00 -1.91049882E+01  0.00000000E+00
  9.55249411E+00  9.55249411E+00 -1.91049882E+01  0.00000000E+00  9.55249411E+00
  9.55249411E+00 -1.91049882E+01  0.00000000E+00  9.55249411E+00  9.55249411E+00
 -1.91049882E+01  0.00000000E+00  9.55249411E+00  9.55249411E+00 -1.91049882E+01
  0.00000000E+00  9.55249411E+00  9.55249411E+00 -1.91049882E+01  0.00000000E+00
  9.55249411E+00  9.55249411E+00 -1.91049882E+01  0.00000000E+00  9.55249411E+00
  9.55249411E+00 -1.91049882E+01  0.00000000E+00  9.55249411E+00  9.55249411E+00
 -1.91049882E+01  0.00000000E+00  9.55249411E+00  9.55249411E+00 -1.91049882E+01
  0.00000000E+00  9.55249411E+00  9.55249411E+00 -1.91049882E+01  0.00000000E+00
  9.55249411E+00  9.55249411E+00 -1.91049882E+01  0.00000000E+00  9.55249411E+00
  9.55249411E+00 -1.91049882E+01  0.00000000E+00  9.55249411E+00  9.55249411E+00
 -1.91049882E+01  0.00000000E+00  9.55249411E+00  9.55249411E+00 -1.91049882E+01
  0.00000000E+00  9.55249411E+00  9.55249411E+00 -1.91049882E+01  0.00000000E+00
  9.55249411E+00  9.55249411E+00 -1.91049882E+01  0.00000000E+00  9.55249411E+00
  9.55249411E+00 -1.91049882E+01  0.00000000E+00  9.55249411E+00  9.55249411E+00
 -1.91049882E+01  0.00000000E+00  9.55249411E+00  9.55249411E+00 -1.91049882E+01
  0.00000000E+00  9.55249411E+00  9.55249411E+00 -1.91049882E+01  0.00000000E+00
  9.55249411E+00  9.55249411E+00 -1.91049882E+01  0.00000000E+00  9.55249411E+00
  9.55249411E+00 -1.91049882E+01  0.00000000E+00  9.55249411E+00  9.55249411E+00
 -1.91049882E+01  0.00000000E+00  9.55249411E+00  9.55249411E+00 -1.91049882E+01
  0.00000000E+00  9.55249411E+00  9.55249411E+00 -1.91049882E+01  0.00000000E+00
  9.55249411E+00  9.55249411E+00 -1.91049882E+01  0.00000000E+00  9.55249411E+00
  9.55249411E+00 -1.91049882E+01  0.00000000E+00  9.55249411E+00  9.55249411E+00
 -1.91049882E+01  0.00000000E+00  9.55249411E+00  9.55249411E+00 -1.91049882E+01
  0.00000000E+00  9.55249411E+00  9.55249411E+00 -1.91049882E+01  0.00000000E+00
  9.55249411E+00  9.55249411E+00 -1.91049882E+01  0.00000000E+00  9.55249411E+00
  9.55249411E+00 -1.91049882E+01  0.00000000E+00  9.55249411E+00  9.55249411E+00
 -1.91049882E+01  0.00000000E+00  9.55249411E+00  9.55249411E+00 -1.91049882E+01
  0.00000000E+00  9.55249411E+00  9.55249411E+00 -1.91049882E+01  0.00000000E+00
  9.55249411E+00  9.55249411E+00 -1.91049882E+01  0.00000000E+00  9.55249411E+00
  9.55249411E+00 -1.91049882E+01  0.00000000E+00  9.55249411E+00  9.55249411E+00
 -1.91049882E+01  0.00000000E+00  9.55249411E+00  9.55249411E+00 -1.91049882E+01
  0.00000000E+00  9.55249411E+00  9.55249411E+00 -1.91049882E+01  0.00000000E+00
  9.55249411E+00  9.55249411E+00 -1.91049882E+01  0.00000000E+00  9.55249411E+00
  9.55249411E+00 -1.91049882E+01  0.00000000E+00  9.55249411E+00  9.55249411E+00
 -1.91049882E+01  0.00000000E+00  9.55249411E+00  9.55249411E+00 -1.91049882E+01
  0.00000000E+00  9.55249411E+00  9.55249411E+00 -1.91049882E+01  0.00000000E+00
  9.55249411E+00  9.55249411E+00 -1.91049882E+01  0.00000000E+00  9.55249411E+00
  9.55249411E+00 -1.91049882E+01  0.00000000E+00  9.55249411E+00  9.55249411E+00
 -1.91049882E+01  0.00000000E+00  9.55249411E+00  9.55249411E+00 -1.91049882E+01
  0.00000000E+00  9.55249411E+00  9.55249411E+00 -1.91049882E+01  0.00000000E+00
  9.55249411E+00  9.55249411E+00 -1.91049882E+01  0.00000000E+00  9.55249411E+00
  9.55249411E+00 -1.91049882E+01  0.00000000E+00  9.55249411E+00  9.55249411E+00
 -1.91049882E+01  0.00000000E+00  9.55249411E+00  9.55249411E+00 -1.91049882E+01
  0.00000000E+00  9.55249411E+00  9.55249411E+00 -1.91049882E+01  0.00000000E+00
  9.55249411E+00  9.55249411E+00 -1.91049882E+01  0.00000000E+00  9.55249411E+00
  9.55249411E+00 -1.91049882E+01  0.00000000E+00  9.55249411E+00  9.55249411E+00
 -1.91049882E+01  0.00000000E+00  9.55249411E+00  9.55249411E+00 -1.91049882E+01
  0.00000000E+00  9.55249411E+00  9.55249411E+00 -1.91049882E+01  0.00000000E+00
  9.55249411E+00  9.55249411E+00 -1.91049882E+01  0.00000000E+00  9.55249411E+00
  9.55249411E+00 -1.91049882E+01  0.00000000E+00  9.55249411E+00  9.55249411E+00
 -1.91049882E+01  0.00000000E+00  9.55249411E+00  9.55249411E+00 -1.91049882E+01
  0.00000000E+00  9.55249411E+00  9.55249411E+00 -1.91049882E+01  0.00000000E+00
  9.55249411E+00  9.55249411E+00 -1.91049882E+01  0.00000000E+00  9.55249411E+00
  9.55249411E+00 -1.91049882E+01  0.00000000E+00  9.55249411E+00  9.55249411E+00
 -1.91049882E+01  0.00000000E+00  9.55249411E+00  9.55249411E+00 -1.91049882E+01
  0.00000000E+00  9.55249411E+00  9.55249411E+00 -1.91049882E+01  0.00000000E+00
  9.55249411E+00  9.55249411E+00 -1.91049882E+01  0.00000000E+00  9.55249411E+00
  9.55249411E+00 -1.91049882E+01  0.00000000E+00  9.55249411E+00  9.55249411E+00
 -1.91049882E+01  0.00000000E+00  9.55249411E+00  9.55249411E+00 -1.91049882E+01
  0.00000000E+00  9.55249411E+00  9.55249411E+00 -1.91049882E+01  0.00000000E+00
  9.55249411E+00  9.55249411E+00 -1.91049882E+01  0.00000000E+00  9.55249411E+00
  9.55249411E+00 -1.91049882E+01  0.00000000E+00  9.55249411E+00  9.55249411E+00
 -1.91049882E+01  0.00000000E+00  9.55249411E+00  9.55249411E+00 -1.91049882E+01
  0.00000000E+00  9.55249411E+00  9.55249411E+00 -1.91049882E+01  0.00000000E+00
  9.55249411E+00  9.55249411E+00 -1.91049882E+01  0.00000000E+00  9.55249411E+00
  9.55249411E+00 -1.91049882E+01  0.00000000E+00  9.55249411E+00  9.55249411E+00
 -1.91049882E+01  0.00000000E+00  9.55249411E+00  9.55249411E+00 -1.91049882E+01
  0.00000000E+00  9.55249411E+00  9.55249411E+00 -1.91049882E+01  0.00000000E+00
  9.55249411E+00  9.55249411E+00 -1.91049882E+01  0.00000000E+00  9.55249411E+00
  9.55249411E+00 -1.91049882E+01  0.00000000E+00  9.55249411E+00  9.55249411E+00
 -1.91049882E+01  0.00000000E+00  9.55249411E+00  9.55249411E+00 -1.91049882E+01
  0.00000000E+00  9.55249411E+00  9.55249411E+00 -1.91049882E+01  0.00000000E+00
  9.55249411E+00  9.55249411E+00 -1.91049882E+01  0.00000000E+00  9.55249411E+00
  9.55249411E+00 -1.91049882E+01  0.00000000E+00  9.55249411E+00  9.55249411E+00
 -1.91049882E+01  0.00000000E+00  9.55249411E+00  9.55249411E+00 -1.91049882E+01
  0.00000000E+00  9.55249411E+00  9.55249411E+00 -1.91049882E+01  0.00000000E+00
  9.55249411E+00  9.55249411E+00 -1.91049882E+01  0.00000000E+00  9.55249411E+00
  9.55249411E+00 -1.91049882E+01  0.00000000E+00  9.55249411E+00  9.55249411E+00
 -1.91049882E+01  0.00000000E+00  9.55249411E+00  9.55249411E+00 -1.91049882E+01
  0.00000000E+00  9.55249411E+00  9.55249411E+00 -1.91049882E+01  0.00000000E+00
  9.55249411E+00  9.55249411E+00 -1.91049882E+01  0.00000000E+00  9.55249411E+00
  9.55249411E+00 -1.91049882E+01  0.00000000E+00  9.55249411E+00  9.55249411E+00
 -1.91049882E+01  0.00000000E+00  9.55249411E+00  9.55249411E+00 -1.91049882E+01
  0.00000000E+00  9.55249411E+00  9.55249411E+00 -1.91049882E+01  0.00000000E+00
  9.55249411E+00  9.55249411E+00 -1.91049882E+01  0.00000000E+00  9.55249411E+00
  9.55249411E+00 -1.91049882E+01  0.00000000E+00  9.55249411E+00  9.55249411E+00
 -1.91049882E+01  0.00000000E+00  9.55249411E+00  9.55249411E+00 -1.91049882E+01
  0.00000000E+00  9.55249411E+00  9.55249411E+00 -1.91049882E+01  0.00000000E+00
  9.55249411E+00  9.55249411E+00 -1.91049882E+01  0.00000000E+00  9.55249411E+00
  9.55249411E+00 -1.91049882E+01  0.00000000E+00  9.55249411E+00  9.55249411E+00
 -1.91049882E+01  0.00000000E+00  9.55249411E+00  9.55249411E+00 -1.91049882E+01
  0.00000000E+00  9.55249411E+00  9.55249411E+00 -1.91049882E+01  0.00000000E+00
  9.55249411E+00  9.55249411E+00 -1.91049882E+01  0.00000000E+00  9.55249411E+00
  9.55249411E+00 -1.91049882E+01  0.00000000E+00  9.55249411E+00  9.55249411E+00
 -1.91049882E+01  0.00000000E+00  9.55249411E+00  9.55249411E+00 -1.91049882E+01
  0.00000000E+00  9.55249411E+00  9.55249411E+00 -1.91049882E+01  0.00000000E+00
  9.55249411E+00  9.55249411E+00 -1.91049882E+01  0.00000000E+00  9.55249411E+00
  9.55249411E+00 -1.91049882E+01  0.00000000E+00  9.55249411E+00  9.55249411E+00
 -1.91049882E+01  0.00000000E+00  9.55249411E+00  9.55249411E+00 -1.91049882E+01
  0.00000000E+00  9.55249411E+00  9.55249411E+00 -1.91049882E+01  0.00000000E+00
  9.55249411E+00  9.55249411E+00 -1.91049882E+01  0.00000000E+00  9.55249411E+00
  9.55249411E+00 -1.91049882E+01  0.00000000E+00  9.55249411E+00  9.55249411E+00
 -1.91049882E+01  0.00000000E+00  9.55249411E+00  9.55249411E+00 -1.91049882E+01
  0.00000000E+00  9.55249411E+00  9.55249411E+00 -1.91049882E+01  0.00000000E+00
  9.55249411E+00  9.55249411E+00 -1.91049882E+01  0.00000000E+00  9.55249411E+00
  9.55249411E+00 -1.91049882E+01  0.00000000E+00  9.55249411E+00  9.55249411E+00
 -1.91049882E+01  0.00000000E+00  9.55249411E+00  9.55249411E+00 -1.91049882E+01
  0.00000000E+00  9.55249411E+00  9.55249411E+00 -1.91049882E+01  0.00000000E+00
  9.55249411E+00  9.55249411E+00 -1.91049882E+01  0.00000000E+00  9.55249411E+00
  9.55249411E+00 -1.91049882E+01  0.00000000E+00  9.55249411E+00  9.55249411E+00
 -1.91049882E+01  0.00000000E+00  9.55249411E+00  9.55249411E+00 -1.91049882E+01
  0.00000000E+00  9.55249411E+00  9.55249411E+00 -1.91049882E+01  0.00000000E+00
  9.55249411E+00  9.55249411E+00 -1.91049882E+01  0.00000000E+00  9.55249411E+00
  9.55249411E+00 -1.91049882E+01  0.00000000E+00  9.55249411E+00  9.55249411E+00
 -1.91049882E+01  0.00000000E+00  9.55249411E+00  9.55249411E+00 -1.91049882E+01
  0.00000000E+00  9.55249411E+00  9.55249411E+00 -1.91049882E+01  0.00000000E+00
  9.55249411E+00  9.55249411E+00 -1.91049882E+01  0.00000000E+00  9.55249411E+00
  9.55249411E+00 -1.91049882E+01  0.00000000E+00  9.55249411E+00  9.55249411E+00
 -1.91049882E+01  0.00000000E+00  9.55249411E+00  9.55249411E+00 -1.91049882E+01
  0.00000000E+00  9.55249411E+00  9.55249411E+00 -1.91049882E+01  0.00000000E+00
  9.55249411E+00  9.55249411E+00 -1.91049882E+01  0.00000000E+00  9.55249411E+00
  9.55249411E+00 -1.91049882E+01  0.00000000E+00  9.55249411E+00  9.55249411E+00
 -1.91049882E+01  0.00000000E+00  9.55249411E+00  9.55249411E+00 -1.91049882E+01
  0.00000000E+00  9.55249411E+00  9.55249411E+00 -1.91049882E+01  0.00000000E+00
  9.55249411E+00  9.55249411E+00 -1.91049882E+01  0.00000000E+00  9.55249411E+00
  9.55249411E+00 -1.91049882E+01  0.00000000E+00  9.55249411E+00  9.55249411E+00
 -1.91049882E+01  0.00000000E+00  9.55249411E+00  9.55249411E+00 -1.91049882E+01
  0.00000000E+00  9.55249411E+00  9.55249411E+00 -1.91049882E+01  0.00000000E+00
  9.55249411E+00  9.55249411E+00 -1.91049882E+01  0.00000000E+00  9.55249411E+00
  9.55249411E+00 -1.91049882E+01  0.00000000E+00  9.55249411E+00  9.55249411E+00
 -1.91049882E+01  0.00000000E+00  9.55249411E+00  9.55249411E+00 -1.91049882E+01
  0.00000000E+00  9.55249411E+00  9.55249411E+00 -1.91049882E+01  0.00000000E+00
  9.55249411E+00  9.55249411E+00 -1.91049882E+01  0.00000000E+00  9.55249411E+00
  9.55249411E+00 -1.91049882E+01  0.00000000E+00  9.55249411E+00  9.55249411E+00
 -1.91049882E+01  0.00000000E+00  9.55249411E+00  9.55249411E+00 -1.91049882E+01
  0.00000000E+00  9.55249411E+00  9.55249411E+00 -1.91049882E+01  0.00000000E+00
  9.55249411E+00  9.55249411E+00 -1.91049882E+01  0.00000000E+00  9.55249411E+00
  9.55249411E+00 -1.91049882E+01  0.00000000E+00  9.55249411E+00  9.55249411E+00
 -1.91049882E+01  0.00000000E+00  9.55249411E+00  9.55249411E+00 -1.91049882E+01
  0.00000000E+00  9.55249411E+00  9.55249411E+00 -1.91049882E+01  0.00000000E+00
  9.55249411E+00  9.55249411E+00 -1.91049882E+01  0.00000000E+00  9.55249411E+00
  9.55249411E+00 -1.91049882E+01  0.00000000E+00  9.55249411E+00  9.55249411E+00
 -1.91049882E+01  0.00000000E+00  9.55249411E+00  9.55249411E+00 -1.91049882E+01
  0.00000000E+00  9.55249411E+00  9.55249411E+00 -1.91049882E+01  0.00000000E+00
  9.55249411E+00  9.55249411E+00 -1.91049882E+01  0.00000000E+00  9.55249411E+00
  9.55249411E+00 -1.91049882E+01  0.00000000E+00  9.55249411E+00  9.55249411E+00
 -1.91049882E+01  0.00000000E+00  9.55249411E+00  9.55249411E+00 -1.91049882E+01
  0.00000000E+00  9.55249411E+00  9.55249411E+00 -1.91049882E+01  0.00000000E+00
  9.55249411E+00  9.55249411E+00 -1.91049882E+01  0.00000000E+00  9.55249411E+00
  9.55249411E+00 -1.91049882E+01  0.00000000E+00  9.55249411E+00  9.55249411E+00
 -1.91049882E+01  0.00000000E+00  9.55249411E+00  9.55249411E+00 -1.91049882E+01
  0.00000000E+00  9.55249411E+00  9.55249411E+00 -1.91049882E+01  0.00000000E+00
  9.55249411E+00  9.55249411E+00 -1.91049882E+01  0.00000000E+00  9.55249411E+00
  9.55249411E+00 -1.91049882E+01  0.00000000E+00  9.55249411E+00  9.55249411E+00
 -1.91049882E+01  0.00000000E+00  9.55249411E+00  9.55249411E+00 -1.91049882E+01
  0.00000000E+00  9.55249411E+00  9.55249411E+00 -1.91049882E+01  0.00000000E+00
  9.55249411E+00  9.55249411E+00 -1.91049882E+01  0.00000000E+00  9.55249411E+00
  9.55249411E+00 -1.91049882E+01  0.00000000E+00  9.55249411E+00  9.55249411E+00
 -1.91049882E+01  0.00000000E+00  9.55249411E+00  9.55249411E+00 -1.91049882E+01
  0.00000000E+00  9.55249411E+00  9.55249411E+00 -1.91049882E+01  0.00000000E+00
  9.55249411E+00  9.55249411E+00 -1.91049882E+01  0.00000000E+00  9.55249411E+00
  9.55249411E+00 -1.91049882E+01  0.00000000E+00  9.55249411E+00  9.55249411E+00
 -1.91049882E+01  0.00000000E+00  9.55249411E+00  9.55249411E+00 -1.91049882E+01
  0.00000000E+00  9.55249411E+00  9.55249411E+00 -1.91049882E+01  0.00000000E+00
  9.55249411E+00  9.55249411E+00 -1.91049882E+01  0.00000000E+00  9.55249411E+00
  9.55249411E+00 -1.91049882E+01  0.00000000E+00  9.55249411E+00  9.55249411E+00
 -1.91049882E+01  0.00000000E+00  9.55249411E+00  9.55249411E+00 -1.91049882E+01
  0.00000000E+00  9.55249411E+00  9.55249411E+00 -1.91049882E+01  0.00000000E+00
  9.55249411E+00  9.55249411E+00 -1.91049882E+01  0.00000000E+00  9.55249411E+00
  9.55249411E+00 -1.91049882E+01  0.00000000E+00  9.55249411E+00  9.55249411E+00
 -1.91049882E+01  0.00000000E+00  9.55249411E+00  9.55249411E+00 -1.91049882E+01
  0.00000000E+00  9.55249411E+00  9.55249411E+00 -1.91049882E+01  0.00000000E+00
  9.55249411E+00  9.55249411E+00 -1.91049882E+01  0.00000000E+00  9.55249411E+00
  9.55249411E+00 -1.91049882E+01  0.00000000E+00  9.55249411E+00  9.55249411E+00
 -1.91049882E+01  0.00000000E+00  9.55249411E+00  9.55249411E+00 -1.91049882E+01
  0.00000000E+00  9.55249411E+00  9.55249411E+00 -1.91049882E+01  0.00000000E+00
  9.55249411E+00  9.55249411E+00 -1.91049882E+01  0.00000000E+00  9.55249411E+00
  9.55249411E+00 -1.91049882E+01  0.00000000E+00  9.55249411E+00  9.55249411E+00
 -1.91049882E+01  0.00000000E+00  9.55249411E+00  9.55249411E+00 -1.91049882E+01
  0.00000000E+00  9.55249411E+00  9.55249411E+00 -1.91049882E+01  0.00000000E+00
  9.55249411E+00  9.55249411E+00 -1.91049882E+01  0.00000000E+00  9.55249411E+00
  9.55249411E+00 -1.91049882E+01  0.00000000E+00  9.55249411E+00  9.55249411E+00
 -1.91049882E+01  0.00000000E+00  9.55249411E+00  9.55249411E+00 -1.91049882E+01
  0.00000000E+00  9.55249411E+00  9.55249411E+00 -1.91049882E+01  0.00000000E+00
  9.55249411E+00  9.55249411E+00 -1.91049882E+01  0.00000000E+00  9.55249411E+00
  9.55249411E+00 -1.91049882E+01  0.00000000E+00  9.55249411E+00  9.55249411E+00
 -1.91049882E+01  0.00000000E+00  9.55249411E+00  9.55249411E+00 -1.91049882E+01
  0.00000000E+00  9.55249411E+00  9.55249411E+00 -1.91049882E+01  0.00000000E+00
  9.55249411E+00  9.55249411E+00 -1.91049882E+01  0.00000000E+00  9.55249411E+00
  9.55249411E+00 -1.91049882E+01  0.00000000E+00  9.55249411E+00  9.55249411E+00
 -1.91049882E+01  0.00000000E+00  9.55249411E+00  9.55249411E+00 -1.91049882E+01
  0.00000000E+00  9.55249411E+00  9.55249411E+00 -1.91049882E+01  0.00000000E+00
  9.55249411E+00  9.55249411E+00 -1.91049882E+01  0.00000000E+00  9.55249411E+00
  9.55249411E+00 -1.91049882E+01  0.00000000E+00  9.55249411E+00  9.55249411E+00
 -1.91049882E+01  0.00000000E+00  9.55249411E+00  9.55249411E+00 -1.91049882E+01
  0.00000000E+00  9.55249411E+00  9.55249411E+00 -1.91049882E+01  0.00000000E+00
  9.55249411E+00  9.55249411E+00 -1.91049882E+01  0.00000000E+00  9.55249411E+00
  9.55249411E+00 -1.91049882E+01  0.00000000E+00  9.55249411E+00  9.55249411E+00
 -1.91049882E+01  0.00000000E+00  9.55249411E+00  9.55249411E+00 -1.91049882E+01
  0.00000000E+00  9.55249411E+00  9.55249411E+00 -1.91049882E+01  0.00000000E+00
  9.55249411E+00  9.55249411E+00 -1.91049882E+01  0.00000000E+00  9.55249411E+00
  9.55249411E+00 -1.91049882E+01  0.00000000E+00  9.55249411E+00  9.55249411E+00
 -1.91049882E+01  0.00000000E+00  9.55249411E+00  9.55249411E+00 -1.91049882E+01
  0.00000000E+00  9.55249411E+00  9.55249411E+00 -1.91049882E+01  0.00000000E+00
  9.55249411E+00  9.55249411E+00 -1.91049882E+01  0.00000000E+00  9.55249411E+00
  9.55249411E+00 -1.91049882E+01  0.00000000E+00  9.55249411E+00  9.55249411E+00
 -1.91049882E+01  0.00000000E+00  9.55249411E+00  9.55249411E+00 -1.91049882E+01
  0.00000000E+00  9.55249411E+00  9.55249411E+00 -1.91049882E+01  0.00000000E+00
  9.55249411E+00  9.55249411E+00 -1.91049882E+01  0.00000000E+00  9.55249411E+00
  9.55249411E+00 -1.91049882E+01  0.00000000E+00  9.55249411E+00  9.55249411E+00
 -1.91049882E+01  0.00000000E+00  9.55249411E+00  9.55249411E+00 -1.91049882E+01
  0.00000000E+00  9.55249411E+00  9.55249411E+00 -1.91049882E+01  0.00000000E+00
  9.55249411E+00  9.55249411E+00 -1.91049882E+01  0.00000000E+00  9.55249411E+00
  9.55249411E+00 -1.91049882E+01  0.00000000E+00  9.55249411E+00  9.55249411E+00
 -1.91049882E+01  0.00000000E+00  9.55249411E+00  9.55249411E+00 -1.91049882E+01
  0.00000000E+00  9.55249411E+00  9.55249411E+00 -1.91049882E+01  0.00000000E+00
  9.55249411E+00  9.55249411E+00 -1.91049882E+01  0.00000000E+00  9.55249411E+00
  9.55249411E+00 -1.91049882E+01  0.00000000E+00  9.55249411E+00  9.55249411E+00
 -1.91049882E+01  0.00000000E+00  9.55249411E+00  9.55249411E+00 -1.91049882E+01
  0.00000000E+00  9.55249411E+00  9.55249411E+00 -1.91049882E+01  0.00000000E+00
  9.55249411E+00  9.55249411E+00 -1.91049882E+01  0.00000000E+00  9.55249411E+00
  9.55249411E+00 -1.91049882E+01  0.00000000E+00  9.55249411E+00  9.55249411E+00
 -1.91049882E+01  0.00000000E+00  9.55249411E+00  9.55249411E+00 -1.91049882E+01
  0.00000000E+00  9.55249411E+00  9.55249411E+00 -1.91049882E+01  0.00000000E+00
  9.55249411E+00  9.55249411E+00 -1.91049882E+01  0.00000000E+00  9.55249411E+00
  9.55249411E+00 -1.91049882E+01  0.00000000E+00  9.55249411E+00  9.55249411E+00
 -1.91049882E+01  0.00000000E+00  9.55249411E+00  9.55249411E+00 -1.91049882E+01
  0.00000000E+00  9.55249411E+00  9.55249411E+00 -1.91049882E+01  0.00000000E+00
  9.55249411E+00  9.55249411E+00 -1.91049882E+01  0.00000000E+00  9.55249411E+00
  9.55249411E+00 -1.91049882E+01  0.00000000E+00  9.55249411E+00  9.55249411E+00
 -1.91049882E+01  0.00000000E+00  9.55249411E+00  9.55249411E+00 -1.91049882E+01
  0.00000000E+00  9.55249411E+00  9.55249411E+00 -1.91049882E+01  0.00000000E+00
  9.55249411E+00  9.55249411E+00 -1.91049882E+01  0.00000000E+00  9.55249411E+00
  9.55249411E+00 -1.91049882E+01  0.00000000E+00  9.55249411E+00  9.55249411E+00
 -1.91049882E+01  0.00000000E+00  9.55249411E+00  9.55249411E+00 -1.91049882E+01
  0.00000000E+00  9.55249411E+00  9.55249411E+00 -1.91049882E+01  0.00000000E+00
  9.55249411E+00  9.55249411E+00 -1.91049882E+01  0.00000000E+00  9.55249411E+00
  9.55249411E+00 -1.91049882E+01  0.00000000E+00  9.55249411E+00  9.55249411E+00
 -1.91049882E+01  0.00000000E+00  9.55249411E+00  9.55249411E+00 -1.91049882E+01
  0.00000000E+00  9.55249411E+00  9.55249411E+00 -1.91049882E+01  0.00000000E+00
  9.55249411E+00  9.55249411E+00 -1.91049882E+01  0.00000000E+00  9.55249411E+00
  9.55249411E+00 -1.91049882E+01  0.00000000E+00  9.55249411E+00  9.55249411E+00
 -1.91049882E+01  0.00000000E+00  9.55249411E+00  9.55249411E+00 -1.91049882E+01
  0.00000000E+00  9.55249411E+00  9.55249411E+00 -1.91049882E+01  0.00000000E+00
  9.55249411E+00  9.55249411E+00 -1.91049882E+01  0.00000000E+00  9.55249411E+00
  9.55249411E+00 -1.91049882E+01  0.00000000E+00  9.55249411E+00  9.55249411E+00
 -1.91049882E+01  0.00000000E+00  9.55249411E+00  9.55249411E+00 -1.91049882E+01
  0.00000000E+00  9.55249411E+00  9.55249411E+00 -1.91049882E+01  0.00000000E+00
  9.55249411E+00  9.55249411E+00 -1.91049882E+01  0.00000000E+00  9.55249411E+00
  9.55249411E+00 -1.91049882E+01  0.00000000E+00  9.55249411E+00  9.55249411E+00
 -1.91049882E+01  0.00000000E+00  9.55249411E+00  9.55249411E+00 -1.91049882E+01
  0.00000000E+00  9.55249411E+00  9.55249411E+00 -1.91049882E+01  0.00000000E+00
  9.55249411E+00  9.55249411E+00 -1.91049882E+01  0.00000000E+00  9.55249411E+00
  9.55249411E+00 -1.91049882E+01  0.00000000E+00  9.55249411E+00  9.55249411E+00
 -1.91049882E+01  0.00000000E+00  9.55249411E+00  9.55249411E+00 -1.91049882E+01
  0.00000000E+00  9.55249411E+00  9.55249411E+00 -1.91049882E+01  0.00000000E+00
  9.55249411E+00  9.55249411E+00 -1.91049882E+01  0.00000000E+00  9.55249411E+00
  9.55249411E+00 -1.91049882E+01  0.00000000E+00  9.55249411E+00  9.55249411E+00
 -1.91049882E+01  0.00000000E+00  9.55249411E+00  9.55249411E+00 -1.91049882E+01
  0.00000000E+00  9.55249411E+00  9.55249411E+00 -1.91049882E+01  0.00000000E+00
  9.55249411E+00  9.55249411E+00 -1.91049882E+01  0.00000000E+00  9.55249411E+00
  9.55249411E+00 -1.91049882E+01  0.00000000E+00  9.55249411E+00  9.55249411E+00
 -1.91049882E+01  0.00000000E+00  9.55249411E+00  9.55249411E+00 -1.91049882E+01
  0.00000000E+00  9.55249411E+00  9.55249411E+00 -1.91049882E+01  0.00000000E+00
  9.55249411E+00  9.55249411E+00 -1.91049882E+01  0.00000000E+00  9.55249411E+00
  9.55249411E+00 -1.91049882E+01  0.00000000E+00  9.55249411E+00  9.55249411E+00
 -1.91049882E+01  0.00000000E+00  9.55249411E+00  9.55249411E+00 -1.91049882E+01
  0.00000000E+00  9.55249411E+00  9.55249411E+00 -1.91049882E+01  0.00000000E+00
  9.55249411E+00  9.55249411E+00 -1.91049882E+01  0.00000000E+00  9.55249411E+00
  9.55249411E+00 -1.91049882E+01  0.00000000E+00  9.55249411E+00  9.55249411E+00
 -1.91049882E+01  0.00000000E+00  9.55249411E+00  9.55249411E+00 -1.91049882E+01
  0.00000000E+00  9.55249411E+00  9.55249411E+00 -1.91049882E+01  0.00000000E+00
  9.55249411E+00  9.55249411E+00 -1.91049882E+01  0.00000000E+00  9.55249411E+00
  9.55249411E+00 -1.91049882E+01  0.00000000E+00  9.55249411E+00  9.55249411E+00
 -1.91049882E+01  0.00000000E+00  9.55249411E+00  9.55249411E+00 -1.91049882E+01
  0.00000000E+00  9.55249411E+00  9.55249411E+00 -1.91049882E+01  0.00000000E+00
  9.55249411E+00  9.55249411E+00 -1.91049882E+01  0.00000000E+00  9.55249411E+00
  9.55249411E+00 -1.91049882E+01  0.00000000E+00  9.55249411E+00  9.55249411E+00
 -1.91049882E+01  0.00000000E+00  9.55249411E+00  9.55249411E+00 -1.91049882E+01
  0.00000000E+00  9.55249411E+00  9.55249411E+00 -1.91049882E+01  0.00000000E+00
  9.55249411E+00  9.55249411E+00 -1.91049882E+01  0.00000000E+00  9.55249411E+00
  9.55249411E+00 -1.91049882E+01  0.00000000E+00  9.55249411E+00  9.55249411E+00
 -1.91049882E+01  0.00000000E+00  9.55249411E+00  9.55249411E+00 -1.91049882E+01
  0.00000000E+00  9.55249411E+00  9.55249411E+00 -1.91049882E+01  0.00000000E+00
  9.55249411E+00  9.55249411E+00 -1.91049882E+01  0.00000000E+00  9.55249411E+00
  9.55249411E+00 -1.91049882E+01  0.00000000E+00  9.55249411E+00  9.55249411E+00
 -1.91049882E+01  0.00000000E+00  9.55249411E+00  9.55249411E+00 -1.91049882E+01
  0.00000000E+00  9.55249411E+00  9.55249411E+00 -1.91049882E+01  0.00000000E+00
  9.55249411E+00  9.55249411E+00 -1.91049882E+01  0.00000000E+00  9.55249411E+00
  9.55249411E+00 -1.91049882E+01  0.00000000E+00  9.55249411E+00  9.55249411E+00
 -1.91049882E+01  0.00000000E+00  9.55249411E+00  9.55249411E+00 -1.91049882E+01
  0.00000000E+00  9.55249411E+00  9.55249411E+00 -1.91049882E+01  0.00000000E+00
  9.55249411E+00  9.55249411E+00 -1.91049882E+01  0.00000000E+00  9.55249411E+00
  9.55249411E+00 -1.91049882E+01  0.00000000E+00  9.55249411E+00  9.55249411E+00
 -1.91049882E+01  0.00000000E+00  9.55249411E+00  9.55249411E+00 -1.91049882E+01
  0.00000000E+00  9.55249411E+00  9.55249411E+00 -1.91049882E+01  0.00000000E+00
  9.55249411E+00  9.55249411E+00 -1.91049882E+01  0.00000000E+00  9.55249411E+00
  9.55249411E+00 -1.91049882E+01  0.00000000E+00  9.55249411E+00  9.55249411E+00
 -1.91049882E+01  0.00000000E+00  9.55249411E+00  9.55249411E+00 -1.91049882E+01
  0.00000000E+00  9.55249411E+00  9.55249411E+00 -1.91049882E+01  0.00000000E+00
  9.55249411E+00  9.55249411E+00 -1.91049882E+01  0.00000000E+00  9.55249411E+00
  9.55249411E+00 -1.91049882E+01  0.00000000E+00  9.55249411E+00  9.55249411E+00
 -1.91049882E+01  0.00000000E+00  9.55249411E+00  9.55249411E+00 -1.91049882E+01
  0.00000000E+00  9.55249411E+00  9.55249411E+00 -1.91049882E+01  0.00000000E+00
  9.55249411E+00  9.55249411E+00 -1.91049882E+01  0.00000000E+00  9.55249411E+00
  9.55249411E+00 -1.91049882E+01  0.00000000E+00  9.55249411E+00  9.55249411E+00
 -1.91049882E+01  0.00000000E+00  9.55249411E+00  9.55249411E+00 -1.91049882E+01
  0.00000000E+00  9.55249411E+00  9.55249411E+00 -1.91049882E+01  0.00000000E+00
  9.55249411E+00  9.55249411E+00 -1.91049882E+01  0.00000000E+00  9.55249411E+00
  9.55249411E+00 -1.91049882E+01  0.00000000E+00  9.55249411E+00  9.55249411E+00
 -1.91049882E+01  0.00000000E+00  9.55249411E+00  9.55249411E+00 -1.91049882E+01
  0.00000000E+00  9.55249411E+00  9.55249411E+00 -1.91049882E+01  0.00000000E+00
  9.55249411E+00  9.55249411E+00 -1.91049882E+01  0.00000000E+00  9.55249411E+00
  9.55249411E+00 -1.91049882E+01  0.00000000E+00  9.55249411E+00  9.55249411E+00
 -1.91049882E+01  0.00000000E+00  9.55249411E+00  9.55249411E+00 -1.91049882E+01
  0.00000000E+00  9.55249411E+00  9.55249411E+00 -1.91049882E+01  0.00000000E+00
  9.55249411E+00  9.55249411E+00 -1.91049882E+01  0.00000000E+00  9.55249411E+00
  9.55249411E+00 -1.91049882E+01  0.00000000E+00  9.55249411E+00  9.55249411E+00
 -1.91049882E+01  0.00000000E+00  9.55249411E+00  9.55249411E+00 -1.91049882E+01
  0.00000000E+00  9.55249411E+00  9.55249411E+00 -1.91049882E+01  0.00000000E+00
  9.55249411E+00  9.55249411E+00 -1.91049882E+01  0.00000000E+00  9.55249411E+00
  9.55249411E+00 -1.91049882E+01  0.00000000E+00  9.55249411E+00  9.55249411E+00
 -1.91049882E+01  0.00000000E+00  9.55249411E+00  9.55249411E+00 -1.91049882E+01
  0.00000000E+00  9.55249411E+00  9.55249411E+00 -1.91049882E+01  0.00000000E+00
  9.55249411E+00  9.55249411E+00 -1.91049882E+01  0.00000000E+00  9.55249411E+00
  9.55249411E+00 -1.91049882E+01  0.00000000E+00  9.55249411E+00  9.55249411E+00
 -1.91049882E+01  0.00000000E+00  9.55249411E+00  9.55249411E+00 -1.91049882E+01
  0.00000000E+00  9.55249411E+00  9.55249411E+00 -1.91049882E+01  0.00000000E+00
  9.55249411E+00  9.55249411E+00 -1.91049882E+01  0.00000000E+00  9.55249411E+00
  9.55249411E+00 -1.91049882E+01  0.00000000E+00  9.55249411E+00  9.55249411E+00
 -1.91049882E+01  0.00000000E+00  9.55249411E+00  9.55249411E+00 -1.91049882E+01
  0.00000000E+00  9.55249411E+00  9.55249411E+00 -1.91049882E+01  0.00000000E+00
  9.55249411E+00  9.55249411E+00 -1.91049882E+01  0.00000000E+00  9.55249411E+00
  9.55249411E+00 -1.91049882E+01  0.00000000E+00  9.55249411E+00  9.55249411E+00
 -1.91049882E+01  0.00000000E+00  9.55249411E+00  9.55249411E+00 -1.91049882E+01
  0.00000000E+00  9.55249411E+00  9.55249411E+00 -1.91049882E+01  0.00000000E+00
  9.55249411E+00  9.55249411E+00 -1.91049882E+01  0.00000000E+00  9.55249411E+00
  9.55249411E+00 -1.91049882E+01  0.00000000E+00  9.55249411E+00  9.55249411E+00
 -1.91049882E+01  0.00000000E+00  9.55249411E+00  9.55249411E+00 -1.91049882E+01
  0.00000000E+00  9.55249411E+00  9.55249411E+00 -1.91049882E+01  0.00000000E+00
  9.55249411E+00  9.55249411E+00 -1.91049882E+01  0.00000000E+00  9.55249411E+00
  9.55249411E+00 -1.91049882E+01  0.00000000E+00  9.55249411E+00  9.55249411E+00
 -1.91049882E+01  0.00000000E+00  9.55249411E+00  9.55249411E+00 -1.91049882E+01
  0.00000000E+00  9.55249411E+00  9.55249411E+00 -1.91049882E+01  0.00000000E+00
  9.55249411E+00  9.55249411E+00 -1.91049882E+01  0.00000000E+00  9.55249411E+00
  9.55249411E+00 -1.91049882E+01  0.00000000E+00  9.55249411E+00  9.55249411E+00
 -1.91049882E+01  0.00000000E+00  9.55249411E+00  9.55249411E+00 -1.91049882E+01
  0.00000000E+00  9.55249411E+00  9.55249411E+00 -1.91049882E+01  0.00000000E+00
  9.55249411E+00  9.55249411E+00 -1.91049882E+01  0.00000000E+00  9.55249411E+00
  9.55249411E+00 -1.91049882E+01  0.00000000E+00  9.55249411E+00  9.55249411E+00
 -1.91049882E+01  0.00000000E+00  9.55249411E+00  9.55249411E+00 -1.91049882E+01
  0.00000000E+00  9.55249411E+00  9.55249411E+00 -1.91049882E+01  0.00000000E+00
  9.55249411E+00  9.55249411E+00 -1.91049882E+01  0.00000000E+00  9.55249411E+00
  9.55249411E+00 -1.91049882E+01  0.00000000E+00  9.55249411E+00  9.55249411E+00
 -1.91049882E+01  0.00000000E+00  9.55249411E+00  9.55249411E+00 -1.91049882E+01
  0.00000000E+00  9.55249411E+00  9.55249411E+00 -1.91049882E+01  0.00000000E+00
  9.55249411E+00  9.55249411E+00 -1.91049882E+01  0.00000000E+00  9.55249411E+00
  9.55249411E+00 -1.91049882E+01  0.00000000E+00  9.55249411E+00  9.55249411E+00
 -1.91049882E+01  0.00000000E+00  9.55249411E+00  9.55249411E+00 -1.91049882E+01
  0.00000000E+00  9.55249411E+00  9.55249411E+00 -1.91049882E+01  0.00000000E+00
  9.55249411E+00  9.55249411E+00 -1.91049882E+01  0.00000000E+00  9.55249411E+00
  9.55249411E+00 -1.91049882E+01  0.00000000E+00  9.55249411E+00  9.55249411E+00
 -1.91049882E+01  0.00000000E+00  9.55249411E+00  9.55249411E+00 -1.91049882E+01
  0.00000000E+00  9.55249411E+00  9.55249411E+00 -1.91049882E+01  0.00000000E+00
  9.55249411E+00  9.55249411E+00 -1.91049882E+01  0.00000000E+00  9.55249411E+00
  9.55249411E+00 -1.91049882E+01  0.00000000E+00  9.55249411E+00  9.55249411E+00
 -1.91049882E+01  0.00000000E+00  9.55249411E+00  9.55249411E+00 -1.91049882E+01
  0.00000000E+00  9.55249411E+00  9.55249411E+00 -1.91049882E+01  0.00000000E+00
  9.55249411E+00  9.55249411E+00 -1.91049882E+01  0.00000000E+00  9.55249411E+00
  9.55249411E+00 -1.91049882E+01  0.00000000E+00  9.55249411E+00  9.55249411E+00
 -1.91049882E+01  0.00000000E+00  9.55249411E+00  9.55249411E+00 -1.91049882E+01
  0.00000000E+00  9.55249411E+00  9.55249411E+00 -1.91049882E+01  0.00000000E+00
  9.55249411E+00  9.55249411E+00 -1.91049882E+01  0.00000000E+00  9.55249411E+00
  9.55249411E+00 -1.91049882E+01  0.00000000E+00  9.55249411E+00  9.55249411E+00
 -1.91049882E+01  0.00000000E+00  9.55249411E+00  9.55249411E+00 -1.91049882E+01
  0.00000000E+00  9.55249411E+00  9.55249411E+00 -1.91049882E+01  0.00000000E+00
  9.55249411E+00  9.55249411E+00 -1.91049882E+01  0.00000000E+00  9.55249411E+00
  9.55249411E+00 -1.91049882E+01  0.00000000E+00  9.55249411E+00  9.55249411E+00
 -1.91049882E+01  0.00000000E+00  9.55249411E+00  9.55249411E+00 -1.91049882E+01
  0.00000000E+00  9.55249411E+00  9.55249411E+00 -1.91049882E+01  0.00000000E+00
  9.55249411E+00  9.55249411E+00 -1.91049882E+01  0.00000000E+00  9.55249411E+00
  9.55249411E+00 -1.91049882E+01  0.00000000E+00  9.55249411E+00  9.55249411E+00
 -1.91049882E+01  0.00000000E+00  9.55249411E+00  9.55249411E+00 -1.91049882E+01
  0.00000000E+00  9.55249411E+00  9.55249411E+00 -1.91049882E+01  0.00000000E+00
  9.55249411E+00  9.55249411E+00 -1.91049882E+01  0.00000000E+00  9.55249411E+00
  9.55249411E+00 -1.91049882E+01  0.00000000E+00  9.55249411E+00  9.55249411E+00
 -1.91049882E+01  0.00000000E+00  9.55249411E+00  9.55249411E+00 -1.91049882E+01
  0.00000000E+00  9.55249411E+00  9.55249411E+00 -1.91049882E+01  0.00000000E+00
  9.55249411E+00  9.55249411E+00 -1.91049882E+01  0.00000000E+00  9.55249411E+00
  9.55249411E+00 -1.91049882E+01  0.00000000E+00  9.55249411E+00  9.55249411E+00
 -1.91049882E+01  0.00000000E+00  9.55249411E+00  9.55249411E+00 -1.91049882E+01
  0.00000000E+00  9.55249411E+00  9.55249411E+00 -1.91049882E+01  0.00000000E+00
  9.55249411E+00  9.55249411E+00 -1.91049882E+01  0.00000000E+00  9.55249411E+00
  9.55249411E+00 -1.91049882E+01  0.00000000E+00  9.55249411E+00  9.55249411E+00
 -1.91049882E+01  0.00000000E+00  9.55249411E+00  9.55249411E+00 -1.91049882E+01
  0.00000000E+00  9.55249411E+00  9.55249411E+00 -1.91049882E+01  0.00000000E+00
  9.55249411E+00  9.55249411E+00 -1.91049882E+01  0.00000000E+00  9.55249411E+00
  9.55249411E+00 -1.91049882E+01  0.00000000E+00  9.55249411E+00  9.55249411E+00
 -1.91049882E+01  0.00000000E+00  9.55249411E+00  9.55249411E+00 -1.91049882E+01
  0.00000000E+00  9.55249411E+00  9.55249411E+00 -1.91049882E+01  0.00000000E+00
  9.55249411E+00  9.55249411E+00 -1.91049882E+01  0.00000000E+00  9.55249411E+00
  9.55249411E+00 -1.91049882E+01  0.00000000E+00  9.55249411E+00  9.55249411E+00
 -1.91049882E+01  0.00000000E+00  9.55249411E+00  9.55249411E+00 -1.91049882E+01
  0.00000000E+00  9.55249411E+00  9.55249411E+00 -1.91049882E+01  0.00000000E+00
  9.55249411E+00  9.55249411E+00 -1.91049882E+01  0.00000000E+00  9.55249411E+00
  9.55249411E+00 -1.91049882E+01  0.00000000E+00  9.55249411E+00  9.55249411E+00
 -1.91049882E+01  0.00000000E+00  9.55249411E+00  9.55249411E+00 -1.91049882E+01
  0.00000000E+00  9.55249411E+00  9.55249411E+00 -1.91049882E+01  0.00000000E+00
  9.55249411E+00  9.55249411E+00 -1.91049882E+01  0.00000000E+00  9.55249411E+00
  9.55249411E+00 -1.91049882E+01  0.00000000E+00  9.55249411E+00  9.55249411E+00
 -1.91049882E+01  0.00000000E+00  9.55249411E+00  9.55249411E+00 -1.91049882E+01
  0.00000000E+00  9.55249411E+00  9.55249411E+00 -1.91049882E+01  0.00000000E+00
  9.55249411E+00  9.55249411E+00 -1.91049882E+01  0.00000000E+00  9.55249411E+00
  9.55249411E+00 -1.91049882E+01  0.00000000E+00  9.55249411E+00  9.55249411E+00
 -1.91049882E+01  0.00000000E+00  9.55249411E+00  9.55249411E+00 -1.91049882E+01
  0.00000000E+00  9.55249411E+00  9.55249411E+00 -1.91049882E+01  0.00000000E+00
  9.55249411E+00  9.55249411E+00 -1.91049882E+01  0.00000000E+00  9.55249411E+00
  9.55249411E+00 -1.91049882E+01  0.00000000E+00  9.55249411E+00  9.55249411E+00
 -1.91049882E+01  0.00000000E+00  9.55249411E+00  9.55249411E+00 -1.91049882E+01
  0.00000000E+00  9.55249411E+00  9.55249411E+00 -1.91049882E+01  0.00000000E+00
  9.55249411E+00  9.55249411E+00 -1.91049882E+01  0.00000000E+00  9.55249411E+00
  9.55249411E+00 -1.91049882E+01  0.00000000E+00  9.55249411E+00  9.55249411E+00
 -1.91049882E+01  0.00000000E+00  9.55249411E+00  9.55249411E+00 -1.91049882E+01
  0.00000000E+00  9.55249411E+00  9.55249411E+00 -1.91049882E+01  0.00000000E+00
  9.55249411E+00  9.55249411E+00 -1.91049882E+01  0.00000000E+00  9.55249411E+00
  9.55249411E+00 -1.91049882E+01  0.00000000E+00  9.55249411E+00  9.55249411E+00
 -1.91049882E+01  0.00000000E+00  9.55249411E+00  9.55249411E+00 -1.91049882E+01
  0.00000000E+00  9.55249411E+00  9.55249411E+00 -1.91049882E+01  0.00000000E+00
  9.55249411E+00  9.55249411E+00 -1.91049882E+01  0.00000000E+00  9.55249411E+00
  9.55249411E+00 -1.91049882E+01  0.00000000E+00  9.55249411E+00  9.55249411E+00
 -1.91049882E+01  0.00000000E+00  9.55249411E+00  9.55249411E+00 -1.91049882E+01
  0.00000000E+00  9.55249411E+00  9.55249411E+00 -1.91049882E+01  0.00000000E+00
  9.55249411E+00  9.55249411E+00 -1.91049882E+01  0.00000000E+00  9.55249411E+00
  9.55249411E+00 -1.91049882E+01  0.00000000E+00  9.55249411E+00  9.55249411E+00
 -1.91049882E+01  0.00000000E+00  9.55249411E+00  9.55249411E+00 -1.91049882E+01
  0.00000000E+00  9.55249411E+00  9.55249411E+00 -1.91049882E+01  0.00000000E+00
  9.55249411E+00  9.55249411E+00 -1.91049882E+01  0.00000000E+00  9.55249411E+00
  9.55249411E+00 -1.91049882E+01  0.00000000E+00  9.55249411E+00  9.55249411E+00
 -1.91049882E+01  0.00000000E+00  9.55249411E+00  9.55249411E+00 -1.91049882E+01
  0.00000000E+00  9.55249411E+00  9.55249411E+00 -1.91049882E+01  0.00000000E+00
  9.55249411E+00  9.55249411E+00 -1.91049882E+01  0.00000000E+00  9.55249411E+00
  9.55249411E+00 -1.91049882E+01  0.00000000E+00  9.55249411E+00  9.55249411E+00
 -1.91049882E+01  0.00000000E+00  9.55249411E+00  9.55249411E+00 -1.91049882E+01
  0.00000000E+00  9.55249411E+00  9.55249411E+00 -1.91049882E+01  0.00000000E+00
  9.55249411E+00  9.55249411E+00 -1.91049882E+01  0.00000000E+00  9.55249411E+00
  9.55249411E+00 -1.91049882E+01  0.00000000E+00  9.55249411E+00  9.55249411E+00
 -1.91049882E+01  0.00000000E+00  9.55249411E+00  9.55249411E+00 -1.91049882E+01
  0.00000000E+00  9.55249411E+00  9.55249411E+00 -1.91049882E+01  0.00000000E+00
  9.55249411E+00  9.55249411E+00 -1.91049882E+01  0.00000000E+00  9.55249411E+00
  9.55249411E+00 -1.91049882E+01  0.00000000E+00  9.55249411E+00  9.55249411E+00
 -1.91049882E+01  0.00000000E+00  9.55249411E+00  9.55249411E+00 -1.91049882E+01
  0.00000000E+00  9.55249411E+00  9.55249411E+00 -1.91049882E+01  0.00000000E+00
  9.55249411E+00  9.55249411E+00 -1.91049882E+01  0.00000000E+00  9.55249411E+00
  9.55249411E+00 -1.91049882E+01  0.00000000E+00  9.55249411E+00  9.55249411E+00
 -1.91049882E+01  0.00000000E+00  9.55249411E+00  9.55249411E+00 -1.91049882E+01
  0.00000000E+00  9.55249411E+00  9.55249411E+00 -1.91049882E+01  0.00000000E+00
  9.55249411E+00  9.55249411E+00 -1.91049882E+01  0.00000000E+00  9.55249411E+00
  9.55249411E+00 -1.91049882E+01  0.00000000E+00  9.55249411E+00  9.55249411E+00
 -1.91049882E+01  0.00000000E+00  9.55249411E+00  9.55249411E+00 -1.91049882E+01
  0.00000000E+00  9.55249411E+00  9.55249411E+00 -1.91049882E+01  0.00000000E+00
  9.55249411E+00  9.55249411E+00 -1.91049882E+01  0.00000000E+00  9.55249411E+00
  9.55249411E+00 -1.91049882E+01  0.00000000E+00  9.55249411E+00  9.55249411E+00
 -1.91049882E+01  0.00000000E+00  9.55249411E+00  9.55249411E+00 -1.91049882E+01
  0.00000000E+00  9.55249411E+00  9.55249411E+00 -1.91049882E+01  0.00000000E+00
  9.55249411E+00  9.55249411E+00 -1.91049882E+01  0.00000000E+00  9.55249411E+00
  9.55249411E+00 -1.91049882E+01  0.00000000E+00  9.55249411E+00  9.55249411E+00
 -1.91049882E+01  0.00000000E+00  9.55249411E+00  9.55249411E+00 -1.91049882E+01
  0.00000000E+00  9.55249411E+00  9.55249411E+00 -1.91049882E+01  0.00000000E+00
  9.55249411E+00  9.55249411E+00 -1.91049882E+01  0.00000000E+00  9.55249411E+00
  9.55249411E+00 -1.91049882E+01  0.00000000E+00  9.55249411E+00  9.55249411E+00
 -1.91049882E+01  0.00000000E+00  9.55249411E+00  9.55249411E+00 -1.91049882E+01
  0.00000000E+00  9.55249411E+00  9.55249411E+00 -1.91049882E+01  0.00000000E+00
  9.55249411E+00  9.55249411E+00 -1.91049882E+01  0.00000000E+00  9.55249411E+00
  9.55249411E+00 -1.91049882E+01  0.00000000E+00  9.55249411E+00  9.55249411E+00
 -1.91049882E+01  0.00000000E+00  9.55249411E+00  9.55249411E+00 -1.91049882E+01
  0.00000000E+00  9.55249411E+00  9.55249411E+00 -1.91049882E+01  0.00000000E+00
  9.55249411E+00  9.55249411E+00 -1.91049882E+01  0.00000000E+00  9.55249411E+00
  9.55249411E+00 -1.91049882E+01  0.00000000E+00  9.55249411E+00  9.55249411E+00
 -1.91049882E+01  0.00000000E+00  9.55249411E+00  9.55249411E+00 -1.91049882E+01
  0.00000000E+00  9.55249411E+00  9.55249411E+00 -1.91049882E+01  0.00000000E+00
  9.55249411E+00  9.55249411E+00 -1.91049882E+01  0.00000000E+00  9.55249411E+00
  9.55249411E+00 -1.91049882E+01  0.00000000E+00  9.55249411E+00  9.55249411E+00
 -1.91049882E+01  0.00000000E+00  9.55249411E+00  9.55249411E+00 -1.91049882E+01
  0.00000000E+00  9.55249411E+00  9.55249411E+00 -1.91049882E+01  0.00000000E+00
  9.55249411E+00  9.55249411E+00 -1.91049882E+01  0.00000000E+00  9.55249411E+00
  9.55249411E+00 -1.91049882E+01  0.00000000E+00  9.55249411E+00  9.55249411E+00
 -1.91049882E+01  0.00000000E+00  9.55249411E+00  9.55249411E+00 -1.91049882E+01
  0.00000000E+00  9.55249411E+00  9.55249411E+00 -1.91049882E+01  0.00000000E+00
  9.55249411E+00  9.55249411E+00 -1.91049882E+01  0.00000000E+00  9.55249411E+00
  9.55249411E+00 -1.91049882E+01  0.00000000E+00  9.55249411E+00  9.55249411E+00
 -1.91049882E+01  0.00000000E+00  9.55249411E+00  9.55249411E+00 -1.91049882E+01
  0.00000000E+00  9.55249411E+00  9.55249411E+00 -1.91049882E+01  0.00000000E+00
  9.55249411E+00  9.55249411E+00 -1.91049882E+01  0.00000000E+00  9.55249411E+00
  9.55249411E+00 -1.91049882E+01  0.00000000E+00  9.55249411E+00  9.55249411E+00
 -1.91049882E+01  0.00000000E+00  9.55249411E+00  9.55249411E+00 -1.91049882E+01
  0.00000000E+00  9.55249411E+00  9.55249411E+00 -1.91049882E+01  0.00000000E+00
  9.55249411E+00  9.55249411E+00 -1.91049882E+01  0.00000000E+00  9.55249411E+00
  9.55249411E+00 -1.91049882E+01  0.00000000E+00  9.55249411E+00  9.55249411E+00
 -1.91049882E+01  0.00000000E+00  9.55249411E+00  9.55249411E+00 -1.91049882E+01
  0.00000000E+00  9.55249411E+00  9.55249411E+00 -1.91049882E+01  0.00000000E+00
  9.55249411E+00  9.55249411E+00 -1.91049882E+01  0.00000000E+00  9.55249411E+00
  9.55249411E+00 -1.91049882E+01  0.00000000E+00  9.55249411E+00  9.55249411E+00
 -1.91049882E+01  0.00000000E+00  9.55249411E+00  9.55249411E+00 -1.91049882E+01
  0.00000000E+00  9.55249411E+00  9.55249411E+00 -1.91049882E+01  0.00000000E+00
  9.55249411E+00  9.55249411E+00 -1.91049882E+01  0.00000000E+00  9.55249411E+00
  9.55249411E+00 -1.91049882E+01  0.00000000E+00  9.55249411E+00  9.55249411E+00
 -1.91049882E+01  0.00000000E+00  9.55249411E+00  9.55249411E+00 -1.91049882E+01
  0.00000000E+00  9.55249411E+00  9.55249411E+00 -1.91049882E+01  0.00000000E+00
  9.55249411E+00  9.55249411E+00 -1.91049882E+01  0.00000000E+00  9.55249411E+00
  9.55249411E+00 -1.91049882E+01  0.00000000E+00  9.55249411E+00  9.55249411E+00
 -1.91049882E+01  0.00000000E+00  9.55249411E+00  9.55249411E+00 -1.91049882E+01
  0.00000000E+00  9.55249411E+00  9.55249411E+00 -1.91049882E+01  0.00000000E+00
  9.55249411E+00  9.55249411E+00 -1.91049882E+01  0.00000000E+00  9.55249411E+00
  9.55249411E+00 -1.91049882E+01  0.00000000E+00  9.55249411E+00  9.55249411E+00
 -1.91049882E+01  0.00000000E+00  9.55249411E+00  9.55249411E+00 -1.91049882E+01
  0.00000000E+00  9.55249411E+00  9.55249411E+00 -1.91049882E+01  0.00000000E+00
  9.55249411E+00  9.55249411E+00 -1.91049882E+01  0.00000000E+00  9.55249411E+00
  9.55249411E+00 -1.91049882E+01  0.00000000E+00  9.55249411E+00  9.55249411E+00
 -1.91049882E+01  0.00000000E+00  9.55249411E+00  9.55249411E+00 -1.91049882E+01
  0.00000000E+00  9.55249411E+00  9.55249411E+00 -1.91049882E+01  0.00000000E+00
  9.55249411E+00  9.55249411E+00 -1.91049882E+01  0.00000000E+00  9.55249411E+00
  9.55249411E+00 -1.91049882E+01  0.00000000E+00  9.55249411E+00  9.55249411E+00
 -1.91049882E+01  0.00000000E+00  9.55249411E+00  9.55249411E+00 -1.91049882E+01
  0.00000000E+00  9.55249411E+00  9.55249411E+00 -1.91049882E+01  0.00000000E+00
  9.55249411E+00  9.55249411E+00 -1.91049882E+01  0.00000000E+00  9.55249411E+00
  9.55249411E+00 -1.91049882E+01  0.00000000E+00  9.55249411E+00  9.55249411E+00
 -1.91049882E+01  0.00000000E+00  9.55249411E+00  9.55249411E+00 -1.91049882E+01
  0.00000000E+00  9.55249411E+00  9.55249411E+00 -1.91049882E+01  0.00000000E+00
  9.55249411E+00  9.55249411E+00 -1.91049882E+01  0.00000000E+00  9.55249411E+00
  9.55249411E+00 -1.91049882E+01  0.00000000E+00  9.55249411E+00  9.55249411E+00
 -1.91049882E+01  0.00000000E+00  9.55249411E+00  9.55249411E+00 -1.91049882E+01
  0.00000000E+00  9.55249411E+00  9.55249411E+00 -1.91049882E+01  0.00000000E+00
  9.55249411E+00  9.55249411E+00 -1.91049882E+01  0.00000000E+00  9.55249411E+00
  9.55249411E+00 -1.91049882E+01  0.00000000E+00  9.55249411E+00  9.55249411E+00
 -1.91049882E+01  0.00000000E+00  9.55249411E+00  9.55249411E+00 -1.91049882E+01
  0.00000000E+00  9.55249411E+00  9.55249411E+00 -1.91049882E+01  0.00000000E+00
  9.55249411E+00  9.55249411E+00 -1.91049882E+01  0.00000000E+00  9.55249411E+00
  9.55249411E+00 -1.91049882E+01  0.00000000E+00  9.55249411E+00  9.55249411E+00
 -1.91049882E+01  0.00000000E+00  9.55249411E+00  9.55249411E+00 -1.91049882E+01
  0.00000000E+00  9.55249411E+00  9.55249411E+00 -1.91049882E+01  0.00000000E+00
  9.55249411E+00  9.55249411E+00 -1.91049882E+01  0.00000000E+00  9.55249411E+00
  9.55249411E+00 -1.91049882E+01  0.00000000E+00  9.55249411E+00  9.55249411E+00
 -1.91049882E+01  0.00000000E+00  9.55249411E+00  9.55249411E+00 -1.91049882E+01
  0.00000000E+00  9.55249411E+00  9.55249411E+00 -1.91049882E+01  0.00000000E+00
  9.55249411E+00  9.55249411E+00 -1.91049882E+01  0.00000000E+00  9.55249411E+00
  9.55249411E+00 -1.91049882E+01  0.00000000E+00  9.55249411E+00  9.55249411E+00
 -1.91049882E+01  0.00000000E+00  9.55249411E+00  9.55249411E+00 -1.91049882E+01
  0.00000000E+00  9.55249411E+00  9.55249411E+00 -1.91049882E+01  0.00000000E+00
  9.55249411E+00  9.55249411E+00 -1.91049882E+01  0.00000000E+00  9.55249411E+00
  9.55249411E+00 -1.91049882E+01  0.00000000E+00  9.55249411E+00  9.55249411E+00
 -1.91049882E+01  0.00000000E+00  9.55249411E+00  9.55249411E+00 -1.91049882E+01
  0.00000000E+00  9.55249411E+00  9.55249411E+00 -1.91049882E+01  0.00000000E+00
  9.55249411E+00  9.55249411E+00 -1.91049882E+01  0.00000000E+00  9.55249411E+00
  9.55249411E+00 -1.91049882E+01  0.00000000E+00  9.55249411E+00  9.55249411E+00
 -1.91049882E+01  0.00000000E+00  9.55249411E+00  9.55249411E+00 -1.91049882E+01
  0.00000000E+00  9.55249411E+00  9.55249411E+00 -1.91049882E+01  0.00000000E+00
  9.55249411E+00  9.55249411E+00 -1.91049882E+01  0.00000000E+00  9.55249411E+00
  9.55249411E+00 -1.91049882E+01  0.00000000E+00  9.55249411E+00  9.55249411E+00
 -1.91049882E+01  0.00000000E+00  9.55249411E+00  9.55249411E+00 -1.91049882E+01
  0.00000000E+00  9.55249411E+00  9.55249411E+00 -1.91049882E+01  0.00000000E+00
  9.55249411E+00  9.55249411E+00 -1.91049882E+01  0.00000000E+00  9.55249411E+00
  9.55249411E+00 -1.91049882E+01  0.00000000E+00  9.55249411E+00  9.55249411E+00
 -1.91049882E+01  0.00000000E+00  9.55249411E+00  9.55249411E+00 -1.91049882E+01
  0.00000000E+00  9.55249411E+00  9.55249411E+00 -1.91049882E+01  0.00000000E+00
  9.55249411E+00  9.55249411E+00 -1.91049882E+01  0.00000000E+00  9.55249411E+00
  9.55249411E+00 -1.91049882E+01  0.00000000E+00  9.55249411E+00  9.55249411E+00
 -1.91049882E+01  0.00000000E+00  9.55249411E+00  9.55249411E+00 -1.91049882E+01
  0.00000000E+00  9.55249411E+00  9.55249411E+00 -1.91049882E+01  0.00000000E+00
  9.55249411E+00  9.55249411E+00 -1.91049882E+01  0.00000000E+00  9.55249411E+00
  9.55249411E+00 -1.91049882E+01  0.00000000E+00  9.55249411E+00  9.55249411E+00
 -1.91049882E+01  0.00000000E+00  9.55249411E+00  9.55249411E+00 -1.91049882E+01
  0.00000000E+00  9.55249411E+00  9.55249411E+00 -1.91049882E+01  0.00000000E+00
  9.55249411E+00  9.55249411E+00 -1.91049882E+01  0.00000000E+00  9.55249411E+00
  9.55249411E+00 -1.91049882E+01  0.00000000E+00  9.55249411E+00  9.55249411E+00
 -1.91049882E+01  0.00000000E+00  9.55249411E+00  9.55249411E+00 -1.91049882E+01
  0.00000000E+00  9.55249411E+00  9.55249411E+00 -1.91049882E+01  0.00000000E+00
  9.55249411E+00  9.55249411E+00 -1.91049882E+01  0.00000000E+00  9.55249411E+00
  9.55249411E+00 -1.91049882E+01  0.00000000E+00  9.55249411E+00  9.55249411E+00
 -1.91049882E+01  0.00000000E+00  9.55249411E+00  9.55249411E+00 -1.91049882E+01
  0.00000000E+00  9.55249411E+00  9.55249411E+00 -1.91049882E+01  0.00000000E+00
  9.55249411E+00  9.55249411E+00 -1.91049882E+01  0.00000000E+00  9.55249411E+00
  9.55249411E+00 -1.91049882E+01  0.00000000E+00  9.55249411E+00  9.55249411E+00
 -1.91049882E+01  0.00000000E+00  9.55249411E+00  9.55249411E+00 -1.91049882E+01
  0.00000000E+00  9.55249411E+00  9.55249411E+00 -1.91049882E+01  0.00000000E+00
  9.55249411E+00  9.55249411E+00 -1.91049882E+01  0.00000000E+00  9.55249411E+00
  9.55249411E+00 -1.91049882E+01  0.00000000E+00  9.55249411E+00  9.55249411E+00
 -1.91049882E+01  0.00000000E+00  9.55249411E+00  9.55249411E+00 -1.91049882E+01
  0.00000000E+00  9.55249411E+00  9.55249411E+00 -1.91049882E+01  0.00000000E+00
  9.55249411E+00  9.55249411E+00 -1.91049882E+01  0.00000000E+00  9.55249411E+00
  9.55249411E+00 -1.91049882E+01  0.00000000E+00  9.55249411E+00  9.55249411E+00
 -1.91049882E+01  0.00000000E+00  9.55249411E+00  9.55249411E+00 -1.91049882E+01
  0.00000000E+00  9.55249411E+00  9.55249411E+00 -1.91049882E+01  0.00000000E+00
  9.55249411E+00  9.55249411E+00 -1.91049882E+01  0.00000000E+00  9.55249411E+00
  9.55249411E+00 -1.91049882E+01  0.00000000E+00  9.55249411E+00  9.55249411E+00
 -1.91049882E+01  0.00000000E+00  9.55249411E+00  9.55249411E+00 -1.91049882E+01
  0.00000000E+00  9.55249411E+00  9.55249411E+00 -1.91049882E+01  0.00000000E+00
  9.55249411E+00  9.55249411E+00 -1.91049882E+01  0.00000000E+00  9.55249411E+00
  9.55249411E+00 -1.91049882E+01  0.00000000E+00  9.55249411E+00  9.55249411E+00
 -1.91049882E+01  0.00000000E+00  9.55249411E+00  9.55249411E+00 -1.91049882E+01
  0.00000000E+00  9.55249411E+00  9.55249411E+00 -1.91049882E+01  0.00000000E+00
  9.55249411E+00  9.55249411E+00 -1.91049882E+01  0.00000000E+00  9.55249411E+00
  9.55249411E+00 -1.91049882E+01  0.00000000E+00  9.55249411E+00  9.55249411E+00
 -1.91049882E+01  0.00000000E+00  9.55249411E+00  9.55249411E+00 -1.91049882E+01
  0.00000000E+00  9.55249411E+00  9.55249411E+00 -1.91049882E+01  0.00000000E+00
  9.55249411E+00  9.55249411E+00 -1.91049882E+01  0.00000000E+00  9.55249411E+00
  9.55249411E+00 -1.91049882E+01  0.00000000E+00  9.55249411E+00  9.55249411E+00
 -1.91049882E+01  0.00000000E+00  9.55249411E+00  9.55249411E+00 -1.91049882E+01
  0.00000000E+00  9.55249411E+00  9.55249411E+00 -1.91049882E+01  0.00000000E+00
  9.55249411E+00  9.55249411E+00 -1.91049882E+01  0.00000000E+00  9.55249411E+00
  9.55249411E+00 -1.91049882E+01  0.00000000E+00  9.55249411E+00  9.55249411E+00
 -1.91049882E+01  0.00000000E+00  9.55249411E+00  9.55249411E+00 -1.91049882E+01
  0.00000000E+00  9.55249411E+00  9.55249411E+00 -1.91049882E+01  0.00000000E+00
  9.55249411E+00  9.55249411E+00 -1.91049882E+01  0.00000000E+00  9.55249411E+00
  9.55249411E+00 -1.91049882E+01  0.00000000E+00  9.55249411E+00  9.55249411E+00
 -1.91049882E+01  0.00000000E+00  9.55249411E+00  9.55249411E+00 -1.91049882E+01
  0.00000000E+00  9.55249411E+00  9.55249411E+00 -1.91049882E+01  0.00000000E+00
  9.55249411E+00  9.55249411E+00 -1.91049882E+01  0.00000000E+00  9.55249411E+00
  9.55249411E+00 -1.91049882E+01  0.00000000E+00  9.55249411E+00  9.55249411E+00
 -1.91049882E+01  0.00000000E+00  9.55249411E+00  9.55249411E+00 -1.91049882E+01
  0.00000000E+00  9.55249411E+00  9.55249411E+00 -1.91049882E+01  0.00000000E+00
  9.55249411E+00  9.55249411E+00 -1.91049882E+01  0.00000000E+00  9.55249411E+00
  9.55249411E+00 -1.91049882E+01  0.00000000E+00  9.55249411E+00  9.55249411E+00
 -1.91049882E+01  0.00000000E+00  9.55249411E+00  9.55249411E+00 -1.91049882E+01
  0.00000000E+00  9.55249411E+00  9.55249411E+00 -1.91049882E+01  0.00000000E+00
  9.55249411E+00  9.55249411E+00 -1.91049882E+01  0.00000000E+00  9.55249411E+00
  9.55249411E+00 -1.91049882E+01  0.00000000E+00  9.55249411E+00  9.55249411E+00
 -1.91049882E+01  0.00000000E+00  9.55249411E+00  9.55249411E+00 -1.91049882E+01
  0.00000000E+00  9.55249411E+00  9.55249411E+00 -1.91049882E+01  0.00000000E+00
  9.55249411E+00  9.55249411E+00 -1.91049882E+01  0.00000000E+00  9.55249411E+00
  9.55249411E+00 -1.91049882E+01  0.00000000E+00  9.55249411E+00  9.55249411E+00
 -1.91049882E+01  0.00000000E+00  9.55249411E+00  9.55249411E+00 -1.91049882E+01
  0.00000000E+00  9.55249411E+00  9.55249411E+00 -1.91049882E+01  0.00000000E+00
  9.55249411E+00  9.55249411E+00 -1.91049882E+01  0.00000000E+00  9.55249411E+00
  9.55249411E+00 -1.91049882E+01  0.00000000E+00  9.55249411E+00  9.55249411E+00
 -1.91049882E+01  0.00000000E+00  9.55249411E+00  9.55249411E+00 -1.91049882E+01
  0.00000000E+00  9.55249411E+00  9.55249411E+00 -1.91049882E+01  0.00000000E+00
  9.55249411E+00  9.55249411E+00 -1.91049882E+01  0.00000000E+00  9.55249411E+00
  9.55249411E+00 -1.91049882E+01  0.00000000E+00  9.55249411E+00  9.55249411E+00
 -1.91049882E+01  0.00000000E+00  9.55249411E+00  9.55249411E+00 -1.91049882E+01
  0.00000000E+00  9.55249411E+00  9.55249411E+00 -1.91049882E+01  0.00000000E+00
  9.55249411E+00  9.55249411E+00 -1.91049882E+01  0.00000000E+00  9.55249411E+00
  9.55249411E+00 -1.91049882E+01  0.00000000E+00  9.55249411E+00  9.55249411E+00
 -1.91049882E+01  0.00000000E+00  9.55249411E+00  9.55249411E+00 -1.91049882E+01
  0.00000000E+00  9.55249411E+00  9.55249411E+00 -1.91049882E+01  0.00000000E+00
  9.55249411E+00  9.55249411E+00 -1.91049882E+01  0.00000000E+00  9.55249411E+00
  9.55249411E+00 -1.91049882E+01  0.00000000E+00  9.55249411E+00  9.55249411E+00
 -1.91049882E+01  0.00000000E+00  9.55249411E+00  9.55249411E+00 -1.91049882E+01
  0.00000000E+00  9.55249411E+00  9.55249411E+00 -1.91049882E+01  0.00000000E+00
  9.55249411E+00  9.55249411E+00 -1.91049882E+01  0.00000000E+00  9.55249411E+00
  9.55249411E+00 -1.91049882E+01  0.00000000E+00  9.55249411E+00  9.55249411E+00
 -1.91049882E+01  0.00000000E+00  9.55249411E+00  9.55249411E+00 -1.91049882E+01
  0.00000000E+00  9.55249411E+00  9.55249411E+00 -1.91049882E+01  0.00000000E+00
  9.55249411E+00  9.55249411E+00 -1.91049882E+01  0.00000000E+00  9.55249411E+00
  9.55249411E+00 -1.91049882E+01  0.00000000E+00  9.55249411E+00  9.55249411E+00
 -1.91049882E+01  0.00000000E+00  9.55249411E+00  9.55249411E+00 -1.91049882E+01
  0.00000000E+00  9.55249411E+00  9.55249411E+00 -1.91049882E+01  0.00000000E+00
  9.55249411E+00  9.55249411E+00 -1.91049882E+01  0.00000000E+00  9.55249411E+00
  9.55249411E+00 -1.91049882E+01  0.00000000E+00  9.55249411E+00  9.55249411E+00
 -1.91049882E+01  0.00000000E+00  9.55249411E+00  9.55249411E+00 -1.91049882E+01
  0.00000000E+00  9.55249411E+00  9.55249411E+00 -1.91049882E+01  0.00000000E+00
  9.55249411E+00  9.55249411E+00 -1.91049882E+01  0.00000000E+00  9.55249411E+00
  9.55249411E+00 -1.91049882E+01  0.00000000E+00  9.55249411E+00  9.55249411E+00
 -1.91049882E+01  0.00000000E+00  9.55249411E+00  9.55249411E+00 -1.91049882E+01
  0.00000000E+00  9.55249411E+00  9.55249411E+00 -1.91049882E+01  0.00000000E+00
  9.55249411E+00  9.55249411E+00 -1.91049882E+01  0.00000000E+00  9.55249411E+00
  9.55249411E+00 -1.91049882E+01  0.00000000E+00  9.55249411E+00  9.55249411E+00
 -1.91049882E+01  0.00000000E+00  9.55249411E+00  9.55249411E+00 -1.91049882E+01
  0.00000000E+00  9.55249411E+00  9.55249411E+00 -1.91049882E+01  0.00000000E+00
  9.55249411E+00  9.55249411E+00 -1.91049882E+01  0.00000000E+00  9.55249411E+00
  9.55249411E+00 -1.91049882E+01  0.00000000E+00  9.55249411E+00  9.55249411E+00
 -1.91049882E+01  0.00000000E+00  9.55249411E+00  9.55249411E+00 -1.91049882E+01
  0.00000000E+00  9.55249411E+00  9.55249411E+00 -1.91049882E+01  0.00000000E+00
  9.55249411E+00  9.55249411E+00 -1.91049882E+01  0.00000000E+00  9.55249411E+00
  9.55249411E+00 -1.91049882E+01  0.00000000E+00  9.55249411E+00  9.55249411E+00
 -1.91049882E+01  0.00000000E+00  9.55249411E+00  9.55249411E+00 -1.91049882E+01
  0.00000000E+00  9.55249411E+00  9.55249411E+00 -1.91049882E+01  0.00000000E+00
  9.55249411E+00  9.55249411E+00 -1.91049882E+01  0.00000000E+00  9.55249411E+00
  9.55249411E+00 -1.91049882E+01  0.00000000E+00  9.55249411E+00  9.55249411E+00
 -1.91049882E+01  0.00000000E+00  9.55249411E+00  9.55249411E+00 -1.91049882E+01
  0.00000000E+00  9.55249411E+00  9.55249411E+00 -1.91049882E+01  0.00000000E+00
  9.55249411E+00  9.55249411E+00 -1.91049882E+01  0.00000000E+00  9.55249411E+00
  9.55249411E+00 -1.91049882E+01  0.00000000E+00  9.55249411E+00  9.55249411E+00
 -1.91049882E+01  0.00000000E+00  9.55249411E+00  9.55249411E+00 -1.91049882E+01
  0.00000000E+00  9.55249411E+00  9.55249411E+00 -1.91049882E+01  0.00000000E+00
  9.55249411E+00  9.55249411E+00 -1.91049882E+01  0.00000000E+00  9.55249411E+00
  9.55249411E+00 -1.91049882E+01  0.00000000E+00  9.55249411E+00  9.55249411E+00
 -1.91049882E+01  0.00000000E+00  9.55249411E+00  9.55249411E+00 -1.91049882E+01
  0.00000000E+00  9.55249411E+00  9.55249411E+00 -1.91049882E+01  0.00000000E+00
  9.55249411E+00  9.55249411E+00 -1.91049882E+01  0.00000000E+00  9.55249411E+00
  9.55249411E+00 -1.91049882E+01  0.00000000E+00  9.55249411E+00  9.55249411E+00
 -1.91049882E+01  0.00000000E+00  9.55249411E+00  9.55249411E+00 -1.91049882E+01
  0.00000000E+00  9.55249411E+00  9.55249411E+00 -1.91049882E+01  0.00000000E+00
  9.55249411E+00  9.55249411E+00 -1.91049882E+01  0.00000000E+00  9.55249411E+00
  9.55249411E+00 -1.91049882E+01  0.00000000E+00  9.55249411E+00  9.55249411E+00
 -1.91049882E+01  0.00000000E+00  9.55249411E+00  9.55249411E+00 -1.91049882E+01
  0.00000000E+00  9.55249411E+00  9.55249411E+00 -1.91049882E+01  0.00000000E+00
  9.55249411E+00  9.55249411E+00 -1.91049882E+01  0.00000000E+00  9.55249411E+00
  9.55249411E+00 -1.91049882E+01  0.00000000E+00  9.55249411E+00  9.55249411E+00
 -1.91049882E+01  0.00000000E+00  9.55249411E+00  9.55249411E+00 -1.91049882E+01
  0.00000000E+00  9.55249411E+00  9.55249411E+00 -1.91049882E+01  0.00000000E+00
  9.55249411E+00  9.55249411E+00 -1.91049882E+01  0.00000000E+00  9.55249411E+00
  9.55249411E+00 -1.91049882E+01  0.00000000E+00  9.55249411E+00  9.55249411E+00
 -1.91049882E+01  0.00000000E+00  9.55249411E+00  9.55249411E+00 -1.91049882E+01
  0.00000000E+00  9.55249411E+00  9.55249411E+00 -1.91049882E+01  0.00000000E+00
  9.55249411E+00  9.55249411E+00 -1.91049882E+01  0.00000000E+00  9.55249411E+00
  9.55249411E+00 -1.91049882E+01  0.00000000E+00  9.55249411E+00  9.55249411E+00
 -1.91049882E+01  0.00000000E+00  9.55249411E+00  9.55249411E+00 -1.91049882E+01
  0.00000000E+00  9.55249411E+00  9.55249411E+00 -1.91049882E+01  0.00000000E+00
  9.55249411E+00  9.55249411E+00 -1.91049882E+01  0.00000000E+00  9.55249411E+00
  9.55249411E+00 -1.91049882E+01  0.00000000E+00  9.55249411E+00  9.55249411E+00
 -1.91049882E+01  0.00000000E+00  9.55249411E+00  9.55249411E+00 -1.91049882E+01
  0.00000000E+00  9.55249411E+00  9.55249411E+00 -1.91049882E+01  0.00000000E+00
  9.55249411E+00  9.55249411E+00 -1.91049882E+01  0.00000000E+00  9.55249411E+00
  9.55249411E+00 -1.91049882E+01  0.00000000E+00  9.55249411E+00  9.55249411E+00
 -1.91049882E+01  0.00000000E+00  9.55249411E+00  9.55249411E+00 -1.91049882E+01
  0.00000000E+00  9.55249411E+00  9.55249411E+00 -1.91049882E+01  0.00000000E+00
  9.55249411E+00  9.55249411E+00 -1.91049882E+01  0.00000000E+00  9.55249411E+00
  9.55249411E+00 -1.91049882E+01  0.00000000E+00  9.55249411E+00  9.55249411E+00
 -1.91049882E+01  0.00000000E+00  9.55249411E+00  9.55249411E+00 -1.91049882E+01
  0.00000000E+00  9.55249411E+00  9.55249411E+00 -1.91049882E+01  0.00000000E+00
  9.55249411E+00  9.55249411E+00 -1.91049882E+01  0.00000000E+00  9.55249411E+00
  9.55249411E+00 -1.91049882E+01  0.00000000E+00  9.55249411E+00  9.55249411E+00
 -1.91049882E+01  0.00000000E+00  9.55249411E+00  9.55249411E+00 -1.91049882E+01
  0.00000000E+00  9.55249411E+00  9.55249411E+00 -1.91049882E+01  0.00000000E+00
  9.55249411E+00  9.55249411E+00 -1.91049882E+01  0.00000000E+00  9.55249411E+00
  9.55249411E+00 -1.91049882E+01  0.00000000E+00  9.55249411E+00  9.55249411E+00
 -1.91049882E+01  0.00000000E+00  9.55249411E+00  9.55249411E+00 -1.91049882E+01
  0.00000000E+00  9.55249411E+00  9.55249411E+00 -1.91049882E+01  0.00000000E+00
  9.55249411E+00  9.55249411E+00 -1.91049882E+01  0.00000000E+00  9.55249411E+00
  9.55249411E+00 -1.91049882E+01  0.00000000E+00  9.55249411E+00  9.55249411E+00
 -1.91049882E+01  0.00000000E+00  9.55249411E+00  9.55249411E+00 -1.91049882E+01
  0.00000000E+00  9.55249411E+00  9.55249411E+00 -1.91049882E+01  0.00000000E+00
  9.55249411E+00  9.55249411E+00 -1.91049882E+01  0.00000000E+00  9.55249411E+00
  9.55249411E+00 -1.91049882E+01  0.00000000E+00  9.55249411E+00  9.55249411E+00
 -1.91049882E+01  0.00000000E+00  9.55249411E+00  9.55249411E+00 -1.91049882E+01
  0.00000000E+00  9.55249411E+00  9.55249411E+00 -1.91049882E+01  0.00000000E+00
  9.55249411E+00  9.55249411E+00 -1.91049882E+01  0.00000000E+00  9.55249411E+00
  9.55249411E+00 -1.91049882E+01  0.00000000E+00  9.55249411E+00  9.55249411E+00
 -1.91049882E+01  0.00000000E+00  9.55249411E+00  9.55249411E+00 -1.91049882E+01
  0.00000000E+00  9.55249411E+00  9.55249411E+00 -1.91049882E+01  0.00000000E+00
  9.55249411E+00  9.55249411E+00 -1.91049882E+01  0.00000000E+00  9.55249411E+00
  9.55249411E+00 -1.91049882E+01  0.00000000E+00  9.55249411E+00  9.55249411E+00
 -1.91049882E+01  0.00000000E+00  9.55249411E+00  9.55249411E+00 -1.91049882E+01
  0.00000000E+00  9.55249411E+00  9.55249411E+00 -1.91049882E+01  0.00000000E+00
  9.55249411E+00  9.55249411E+00 -1.91049882E+01  0.00000000E+00  9.55249411E+00
  9.55249411E+00 -1.91049882E+01  0.00000000E+00  9.55249411E+00  9.55249411E+00
 -1.91049882E+01  0.00000000E+00  9.55249411E+00  9.55249411E+00 -1.91049882E+01
  0.00000000E+00  9.55249411E+00  9.55249411E+00 -1.91049882E+01  0.00000000E+00
  9.55249411E+00  9.55249411E+00 -1.91049882E+01  0.00000000E+00  9.55249411E+00
  9.55249411E+00 -1.91049882E+01  0.00000000E+00  9.55249411E+00  9.55249411E+00
 -1.91049882E+01  0.00000000E+00  9.55249411E+00  9.55249411E+00 -1.91049882E+01
  0.00000000E+00  9.55249411E+00  9.55249411E+00 -1.91049882E+01  0.00000000E+00
  9.55249411E+00  9.55249411E+00 -1.91049882E+01  0.00000000E+00  9.55249411E+00
  9.55249411E+00 -1.91049882E+01  0.00000000E+00  9.55249411E+00  9.55249411E+00
 -1.91049882E+01  0.00000000E+00  9.55249411E+00  9.55249411E+00 -1.91049882E+01
  0.00000000E+00  9.55249411E+00  9.55249411E+00 -1.91049882E+01  0.00000000E+00
  9.55249411E+00  9.55249411E+00 -1.91049882E+01  0.00000000E+00  9.55249411E+00
  9.55249411E+00 -1.91049882E+01  0.00000000E+00  9.55249411E+00  9.55249411E+00
 -1.91049882E+01  0.00000000E+00  9.55249411E+00  9.55249411E+00 -1.91049882E+01
  0.00000000E+00  9.55249411E+00  9.55249411E+00 -1.91049882E+01  0.00000000E+00
  9.55249411E+00  9.55249411E+00 -1.91049882E+01  0.00000000E+00  9.55249411E+00
  9.55249411E+00 -1.91049882E+01  0.00000000E+00  9.55249411E+00  9.55249411E+00
 -1.91049882E+01  0.00000000E+00  9.55249411E+00  9.55249411E+00 -1.91049882E+01
  0.00000000E+00  9.55249411E+00  9.55249411E+00 -1.91049882E+01  0.00000000E+00
  9.55249411E+00  9.55249411E+00 -1.91049882E+01  0.00000000E+00  9.55249411E+00
  9.55249411E+00 -1.91049882E+01  0.00000000E+00  9.55249411E+00  9.55249411E+00
 -1.91049882E+01  0.00000000E+00  9.55249411E+00  9.55249411E+00 -1.91049882E+01
  0.00000000E+00  9.55249411E+00  9.55249411E+00 -1.91049882E+01  0.00000000E+00
  9.55249411E+00  9.55249411E+00 -1.91049882E+01  0.00000000E+00  9.55249411E+00
  9.55249411E+00 -1.91049882E+01  0.00000000E+00  9.55249411E+00  9.55249411E+00
 -1.91049882E+01  0.00000000E+00  9.55249411E+00  9.55249411E+00 -1.91049882E+01
  0.00000000E+00  9.55249411E+00  9.55249411E+00 -1.91049882E+01  0.00000000E+00
  9.55249411E+00  9.55249411E+00 -1.91049882E+01  0.00000000E+00  9.55249411E+00
  9.55249411E+00 -1.91049882E+01  0.00000000E+00  9.55249411E+00  9.55249411E+00
 -1.91049882E+01  0.00000000E+00  9.55249411E+00  9.55249411E+00 -1.91049882E+01
  0.00000000E+00  9.55249411E+00  9.55249411E+00 -1.91049882E+01  0.00000000E+00
  9.55249411E+00  9.55249411E+00 -1.91049882E+01  0.00000000E+00  9.55249411E+00
  9.55249411E+00 -1.91049882E+01  0.00000000E+00  9.55249411E+00  9.55249411E+00
 -1.91049882E+01  0.00000000E+00  9.55249411E+00  9.55249411E+00 -1.91049882E+01
  0.00000000E+00  9.55249411E+00  9.55249411E+00 -1.91049882E+01  0.00000000E+00
  9.55249411E+00  9.55249411E+00 -1.91049882E+01  0.00000000E+00  9.55249411E+00
  9.55249411E+00 -1.91049882E+01  0.00000000E+00  9.55249411E+00  9.55249411E+00
 -1.91049882E+01  0.00000000E+00  9.55249411E+00  9.55249411E+00 -1.91049882E+01
  0.00000000E+00  9.55249411E+00  9.55249411E+00 -1.91049882E+01  0.00000000E+00
  9.55249411E+00  9.55249411E+00 -1.91049882E+01  0.00000000E+00  9.55249411E+00
  9.55249411E+00 -1.91049882E+01  0.00000000E+00  9.55249411E+00  9.55249411E+00
 -1.91049882E+01  0.00000000E+00  9.55249411E+00  9.55249411E+00 -1.91049882E+01
  0.00000000E+00  9.55249411E+00  9.55249411E+00 -1.91049882E+01  0.00000000E+00
  9.55249411E+00  9.55249411E+00 -1.91049882E+01  0.00000000E+00  9.55249411E+00
  9.55249411E+00 -1.91049882E+01  0.00000000E+00  9.55249411E+00  9.55249411E+00
 -1.91049882E+01  0.00000000E+00  9.55249411E+00  9.55249411E+00 -1.91049882E+01
  0.00000000E+00  9.55249411E+00  9.55249411E+00 -1.91049882E+01  0.00000000E+00
  9.55249411E+00  9.55249411E+00 -1.91049882E+01  0.00000000E+00  9.55249411E+00
  9.55249411E+00 -1.91049882E+01  0.00000000E+00  9.55249411E+00  9.55249411E+00
 -1.91049882E+01  0.00000000E+00  9.55249411E+00  9.55249411E+00 -1.91049882E+01
  0.00000000E+00  9.55249411E+00  9.55249411E+00 -1.91049882E+01  0.00000000E+00
  9.55249411E+00  9.55249411E+00 -1.91049882E+01  0.00000000E+00  9.55249411E+00
  9.55249411E+00 -1.91049882E+01  0.00000000E+00  9.55249411E+00  9.55249411E+00
 -1.91049882E+01  0.00000000E+00  9.55249411E+00  9.55249411E+00 -1.91049882E+01
  0.00000000E+00  9.55249411E+00  9.55249411E+00 -1.91049882E+01  0.00000000E+00
  9.55249411E+00  9.55249411E+00 -1.91049882E+01  0.00000000E+00  9.55249411E+00
  9.55249411E+00 -1.91049882E+01  0.00000000E+00  9.55249411E+00  9.55249411E+00
 -1.91049882E+01  0.00000000E+00  9.55249411E+00  9.55249411E+00 -1.91049882E+01
  0.00000000E+00  9.55249411E+00  9.55249411E+00 -1.91049882E+01  0.00000000E+00
  9.55249411E+00  9.55249411E+00 -1.91049882E+01  0.00000000E+00  9.55249411E+00
  9.55249411E+00 -1.91049882E+01  0.00000000E+00  9.55249411E+00  9.55249411E+00
 -1.91049882E+01  0.00000000E+00  9.55249411E+00  9.55249411E+00 -1.91049882E+01
  0.00000000E+00  9.55249411E+00  9.55249411E+00 -1.91049882E+01  0.00000000E+00
  9.55249411E+00  9.55249411E+00 -1.91049882E+01  0.00000000E+00  9.55249411E+00
  9.55249411E+00 -1.91049882E+01  0.00000000E+00  9.55249411E+00  9.55249411E+00
 -1.91049882E+01  0.00000000E+00  9.55249411E+00  9.55249411E+00 -1.91049882E+01
  0.00000000E+00  9.55249411E+00  9.55249411E+00 -1.91049882E+01  0.00000000E+00
  9.55249411E+00  9.55249411E+00 -1.91049882E+01  0.00000000E+00  9.55249411E+00
  9.55249411E+00 -1.91049882E+01  0.00000000E+00  9.55249411E+00  9.55249411E+00
 -1.91049882E+01  0.00000000E+00  9.55249411E+00  9.55249411E+00 -1.91049882E+01
  0.00000000E+00  9.55249411E+00  9.55249411E+00 -1.91049882E+01  0.00000000E+00
  9.55249411E+00  9.55249411E+00 -1.91049882E+01  0.00000000E+00  9.55249411E+00
  9.55249411E+00 -1.91049882E+01  0.00000000E+00  9.55249411E+00  9.55249411E+00
 -1.91049882E+01  0.00000000E+00  9.55249411E+00  9.55249411E+00 -1.91049882E+01
  0.00000000E+00  9.55249411E+00  9.55249411E+00 -1.91049882E+01  0.00000000E+00
  9.55249411E+00  9.55249411E+00 -1.91049882E+01  0.00000000E+00  9.55249411E+00
  9.55249411E+00 -1.91049882E+01  0.00000000E+00  9.55249411E+00  9.55249411E+00
 -1.91049882E+01  0.00000000E+00  9.55249411E+00  9.55249411E+00 -1.91049882E+01
  0.00000000E+00  9.55249411E+00  9.55249411E+00 -1.91049882E+01  0.00000000E+00
  9.55249411E+00  9.55249411E+00 -1.91049882E+01  0.00000000E+00  9.55249411E+00
  9.55249411E+00 -1.91049882E+01  0.00000000E+00  9.55249411E+00  9.55249411E+00
 -1.91049882E+01  0.00000000E+00  9.55249411E+00  9.55249411E+00 -1.91049882E+01
  0.00000000E+00  9.55249411E+00  9.55249411E+00 -1.91049882E+01  0.00000000E+00
  9.55249411E+00  9.55249411E+00 -1.91049882E+01  0.00000000E+00  9.55249411E+00
  9.55249411E+00 -1.91049882E+01  0.00000000E+00  9.55249411E+00  9.55249411E+00
 -1.91049882E+01  0.00000000E+00  9.55249411E+00  9.55249411E+00 -1.91049882E+01
  0.00000000E+00  9.55249411E+00  9.55249411E+00 -1.91049882E+01  0.00000000E+00
  9.55249411E+00  9.55249411E+00 -1.91049882E+01  0.00000000E+00  9.55249411E+00
  9.55249411E+00 -1.91049882E+01  0.00000000E+00  9.55249411E+00  9.55249411E+00
 -1.91049882E+01  0.00000000E+00  9.55249411E+00  9.55249411E+00 -1.91049882E+01
  0.00000000E+00  9.55249411E+00  9.55249411E+00 -1.91049882E+01  0.00000000E+00
  9.55249411E+00  9.55249411E+00 -1.91049882E+01  0.00000000E+00  9.55249411E+00
  9.55249411E+00 -1.91049882E+01  0.00000000E+00  9.55249411E+00  9.55249411E+00
 -1.91049882E+01  0.00000000E+00  9.55249411E+00  9.55249411E+00 -1.91049882E+01
  0.00000000E+00  9.55249411E+00  9.55249411E+00 -1.91049882E+01  0.00000000E+00
  9.55249411E+00  9.55249411E+00 -1.91049882E+01  0.00000000E+00  9.55249411E+00
  9.55249411E+00 -1.91049882E+01  0.00000000E+00  9.55249411E+00  9.55249411E+00
 -1.91049882E+01  0.00000000E+00  9.55249411E+00  9.55249411E+00 -1.91049882E+01
  0.00000000E+00  9.55249411E+00  9.55249411E+00 -1.91049882E+01  0.00000000E+00
  9.55249411E+00  9.55249411E+00 -1.91049882E+01  0.00000000E+00  9.55249411E+00
  9.55249411E+00 -1.91049882E+01  0.00000000E+00  9.55249411E+00  9.55249411E+00
 -1.91049882E+01  0.00000000E+00  9.55249411E+00  9.55249411E+00 -1.91049882E+01
  0.00000000E+00  9.55249411E+00  9.55249411E+00 -1.91049882E+01  0.00000000E+00
  9.55249411E+00  9.55249411E+00 -1.91049882E+01  0.00000000E+00  9.55249411E+00
  9.55249411E+00 -1.91049882E+01  0.00000000E+00  9.55249411E+00  9.55249411E+00
 -1.91049882E+01  0.00000000E+00  9.55249411E+00  9.55249411E+00 -1.91049882E+01
  0.00000000E+00  9.55249411E+00  9.55249411E+00 -1.91049882E+01  0.00000000E+00
  9.55249411E+00  9.55249411E+00 -1.91049882E+01  0.00000000E+00  9.55249411E+00
  9.55249411E+00 -1.91049882E+01  0.00000000E+00  9.55249411E+00  9.55249411E+00
 -1.91049882E+01  0.00000000E+00  9.55249411E+00  9.55249411E+00 -1.91049882E+01
  0.00000000E+00  9.55249411E+00  9.55249411E+00 -1.91049882E+01  0.00000000E+00
  9.55249411E+00  9.55249411E+00 -1.91049882E+01  0.00000000E+00  9.55249411E+00
  9.55249411E+00 -1.91049882E+01  0.00000000E+00  9.55249411E+00  9.55249411E+00
 -1.91049882E+01  0.00000000E+00  9.55249411E+00  9.55249411E+00 -1.91049882E+01
  0.00000000E+00  9.55249411E+00  9.55249411E+00 -1.91049882E+01  0.00000000E+00
  9.55249411E+00  9.55249411E+00 -1.91049882E+01  0.00000000E+00  9.55249411E+00
  9.55249411E+00 -1.91049882E+01  0.00000000E+00  9.55249411E+00  9.55249411E+00
 -1.91049882E+01  0.00000000E+00  9.55249411E+00  9.55249411E+00 -1.91049882E+01
  0.00000000E+00  9.55249411E+00  9.55249411E+00 -1.91049882E+01  0.00000000E+00
  9.55249411E+00  9.55249411E+00 -1.91049882E+01  0.00000000E+00  9.55249411E+00
  9.55249411E+00 -1.91049882E+01  0.00000000E+00  9.55249411E+00  9.55249411E+00
 -1.91049882E+01  0.00000000E+00  9.55249411E+00  9.55249411E+00 -1.91049882E+01
  0.00000000E+00  9.55249411E+00  9.55249411E+00 -1.91049882E+01  0.00000000E+00
  9.55249411E+00  9.55249411E+00 -1.91049882E+01  0.00000000E+00  9.55249411E+00
  9.55249411E+00 -1.91049882E+01  0.00000000E+00  9.55249411E+00  9.55249411E+00
 -1.91049882E+01  0.00000000E+00  9.55249411E+00  9.55249411E+00 -1.91049882E+01
  0.00000000E+00  9.55249411E+00  9.55249411E+00 -1.91049882E+01  0.00000000E+00
  9.55249411E+00  9.55249411E+00 -1.91049882E+01  0.00000000E+00  9.55249411E+00
  9.55249411E+00 -1.91049882E+01  0.00000000E+00  9.55249411E+00  9.55249411E+00
 -1.91049882E+01  0.00000000E+00  9.55249411E+00  9.55249411E+00 -1.91049882E+01
  0.00000000E+00  9.55249411E+00  9.55249411E+00 -1.91049882E+01  0.00000000E+00
  9.55249411E+00  9.55249411E+00 -1.91049882E+01  0.00000000E+00  9.55249411E+00
  9.55249411E+00 -1.91049882E+01  0.00000000E+00  9.55249411E+00  9.55249411E+00
 -1.91049882E+01  0.00000000E+00  9.55249411E+00  9.55249411E+00 -1.91049882E+01
  0.00000000E+00  9.55249411E+00  9.55249411E+00 -1.91049882E+01  0.00000000E+00
  9.55249411E+00  9.55249411E+00 -1.91049882E+01  0.00000000E+00  9.55249411E+00
  9.55249411E+00 -1.91049882E+01  0.00000000E+00  9.55249411E+00  9.55249411E+00
 -1.91049882E+01  0.00000000E+00  9.55249411E+00  9.55249411E+00 -1.91049882E+01
  0.00000000E+00  9.55249411E+00  9.55249411E+00 -1.91049882E+01  0.00000000E+00
  9.55249411E+00  9.55249411E+00 -1.91049882E+01  0.00000000E+00  9.55249411E+00
  9.55249411E+00 -1.91049882E+01  0.00000000E+00  9.55249411E+00  9.55249411E+00
 -1.91049882E+01  0.00000000E+00  9.55249411E+00  9.55249411E+00 -1.91049882E+01
  0.00000000E+00  9.55249411E+00  9.55249411E+00 -1.91049882E+01  0.00000000E+00
  9.55249411E+00  9.55249411E+00 -1.91049882E+01  0.00000000E+00  9.55249411E+00
  9.55249411E+00 -1.91049882E+01  0.00000000E+00  9.55249411E+00  9.55249411E+00
 -1.91049882E+01  0.00000000E+00  9.55249411E+00  9.55249411E+00 -1.91049882E+01
  0.00000000E+00  9.55249411E+00  9.55249411E+00 -1.91049882E+01  0.00000000E+00
  9.55249411E+00  9.55249411E+00 -1.91049882E+01  0.00000000E+00  9.55249411E+00
  9.55249411E+00 -1.91049882E+01  0.00000000E+00  9.55249411E+00  9.55249411E+00
 -1.91049882E+01  0.00000000E+00  9.55249411E+00  9.55249411E+00 -1.91049882E+01
  0.00000000E+00  9.55249411E+00  9.55249411E+00 -1.91049882E+01  0.00000000E+00
  9.55249411E+00  9.55249411E+00 -1.91049882E+01  0.00000000E+00  9.55249411E+00
  9.55249411E+00 -1.91049882E+01  0.00000000E+00  9.55249411E+00  9.55249411E+00
 -1.91049882E+01  0.00000000E+00  9.55249411E+00  9.55249411E+00 -1.91049882E+01
  0.00000000E+00  9.55249411E+00  9.55249411E+00 -1.91049882E+01  0.00000000E+00
  9.55249411E+00  9.55249411E+00 -1.91049882E+01  0.00000000E+00  9.55249411E+00
  9.55249411E+00 -1.91049882E+01  0.00000000E+00  9.55249411E+00  9.55249411E+00
 -1.91049882E+01  0.00000000E+00  9.55249411E+00  9.55249411E+00 -1.91049882E+01
  0.00000000E+00  9.55249411E+00  9.55249411E+00 -1.91049882E+01  0.00000000E+00
  9.55249411E+00  9.55249411E+00 -1.91049882E+01  0.00000000E+00  9.55249411E+00
  9.55249411E+00 -1.91049882E+01  0.00000000E+00  9.55249411E+00  9.55249411E+00
 -1.91049882E+01  0.00000000E+00  9.55249411E+00  9.55249411E+00 -1.91049882E+01
  0.00000000E+00  9.55249411E+00  9.55249411E+00 -1.91049882E+01  0.00000000E+00
  9.55249411E+00  9.55249411E+00 -1.91049882E+01  0.00000000E+00  9.55249411E+00
  9.55249411E+00 -1.91049882E+01  0.00000000E+00  9.55249411E+00  9.55249411E+00
 -1.91049882E+01  0.00000000E+00  9.55249411E+00  9.55249411E+00 -1.91049882E+01
  0.00000000E+00  9.55249411E+00  9.55249411E+00 -1.91049882E+01  0.00000000E+00
  9.55249411E+00  9.55249411E+00 -1.91049882E+01  0.00000000E+00  9.55249411E+00
  9.55249411E+00 -1.91049882E+01  0.00000000E+00  9.55249411E+00  9.55249411E+00
 -1.91049882E+01  0.00000000E+00  9.55249411E+00  9.55249411E+00 -1.91049882E+01
  0.00000000E+00  9.55249411E+00  9.55249411E+00 -1.91049882E+01  0.00000000E+00
  9.55249411E+00  9.55249411E+00 -1.91049882E+01  0.00000000E+00  9.55249411E+00
  9.55249411E+00 -1.91049882E+01  0.00000000E+00  9.55249411E+00  9.55249411E+00
 -1.91049882E+01  0.00000000E+00  9.55249411E+00  9.55249411E+00 -1.91049882E+01
  0.00000000E+00  9.55249411E+00  9.55249411E+00 -1.91049882E+01  0.00000000E+00
  9.55249411E+00  9.55249411E+00 -1.91049882E+01  0.00000000E+00  9.55249411E+00
  9.55249411E+00 -1.91049882E+01  0.00000000E+00  9.55249411E+00  9.55249411E+00
 -1.91049882E+01  0.00000000E+00  9.55249411E+00  9.55249411E+00 -1.91049882E+01
  0.00000000E+00  9.55249411E+00  9.55249411E+00 -1.91049882E+01  0.00000000E+00
  9.55249411E+00  9.55249411E+00 -1.91049882E+01  0.00000000E+00  9.55249411E+00
  9.55249411E+00 -1.91049882E+01  0.00000000E+00  9.55249411E+00  9.55249411E+00
 -1.91049882E+01  0.00000000E+00  9.55249411E+00  9.55249411E+00 -1.91049882E+01
  0.00000000E+00  9.55249411E+00  9.55249411E+00 -1.91049882E+01  0.00000000E+00
  9.55249411E+00  9.55249411E+00 -1.91049882E+01  0.00000000E+00  9.55249411E+00
  9.55249411E+00 -1.91049882E+01  0.00000000E+00  9.55249411E+00  9.55249411E+00
 -1.91049882E+01  0.00000000E+00  9.55249411E+00  9.55249411E+00 -1.91049882E+01
  0.00000000E+00  9.55249411E+00  9.55249411E+00 -1.91049882E+01  0.00000000E+00
  9.55249411E+00  9.55249411E+00 -1.91049882E+01  0.00000000E+00  9.55249411E+00
  9.55249411E+00 -1.91049882E+01  0.00000000E+00  9.55249411E+00  9.55249411E+00
 -1.91049882E+01  0.00000000E+00  9.55249411E+00  9.55249411E+00 -1.91049882E+01
  0.00000000E+00  9.55249411E+00  9.55249411E+00 -1.91049882E+01  0.00000000E+00
  9.55249411E+00  9.55249411E+00 -1.91049882E+01  0.00000000E+00  9.55249411E+00
  9.55249411E+00 -1.91049882E+01  0.00000000E+00  9.55249411E+00  9.55249411E+00
 -1.91049882E+01  0.00000000E+00  9.55249411E+00  9.55249411E+00 -1.91049882E+01
  0.00000000E+00  9.55249411E+00  9.55249411E+00 -1.91049882E+01  0.00000000E+00
  9.55249411E+00  9.55249411E+00 -1.91049882E+01  0.00000000E+00  9.55249411E+00
  9.55249411E+00 -1.91049882E+01  0.00000000E+00  9.55249411E+00  9.55249411E+00
 -1.91049882E+01  0.00000000E+00  9.55249411E+00  9.55249411E+00 -1.91049882E+01
  0.00000000E+00  9.55249411E+00  9.55249411E+00 -1.91049882E+01  0.00000000E+00
  9.55249411E+00  9.55249411E+00 -1.91049882E+01  0.00000000E+00  9.55249411E+00
  9.55249411E+00 -1.91049882E+01  0.00000000E+00  9.55249411E+00  9.55249411E+00
 -1.91049882E+01  0.00000000E+00  9.55249411E+00  9.55249411E+00 -1.91049882E+01
  0.00000000E+00  9.55249411E+00  9.55249411E+00 -1.91049882E+01  0.00000000E+00
  9.55249411E+00  9.55249411E+00 -1.91049882E+01  0.00000000E+00  9.55249411E+00
  9.55249411E+00 -1.91049882E+01  0.00000000E+00  9.55249411E+00  9.55249411E+00
 -1.91049882E+01  0.00000000E+00  9.55249411E+00  9.55249411E+00 -1.91049882E+01
  0.00000000E+00  9.55249411E+00  9.55249411E+00 -1.91049882E+01  0.00000000E+00
  9.55249411E+00  9.55249411E+00 -1.91049882E+01  0.00000000E+00  9.55249411E+00
  9.55249411E+00 -1.91049882E+01  0.00000000E+00  9.55249411E+00  9.55249411E+00
 -1.91049882E+01  0.00000000E+00  9.55249411E+00  9.55249411E+00 -1.91049882E+01
  0.00000000E+00  9.55249411E+00  9.55249411E+00 -1.91049882E+01  0.00000000E+00
  9.55249411E+00  9.55249411E+00 -1.91049882E+01  0.00000000E+00  9.55249411E+00
  9.55249411E+00 -1.91049882E+01  0.00000000E+00  9.55249411E+00  9.55249411E+00
 -1.91049882E+01  0.00000000E+00  9.55249411E+00  9.55249411E+00 -1.91049882E+01
  0.00000000E+00  9.55249411E+00  9.55249411E+00 -1.91049882E+01  0.00000000E+00
  9.55249411E+00  9.55249411E+00 -1.91049882E+01  0.00000000E+00  9.55249411E+00
  9.55249411E+00 -1.91049882E+01  0.00000000E+00  9.55249411E+00  9.55249411E+00
 -1.91049882E+01  0.00000000E+00  9.55249411E+00  9.55249411E+00 -1.91049882E+01
  0.00000000E+00  9.55249411E+00  9.55249411E+00 -1.91049882E+01  0.00000000E+00
  9.55249411E+00  9.55249411E+00 -1.91049882E+01  0.00000000E+00  9.55249411E+00
  9.55249411E+00 -1.91049882E+01  0.00000000E+00  9.55249411E+00  9.55249411E+00
 -1.91049882E+01  0.00000000E+00  9.55249411E+00  9.55249411E+00 -1.91049882E+01
  0.00000000E+00  9.55249411E+00  9.55249411E+00 -1.91049882E+01  0.00000000E+00
  9.55249411E+00  9.55249411E+00 -1.91049882E+01  0.00000000E+00  9.55249411E+00
  9.55249411E+00 -1.91049882E+01  0.00000000E+00  9.55249411E+00  9.55249411E+00
 -1.91049882E+01  0.00000000E+00  9.55249411E+00  9.55249411E+00 -1.91049882E+01
  0.00000000E+00  9.55249411E+00  9.55249411E+00 -1.91049882E+01  0.00000000E+00
  9.55249411E+00  9.55249411E+00 -1.91049882E+01  0.00000000E+00  9.55249411E+00
  9.55249411E+00 -1.91049882E+01  0.00000000E+00  9.55249411E+00  9.55249411E+00
 -1.91049882E+01  0.00000000E+00  9.55249411E+00  9.55249411E+00 -1.91049882E+01
  0.00000000E+00  9.55249411E+00  9.55249411E+00 -1.91049882E+01  0.00000000E+00
  9.55249411E+00  9.55249411E+00 -1.91049882E+01  0.00000000E+00  9.55249411E+00
  9.55249411E+00 -1.91049882E+01  0.00000000E+00  9.55249411E+00  9.55249411E+00
 -1.91049882E+01  0.00000000E+00  9.55249411E+00  9.55249411E+00 -1.91049882E+01
  0.00000000E+00  9.55249411E+00  9.55249411E+00 -1.91049882E+01  0.00000000E+00
  9.55249411E+00  9.55249411E+00 -1.91049882E+01  0.00000000E+00  9.55249411E+00
  9.55249411E+00 -1.91049882E+01  0.00000000E+00  9.55249411E+00  9.55249411E+00
 -1.91049882E+01  0.00000000E+00  9.55249411E+00  9.55249411E+00 -1.91049882E+01
  0.00000000E+00  9.55249411E+00  9.55249411E+00 -1.91049882E+01  0.00000000E+00
  9.55249411E+00  9.55249411E+00 -1.91049882E+01  0.00000000E+00  9.55249411E+00
  9.55249411E+00 -1.91049882E+01  0.00000000E+00  9.55249411E+00  9.55249411E+00
 -1.91049882E+01  0.00000000E+00  9.55249411E+00  9.55249411E+00 -1.91049882E+01
  0.00000000E+00  9.55249411E+00  9.55249411E+00 -1.91049882E+01  0.00000000E+00
  9.55249411E+00  9.55249411E+00 -1.91049882E+01  0.00000000E+00  9.55249411E+00
  9.55249411E+00 -1.91049882E+01  0.00000000E+00  9.55249411E+00  9.55249411E+00
 -1.91049882E+01  0.00000000E+00  9.55249411E+00  9.55249411E+00 -1.91049882E+01
  0.00000000E+00  9.55249411E+00  9.55249411E+00 -1.91049882E+01  0.00000000E+00
  9.55249411E+00  9.55249411E+00 -1.91049882E+01  0.00000000E+00  9.55249411E+00
  9.55249411E+00 -1.91049882E+01  0.00000000E+00  9.55249411E+00  9.55249411E+00
 -1.91049882E+01  0.00000000E+00  9.55249411E+00  9.55249411E+00 -1.91049882E+01
  0.00000000E+00  9.55249411E+00  9.55249411E+00 -1.91049882E+01  0.00000000E+00
  9.55249411E+00  9.55249411E+00 -1.91049882E+01  0.00000000E+00  9.55249411E+00
  9.55249411E+00 -1.91049882E+01  0.00000000E+00  9.55249411E+00  9.55249411E+00
 -1.91049882E+01  0.00000000E+00  9.55249411E+00  9.55249411E+00 -1.91049882E+01
  0.00000000E+00  9.55249411E+00  9.55249411E+00 -1.91049882E+01  0.00000000E+00
  9.55249411E+00  9.55249411E+00 -1.91049882E+01  0.00000000E+00  9.55249411E+00
  9.55249411E+00 -1.91049882E+01  0.00000000E+00  9.55249411E+00  9.55249411E+00
 -1.91049882E+01  0.00000000E+00  9.55249411E+00  9.55249411E+00 -1.91049882E+01
  0.00000000E+00  9.55249411E+00  9.55249411E+00 -1.91049882E+01  0.00000000E+00
  9.55249411E+00  9.55249411E+00 -1.91049882E+01  0.00000000E+00  9.55249411E+00
  9.55249411E+00 -1.91049882E+01  0.00000000E+00  9.55249411E+00  9.55249411E+00
 -1.91049882E+01  0.00000000E+00  9.55249411E+00  9.55249411E+00 -1.91049882E+01
  0.00000000E+00  9.55249411E+00  9.55249411E+00 -1.91049882E+01  0.00000000E+00
  9.55249411E+00  9.55249411E+00 -1.91049882E+01  0.00000000E+00  9.55249411E+00
  9.55249411E+00 -1.91049882E+01  0.00000000E+00  9.55249411E+00  9.55249411E+00
 -1.91049882E+01  0.00000000E+00  9.55249411E+00  9.55249411E+00 -1.91049882E+01
  0.00000000E+00  9.55249411E+00  9.55249411E+00 -1.91049882E+01  0.00000000E+00
  9.55249411E+00  9.55249411E+00 -1.91049882E+01  0.00000000E+00  9.55249411E+00
  9.55249411E+00 -1.91049882E+01  0.00000000E+00  9.55249411E+00  9.55249411E+00
 -1.91049882E+01  0.00000000E+00  9.55249411E+00  9.55249411E+00 -1.91049882E+01
  0.00000000E+00  9.55249411E+00  9.55249411E+00 -1.91049882E+01  0.00000000E+00
  9.55249411E+00  9.55249411E+00 -1.91049882E+01  0.00000000E+00  9.55249411E+00
  9.55249411E+00 -1.91049882E+01  0.00000000E+00  9.55249411E+00  9.55249411E+00
 -1.91049882E+01  0.00000000E+00  9.55249411E+00  9.55249411E+00 -1.91049882E+01
  0.00000000E+00  9.55249411E+00  9.55249411E+00 -1.91049882E+01  0.00000000E+00
  9.55249411E+00  9.55249411E+00 -1.91049882E+01  0.00000000E+00  9.55249411E+00
  9.55249411E+00 -1.91049882E+01  0.00000000E+00  9.55249411E+00  9.55249411E+00
 -1.91049882E+01  0.00000000E+00  9.55249411E+00  9.55249411E+00 -1.91049882E+01
  0.00000000E+00  9.55249411E+00  9.55249411E+00 -1.91049882E+01  0.00000000E+00
  9.55249411E+00  9.55249411E+00 -1.91049882E+01  0.00000000E+00  9.55249411E+00
  9.55249411E+00 -1.91049882E+01  0.00000000E+00  9.55249411E+00  9.55249411E+00
 -1.91049882E+01  0.00000000E+00  9.55249411E+00  9.55249411E+00 -1.91049882E+01
  0.00000000E+00  9.55249411E+00  9.55249411E+00 -1.91049882E+01  0.00000000E+00
  9.55249411E+00  9.55249411E+00 -1.91049882E+01  0.00000000E+00  9.55249411E+00
  9.55249411E+00 -1.91049882E+01  0.00000000E+00  9.55249411E+00  9.55249411E+00
 -1.91049882E+01  0.00000000E+00  9.55249411E+00  9.55249411E+00 -1.91049882E+01
  0.00000000E+00  9.55249411E+00  9.55249411E+00 -1.91049882E+01  0.00000000E+00
  9.55249411E+00  9.55249411E+00 -1.91049882E+01  0.00000000E+00  9.55249411E+00
  9.55249411E+00 -1.91049882E+01  0.00000000E+00  9.55249411E+00  9.55249411E+00
 -1.91049882E+01  0.00000000E+00  9.55249411E+00  9.55249411E+00 -1.91049882E+01
  0.00000000E+00  9.55249411E+00  9.55249411E+00 -1.91049882E+01  0.00000000E+00
  9.55249411E+00  9.55249411E+00 -1.91049882E+01  0.00000000E+00  9.55249411E+00
  9.55249411E+00 -1.91049882E+01  0.00000000E+00  9.55249411E+00  9.55249411E+00
 -1.91049882E+01  0.00000000E+00  9.55249411E+00  9.55249411E+00 -1.91049882E+01
  0.00000000E+00  9.55249411E+00  9.55249411E+00 -1.91049882E+01  0.00000000E+00
  9.55249411E+00  9.55249411E+00 -1.91049882E+01  0.00000000E+00  9.55249411E+00
  9.55249411E+00 -1.91049882E+01  0.00000000E+00  9.55249411E+00  9.55249411E+00
 -1.91049882E+01  0.00000000E+00  9.55249411E+00  9.55249411E+00 -1.91049882E+01
  0.00000000E+00  9.55249411E+00  9.55249411E+00 -1.91049882E+01  0.00000000E+00
  9.55249411E+00  9.55249411E+00 -1.91049882E+01  0.00000000E+00  9.55249411E+00
  9.55249411E+00 -1.91049882E+01  0.00000000E+00  9.55249411E+00  9.55249411E+00
 -1.91049882E+01  0.00000000E+00  9.55249411E+00  9.55249411E+00 -1.91049882E+01
  0.00000000E+00  9.55249411E+00  9.55249411E+00 -1.91049882E+01  0.00000000E+00
  9.55249411E+00  9.55249411E+00 -1.91049882E+01  0.00000000E+00  9.55249411E+00
  9.55249411E+00 -1.91049882E+01  0.00000000E+00  9.55249411E+00  9.55249411E+00
 -1.91049882E+01  0.00000000E+00  9.55249411E+00  9.55249411E+00 -1.91049882E+01
  0.00000000E+00  9.55249411E+00  9.55249411E+00 -1.91049882E+01  0.00000000E+00
  9.55249411E+00  9.55249411E+00 -1.91049882E+01  0.00000000E+00  9.55249411E+00
  9.55249411E+00 -1.91049882E+01  0.00000000E+00  9.55249411E+00  9.55249411E+00
 -1.91049882E+01  0.00000000E+00  9.55249411E+00  9.55249411E+00 -1.91049882E+01
  0.00000000E+00  9.55249411E+00  9.55249411E+00 -1.91049882E+01  0.00000000E+00
  9.55249411E+00  9.55249411E+00 -1.91049882E+01  0.00000000E+00  9.55249411E+00
  9.55249411E+00 -1.91049882E+01  0.00000000E+00  9.55249411E+00  9.55249411E+00
 -1.91049882E+01  0.00000000E+00  9.55249411E+00  9.55249411E+00 -1.91049882E+01
  0.00000000E+00  9.55249411E+00  9.55249411E+00 -1.91049882E+01  0.00000000E+00
  9.55249411E+00  9.55249411E+00 -1.91049882E+01  0.00000000E+00  9.55249411E+00
  9.55249411E+00 -1.91049882E+01  0.00000000E+00  9.55249411E+00  9.55249411E+00
 -1.91049882E+01  0.00000000E+00  9.55249411E+00  9.55249411E+00 -1.91049882E+01
  0.00000000E+00  9.55249411E+00  9.55249411E+00 -1.91049882E+01  0.00000000E+00
  9.55249411E+00  9.55249411E+00 -1.91049882E+01  0.00000000E+00  9.55249411E+00
  9.55249411E+00 -1.91049882E+01  0.00000000E+00  9.55249411E+00  9.55249411E+00
 -1.91049882E+01  0.00000000E+00  9.55249411E+00  9.55249411E+00 -1.91049882E+01
  0.00000000E+00  9.55249411E+00  9.55249411E+00 -1.91049882E+01  0.00000000E+00
  9.55249411E+00  9.55249411E+00 -1.91049882E+01  0.00000000E+00  9.55249411E+00
  9.55249411E+00 -1.91049882E+01  0.00000000E+00  9.55249411E+00  9.55249411E+00
 -1.91049882E+01  0.00000000E+00  9.55249411E+00  9.55249411E+00 -1.91049882E+01
  0.00000000E+00  9.55249411E+00  9.55249411E+00 -1.91049882E+01  0.00000000E+00
  9.55249411E+00  9.55249411E+00 -1.91049882E+01  0.00000000E+00  9.55249411E+00
  9.55249411E+00 -1.91049882E+01  0.00000000E+00  9.55249411E+00  9.55249411E+00
 -1.91049882E+01  0.00000000E+00  9.55249411E+00  9.55249411E+00 -1.91049882E+01
  0.00000000E+00  9.55249411E+00  9.55249411E+00 -1.91049882E+01  0.00000000E+00
  9.55249411E+00  9.55249411E+00 -1.91049882E+01  0.00000000E+00  9.55249411E+00
  9.55249411E+00 -1.91049882E+01  0.00000000E+00  9.55249411E+00  9.55249411E+00
 -1.91049882E+01  0.00000000E+00  9.55249411E+00  9.55249411E+00 -1.91049882E+01
  0.00000000E+00  9.55249411E+00  9.55249411E+00 -1.91049882E+01  0.00000000E+00
  9.55249411E+00  9.55249411E+00 -1.91049882E+01  0.00000000E+00  9.55249411E+00
  9.55249411E+00 -1.91049882E+01  0.00000000E+00  9.55249411E+00  9.55249411E+00
 -1.91049882E+01  0.00000000E+00  9.55249411E+00  9.55249411E+00 -1.91049882E+01
  0.00000000E+00  9.55249411E+00  9.55249411E+00 -1.91049882E+01  0.00000000E+00
  9.55249411E+00  9.55249411E+00 -1.91049882E+01  0.00000000E+00  9.55249411E+00
  9.55249411E+00 -1.91049882E+01  0.00000000E+00  9.55249411E+00  9.55249411E+00
 -1.91049882E+01  0.00000000E+00  9.55249411E+00  9.55249411E+00 -1.91049882E+01
  0.00000000E+00  9.55249411E+00  9.55249411E+00 -1.91049882E+01  0.00000000E+00
  9.55249411E+00  9.55249411E+00 -1.91049882E+01  0.00000000E+00  9.55249411E+00
  9.55249411E+00 -1.91049882E+01  0.00000000E+00  9.55249411E+00  9.55249411E+00
 -1.91049882E+01  0.00000000E+00  9.55249411E+00  9.55249411E+00 -1.91049882E+01
  0.00000000E+00  9.55249411E+00  9.55249411E+00 -1.91049882E+01  0.00000000E+00
  9.55249411E+00  9.55249411E+00 -1.91049882E+01  0.00000000E+00  9.55249411E+00
  9.55249411E+00 -1.91049882E+01  0.00000000E+00  9.55249411E+00  9.55249411E+00
 -1.91049882E+01  0.00000000E+00  9.55249411E+00  9.55249411E+00 -1.91049882E+01
  0.00000000E+00  9.55249411E+00  9.55249411E+00 -1.91049882E+01  0.00000000E+00
  9.55249411E+00  9.55249411E+00 -1.91049882E+01  0.00000000E+00  9.55249411E+00
  9.55249411E+00 -1.91049882E+01  0.00000000E+00  9.55249411E+00  9.55249411E+00
 -1.91049882E+01  0.00000000E+00  9.55249411E+00  9.55249411E+00 -1.91049882E+01
  0.00000000E+00  9.55249411E+00  9.55249411E+00 -1.91049882E+01  0.00000000E+00
  9.55249411E+00  9.55249411E+00 -1.91049882E+01  0.00000000E+00  9.55249411E+00
  9.55249411E+00 -1.91049882E+01  0.00000000E+00  9.55249411E+00  9.55249411E+00
 -1.91049882E+01  0.00000000E+00  9.55249411E+00  9.55249411E+00 -1.91049882E+01
  0.00000000E+00  9.55249411E+00  9.55249411E+00 -1.91049882E+01  0.00000000E+00
  9.55249411E+00  9.55249411E+00 -1.91049882E+01  0.00000000E+00  9.55249411E+00
  9.55249411E+00 -1.91049882E+01  0.00000000E+00  9.55249411E+00  9.55249411E+00
 -1.91049882E+01  0.00000000E+00  9.55249411E+00  9.55249411E+00 -1.91049882E+01
  0.00000000E+00  9.55249411E+00  9.55249411E+00 -1.91049882E+01  0.00000000E+00
  9.55249411E+00  9.55249411E+00 -1.91049882E+01  0.00000000E+00  9.55249411E+00
  9.55249411E+00 -1.91049882E+01  0.00000000E+00  9.55249411E+00  9.55249411E+00
 -1.91049882E+01  0.00000000E+00  9.55249411E+00  9.55249411E+00 -1.91049882E+01
  0.00000000E+00  9.55249411E+00  9.55249411E+00 -1.91049882E+01  0.00000000E+00
  9.55249411E+00  9.55249411E+00 -1.91049882E+01  0.00000000E+00  9.55249411E+00
  9.55249411E+00 -1.91049882E+01  0.00000000E+00  9.55249411E+00  9.55249411E+00
 -1.91049882E+01  0.00000000E+00  9.55249411E+00  9.55249411E+00 -1.91049882E+01
  0.00000000E+00  9.55249411E+00  9.55249411E+00 -1.91049882E+01  0.00000000E+00
  9.55249411E+00  9.55249411E+00 -1.91049882E+01  0.00000000E+00  9.55249411E+00
  9.55249411E+00 -1.91049882E+01  0.00000000E+00  9.55249411E+00  9.55249411E+00
 -1.91049882E+01  0.00000000E+00  9.55249411E+00  9.55249411E+00 -1.91049882E+01
  0.00000000E+00  9.55249411E+00  9.55249411E+00 -1.91049882E+01  0.00000000E+00
  9.55249411E+00  9.55249411E+00 -1.91049882E+01  0.00000000E+00  9.55249411E+00
  9.55249411E+00 -1.91049882E+01  0.00000000E+00  9.55249411E+00  9.55249411E+00
 -1.91049882E+01  0.00000000E+00  9.55249411E+00  9.55249411E+00 -1.91049882E+01
  0.00000000E+00  9.55249411E+00  9.55249411E+00 -1.91049882E+01  0.00000000E+00
  9.55249411E+00  9.55249411E+00 -1.91049882E+01  0.00000000E+00  9.55249411E+00
  9.55249411E+00 -1.91049882E+01  0.00000000E+00  9.55249411E+00  9.55249411E+00
 -1.91049882E+01  0.00000000E+00  9.55249411E+00  9.55249411E+00 -1.91049882E+01
  0.00000000E+00  9.55249411E+00  9.55249411E+00 -1.91049882E+01  0.00000000E+00
  9.55249411E+00  9.55249411E+00 -1.91049882E+01  0.00000000E+00  9.55249411E+00
  9.55249411E+00 -1.91049882E+01  0.00000000E+00  9.55249411E+00  9.55249411E+00
 -1.91049882E+01  0.00000000E+00  9.55249411E+00  9.55249411E+00 -1.91049882E+01
  0.00000000E+00  9.55249411E+00  9.55249411E+00 -1.91049882E+01  0.00000000E+00
  9.55249411E+00  9.55249411E+00 -1.91049882E+01  0.00000000E+00  9.55249411E+00
  9.55249411E+00 -1.91049882E+01  0.00000000E+00  9.55249411E+00  9.55249411E+00
 -1.91049882E+01  0.00000000E+00  9.55249411E+00  9.55249411E+00 -1.91049882E+01
  0.00000000E+00  9.55249411E+00  9.55249411E+00 -1.91049882E+01  0.00000000E+00
  9.55249411E+00  9.55249411E+00 -1.91049882E+01  0.00000000E+00  9.55249411E+00
  9.55249411E+00 -1.91049882E+01  0.00000000E+00  9.55249411E+00  9.55249411E+00
 -1.91049882E+01  0.00000000E+00  9.55249411E+00  9.55249411E+00 -1.91049882E+01
  0.00000000E+00  9.55249411E+00  9.55249411E+00 -1.91049882E+01  0.00000000E+00
  9.55249411E+00  9.55249411E+00 -1.91049882E+01  0.00000000E+00  9.55249411E+00
  9.55249411E+00 -1.91049882E+01  0.00000000E+00  9.55249411E+00  9.55249411E+00
 -1.91049882E+01  0.00000000E+00  9.55249411E+00  9.55249411E+00 -1.91049882E+01
  0.00000000E+00  9.55249411E+00  9.55249411E+00 -1.91049882E+01  0.00000000E+00
  9.55249411E+00  9.55249411E+00 -1.91049882E+01  0.00000000E+00  9.55249411E+00
  9.55249411E+00 -1.91049882E+01  0.00000000E+00  9.55249411E+00  9.55249411E+00
 -1.91049882E+01  0.00000000E+00  9.55249411E+00  9.55249411E+00 -1.91049882E+01
  0.00000000E+00  9.55249411E+00  9.55249411E+00 -1.91049882E+01  0.00000000E+00
  9.55249411E+00  9.55249411E+00 -1.91049882E+01  0.00000000E+00  9.55249411E+00
  9.55249411E+00 -1.91049882E+01  0.00000000E+00  9.55249411E+00  9.55249411E+00
 -1.91049882E+01  0.00000000E+00  9.55249411E+00  9.55249411E+00 -1.91049882E+01
  0.00000000E+00  9.55249411E+00  9.55249411E+00 -1.91049882E+01  0.00000000E+00
  9.55249411E+00  9.55249411E+00 -1.91049882E+01  0.00000000E+00  9.55249411E+00
  9.55249411E+00 -1.91049882E+01  0.00000000E+00  9.55249411E+00  9.55249411E+00
 -1.91049882E+01  0.00000000E+00  9.55249411E+00  9.55249411E+00 -1.91049882E+01
  0.00000000E+00  9.55249411E+00  9.55249411E+00 -1.91049882E+01  0.00000000E+00
  9.55249411E+00  9.55249411E+00 -1.91049882E+01  0.00000000E+00  9.55249411E+00
  9.55249411E+00 -1.91049882E+01  0.00000000E+00  9.55249411E+00  9.55249411E+00
 -1.91049882E+01  0.00000000E+00  9.55249411E+00  9.55249411E+00 -1.91049882E+01
  0.00000000E+00  9.55249411E+00  9.55249411E+00 -1.91049882E+01  0.00000000E+00
  9.55249411E+00  9.55249411E+00 -1.91049882E+01  0.00000000E+00  9.55249411E+00
  9.55249411E+00 -1.91049882E+01  0.00000000E+00  9.55249411E+00  9.55249411E+00
 -1.91049882E+01  0.00000000E+00  9.55249411E+00  9.55249411E+00 -1.91049882E+01
  0.00000000E+00  9.55249411E+00  9.55249411E+00 -1.91049882E+01  0.00000000E+00
  9.55249411E+00  9.55249411E+00 -1.91049882E+01  0.00000000E+00  9.55249411E+00
  9.55249411E+00 -1.91049882E+01  0.00000000E+00  9.55249411E+00  9.55249411E+00
 -1.91049882E+01  0.00000000E+00  9.55249411E+00  9.55249411E+00 -1.91049882E+01
  0.00000000E+00  9.55249411E+00  9.55249411E+00 -1.91049882E+01  0.00000000E+00
  9.55249411E+00  9.55249411E+00 -1.91049882E+01  0.00000000E+00  9.55249411E+00
  9.55249411E+00 -1.91049882E+01  0.00000000E+00  9.55249411E+00  9.55249411E+00
 -1.91049882E+01  0.00000000E+00  9.55249411E+00  9.55249411E+00 -1.91049882E+01
  0.00000000E+00  9.55249411E+00  9.55249411E+00 -1.91049882E+01  0.00000000E+00
  9.55249411E+00  9.55249411E+00 -1.91049882E+01  0.00000000E+00  9.55249411E+00
  9.55249411E+00 -1.91049882E+01  0.00000000E+00  9.55249411E+00  9.55249411E+00
 -1.91049882E+01  0.00000000E+00  9.55249411E+00  9.55249411E+00 -1.91049882E+01
  0.00000000E+00  9.55249411E+00  9.55249411E+00 -1.91049882E+01  0.00000000E+00
  9.55249411E+00  9.55249411E+00 -1.91049882E+01  0.00000000E+00  9.55249411E+00
  9.55249411E+00 -1.91049882E+01  0.00000000E+00  9.55249411E+00  9.55249411E+00
 -1.91049882E+01  0.00000000E+00  9.55249411E+00  9.55249411E+00 -1.91049882E+01
  0.00000000E+00  9.55249411E+00  9.55249411E+00 -1.91049882E+01  0.00000000E+00
  9.55249411E+00  9.55249411E+00 -1.91049882E+01  0.00000000E+00  9.55249411E+00
  9.55249411E+00 -1.91049882E+01  0.00000000E+00  9.55249411E+00  9.55249411E+00
 -1.91049882E+01  0.00000000E+00  9.55249411E+00  9.55249411E+00 -1.91049882E+01
  0.00000000E+00  9.55249411E+00  9.55249411E+00 -1.91049882E+01  0.00000000E+00
  9.55249411E+00  9.55249411E+00 -1.91049882E+01  0.00000000E+00  9.55249411E+00
  9.55249411E+00 -1.91049882E+01  0.00000000E+00  9.55249411E+00  9.55249411E+00
 -1.91049882E+01  0.00000000E+00  9.55249411E+00  9.55249411E+00 -1.91049882E+01
  0.00000000E+00  9.55249411E+00  9.55249411E+00 -1.91049882E+01  0.00000000E+00
  9.55249411E+00  9.55249411E+00 -1.91049882E+01  0.00000000E+00  9.55249411E+00
  9.55249411E+00 -1.91049882E+01  0.00000000E+00  9.55249411E+00  9.55249411E+00
 -1.91049882E+01  0.00000000E+00  9.55249411E+00  9.55249411E+00 -1.91049882E+01
  0.00000000E+00  9.55249411E+00  9.55249411E+00 -1.91049882E+01  0.00000000E+00
  9.55249411E+00  9.55249411E+00 -1.91049882E+01  0.00000000E+00  9.55249411E+00
  9.55249411E+00 -1.91049882E+01  0.00000000E+00  9.55249411E+00  9.55249411E+00
 -1.91049882E+01  0.00000000E+00  9.55249411E+00  9.55249411E+00 -1.91049882E+01
  0.00000000E+00  9.55249411E+00  9.55249411E+00 -1.91049882E+01  0.00000000E+00
  9.55249411E+00  9.55249411E+00 -1.91049882E+01  0.00000000E+00  9.55249411E+00
  9.55249411E+00 -1.91049882E+01  0.00000000E+00  9.55249411E+00  9.55249411E+00
 -1.91049882E+01  0.00000000E+00  9.55249411E+00  9.55249411E+00 -1.91049882E+01
  0.00000000E+00  9.55249411E+00  9.55249411E+00 -1.91049882E+01  0.00000000E+00
  9.55249411E+00  9.55249411E+00 -1.91049882E+01  0.00000000E+00  9.55249411E+00
  9.55249411E+00 -1.91049882E+01  0.00000000E+00  9.55249411E+00  9.55249411E+00
 -1.91049882E+01  0.00000000E+00  9.55249411E+00  9.55249411E+00 -1.91049882E+01
  0.00000000E+00  9.55249411E+00  9.55249411E+00 -1.91049882E+01  0.00000000E+00
  9.55249411E+00  9.55249411E+00 -1.91049882E+01  0.00000000E+00  9.55249411E+00
  9.55249411E+00 -1.91049882E+01  0.00000000E+00  9.55249411E+00  9.55249411E+00
 -1.91049882E+01  0.00000000E+00  9.55249411E+00  9.55249411E+00 -1.91049882E+01
  0.00000000E+00  9.55249411E+00  9.55249411E+00 -1.91049882E+01  0.00000000E+00
  9.55249411E+00  9.55249411E+00 -1.91049882E+01  0.00000000E+00  9.55249411E+00
  9.55249411E+00 -1.91049882E+01  0.00000000E+00  9.55249411E+00  9.55249411E+00
 -1.91049882E+01  0.00000000E+00  9.55249411E+00  9.55249411E+00 -1.91049882E+01
  0.00000000E+00  9.55249411E+00  9.55249411E+00 -1.91049882E+01  0.00000000E+00
  9.55249411E+00  9.55249411E+00 -1.91049882E+01  0.00000000E+00  9.55249411E+00
  9.55249411E+00 -1.91049882E+01  0.00000000E+00  9.55249411E+00  9.55249411E+00
 -1.91049882E+01  0.00000000E+00  9.55249411E+00  9.55249411E+00 -1.91049882E+01
  0.00000000E+00  9.55249411E+00  9.55249411E+00 -1.91049882E+01  0.00000000E+00
  9.55249411E+00  9.55249411E+00 -1.91049882E+01  0.00000000E+00  9.55249411E+00
  9.55249411E+00 -1.91049882E+01  0.00000000E+00  9.55249411E+00  9.55249411E+00
 -1.91049882E+01  0.00000000E+00  9.55249411E+00  9.55249411E+00 -1.91049882E+01
  0.00000000E+00  9.55249411E+00  9.55249411E+00 -1.91049882E+01  0.00000000E+00
  9.55249411E+00  9.55249411E+00 -1.91049882E+01  0.00000000E+00  9.55249411E+00
  9.55249411E+00 -1.91049882E+01  0.00000000E+00  9.55249411E+00  9.55249411E+00
 -1.91049882E+01  0.00000000E+00  9.55249411E+00  9.55249411E+00 -1.91049882E+01
  0.00000000E+00  9.55249411E+00  9.55249411E+00 -1.91049882E+01  0.00000000E+00
  9.55249411E+00  9.55249411E+00 -1.91049882E+01  0.00000000E+00  9.55249411E+00
  9.55249411E+00 -1.91049882E+01  0.00000000E+00  9.55249411E+00  9.55249411E+00
 -1.91049882E+01  0.00000000E+00  9.55249411E+00  9.55249411E+00 -1.91049882E+01
  0.00000000E+00  9.55249411E+00  9.55249411E+00 -1.91049882E+01  0.00000000E+00
  9.55249411E+00  9.55249411E+00 -1.91049882E+01  0.00000000E+00  9.55249411E+00
  9.55249411E+00 -1.91049882E+01  0.00000000E+00  9.55249411E+00  9.55249411E+00
 -1.91049882E+01  0.00000000E+00  9.55249411E+00  9.55249411E+00 -1.91049882E+01
  0.00000000E+00  9.55249411E+00  9.55249411E+00 -1.91049882E+01  0.00000000E+00
  9.55249411E+00  9.55249411E+00 -1.91049882E+01  0.00000000E+00  9.55249411E+00
  9.55249411E+00 -1.91049882E+01  0.00000000E+00  9.55249411E+00  9.55249411E+00
 -1.91049882E+01  0.00000000E+00  9.55249411E+00  9.55249411E+00 -1.91049882E+01
  0.00000000E+00  9.55249411E+00  9.55249411E+00 -1.91049882E+01  0.00000000E+00
  9.55249411E+00  9.55249411E+00 -1.91049882E+01  0.00000000E+00  9.55249411E+00
  9.55249411E+00 -1.91049882E+01  0.00000000E+00  9.55249411E+00  9.55249411E+00
 -1.91049882E+01  0.00000000E+00  9.55249411E+00  9.55249411E+00 -1.91049882E+01
  0.00000000E+00  9.55249411E+00  9.55249411E+00 -1.91049882E+01  0.00000000E+00
  9.55249411E+00  9.55249411E+00 -1.91049882E+01  0.00000000E+00  9.55249411E+00
  9.55249411E+00 -1.91049882E+01  0.00000000E+00  9.55249411E+00  9.55249411E+00
 -1.91049882E+01  0.00000000E+00  9.55249411E+00  9.55249411E+00 -1.91049882E+01
  0.00000000E+00  9.55249411E+00  9.55249411E+00 -1.91049882E+01  0.00000000E+00
  9.55249411E+00  9.55249411E+00 -1.91049882E+01  0.00000000E+00  9.55249411E+00
  9.55249411E+00 -1.91049882E+01  0.00000000E+00  9.55249411E+00  9.55249411E+00
 -1.91049882E+01  0.00000000E+00  9.55249411E+00  9.55249411E+00 -1.91049882E+01
  0.00000000E+00  9.55249411E+00  9.55249411E+00 -1.91049882E+01  0.00000000E+00
  9.55249411E+00  9.55249411E+00 -1.91049882E+01  0.00000000E+00  9.55249411E+00
  9.55249411E+00 -1.91049882E+01  0.00000000E+00  9.55249411E+00  9.55249411E+00
 -1.91049882E+01  0.00000000E+00  9.55249411E+00  9.55249411E+00 -1.91049882E+01
  0.00000000E+00  9.55249411E+00  9.55249411E+00 -1.91049882E+01  0.00000000E+00
  9.55249411E+00  9.55249411E+00 -1.91049882E+01  0.00000000E+00  9.55249411E+00
  9.55249411E+00 -1.91049882E+01  0.00000000E+00  9.55249411E+00  9.55249411E+00
 -1.91049882E+01  0.00000000E+00  9.55249411E+00  9.55249411E+00 -1.91049882E+01
  0.00000000E+00  9.55249411E+00  9.55249411E+00 -1.91049882E+01  0.00000000E+00
  9.55249411E+00  9.55249411E+00 -1.91049882E+01  0.00000000E+00  9.55249411E+00
  9.55249411E+00 -1.91049882E+01  0.00000000E+00  9.55249411E+00  9.55249411E+00
 -1.91049882E+01  0.00000000E+00  9.55249411E+00  9.55249411E+00 -1.91049882E+01
  0.00000000E+00  9.55249411E+00  9.55249411E+00 -1.91049882E+01  0.00000000E+00
  9.55249411E+00  9.55249411E+00 -1.91049882E+01  0.00000000E+00  9.55249411E+00
  9.55249411E+00 -1.91049882E+01  0.00000000E+00  9.55249411E+00  9.55249411E+00
 -1.91049882E+01  0.00000000E+00  9.55249411E+00  9.55249411E+00 -1.91049882E+01
  0.00000000E+00  9.55249411E+00  9.55249411E+00 -1.91049882E+01  0.00000000E+00
  9.55249411E+00  9.55249411E+00 -1.91049882E+01  0.00000000E+00  9.55249411E+00
  9.55249411E+00 -1.91049882E+01  0.00000000E+00  9.55249411E+00  9.55249411E+00
 -1.91049882E+01  0.00000000E+00  9.55249411E+00  9.55249411E+00 -1.91049882E+01
  0.00000000E+00  9.55249411E+00  9.55249411E+00 -1.91049882E+01  0.00000000E+00
  9.55249411E+00  9.55249411E+00 -1.91049882E+01  0.00000000E+00  9.55249411E+00
  9.55249411E+00 -1.91049882E+01  0.00000000E+00  9.55249411E+00  9.55249411E+00
 -1.91049882E+01  0.00000000E+00  9.55249411E+00  9.55249411E+00 -1.91049882E+01
  0.00000000E+00  9.55249411E+00  9.55249411E+00 -1.91049882E+01  0.00000000E+00
  9.55249411E+00  9.55249411E+00 -1.91049882E+01  0.00000000E+00  9.55249411E+00
  9.55249411E+00 -1.91049882E+01  0.00000000E+00  9.55249411E+00  9.55249411E+00
 -1.91049882E+01  0.00000000E+00  9.55249411E+00  9.55249411E+00 -1.91049882E+01
  0.00000000E+00  9.55249411E+00  9.55249411E+00 -1.91049882E+01  0.00000000E+00
  9.55249411E+00  9.55249411E+00 -1.91049882E+01  0.00000000E+00  9.55249411E+00
  9.55249411E+00 -1.91049882E+01  0.00000000E+00  9.55249411E+00  9.55249411E+00
 -1.91049882E+01  0.00000000E+00  9.55249411E+00  9.55249411E+00 -1.91049882E+01
  0.00000000E+00  9.55249411E+00  9.55249411E+00 -1.91049882E+01  0.00000000E+00
  9.55249411E+00  9.55249411E+00 -1.91049882E+01  0.00000000E+00  9.55249411E+00
  9.55249411E+00 -1.91049882E+01  0.00000000E+00  9.55249411E+00  9.55249411E+00
 -1.91049882E+01  0.00000000E+00  9.55249411E+00  9.55249411E+00 -1.91049882E+01
  0.00000000E+00  9.55249411E+00  9.55249411E+00 -1.91049882E+01  0.00000000E+00
  9.55249411E+00  9.55249411E+00 -1.91049882E+01  0.00000000E+00  9.55249411E+00
  9.55249411E+00 -1.91049882E+01  0.00000000E+00  9.55249411E+00  9.55249411E+00
 -1.91049882E+01  0.00000000E+00  9.55249411E+00  9.55249411E+00 -1.91049882E+01
  0.00000000E+00  9.55249411E+00  9.55249411E+00 -1.91049882E+01  0.00000000E+00
  9.55249411E+00  9.55249411E+00 -1.91049882E+01  0.00000000E+00  9.55249411E+00
  9.55249411E+00 -1.91049882E+01  0.00000000E+00  9.55249411E+00  9.55249411E+00
 -1.91049882E+01  0.00000000E+00  9.55249411E+00  9.55249411E+00 -1.91049882E+01
  0.00000000E+00  9.55249411E+00  9.55249411E+00 -1.91049882E+01  0.00000000E+00
  9.55249411E+00  9.55249411E+00 -1.91049882E+01  0.00000000E+00  9.55249411E+00
  9.55249411E+00 -1.91049882E+01  0.00000000E+00  9.55249411E+00  9.55249411E+00
 -1.91049882E+01  0.00000000E+00  9.55249411E+00  9.55249411E+00 -1.91049882E+01
  0.00000000E+00  9.55249411E+00  9.55249411E+00 -1.91049882E+01  0.00000000E+00
  9.55249411E+00  9.55249411E+00 -1.91049882E+01  0.00000000E+00  9.55249411E+00
  9.55249411E+00 -1.91049882E+01  0.00000000E+00  9.55249411E+00  9.55249411E+00
 -1.91049882E+01  0.00000000E+00  9.55249411E+00  9.55249411E+00 -1.91049882E+01
  0.00000000E+00  9.55249411E+00  9.55249411E+00 -1.91049882E+01  0.00000000E+00
  9.55249411E+00  9.55249411E+00 -1.91049882E+01  0.00000000E+00  9.55249411E+00
  9.55249411E+00 -1.91049882E+01  0.00000000E+00  9.55249411E+00  9.55249411E+00
 -1.91049882E+01  0.00000000E+00  9.55249411E+00  9.55249411E+00 -1.91049882E+01
  0.00000000E+00  9.55249411E+00  9.55249411E+00 -1.91049882E+01  0.00000000E+00
  9.55249411E+00  9.55249411E+00 -1.91049882E+01  0.00000000E+00  9.55249411E+00
  9.55249411E+00 -1.91049882E+01  0.00000000E+00  9.55249411E+00  9.55249411E+00
 -1.91049882E+01  0.00000000E+00  9.55249411E+00  9.55249411E+00 -1.91049882E+01
  0.00000000E+00  9.55249411E+00  9.55249411E+00 -1.91049882E+01  0.00000000E+00
  9.55249411E+00  9.55249411E+00 -1.91049882E+01  0.00000000E+00  9.55249411E+00
  9.55249411E+00 -1.91049882E+01  0.00000000E+00  9.55249411E+00  9.55249411E+00
 -1.91049882E+01  0.00000000E+00  9.55249411E+00  9.55249411E+00 -1.91049882E+01
  0.00000000E+00  9.55249411E+00  9.55249411E+00 -1.91049882E+01  0.00000000E+00
  9.55249411E+00  9.55249411E+00 -1.91049882E+01  0.00000000E+00  9.55249411E+00
  9.55249411E+00 -1.91049882E+01  0.00000000E+00  9.55249411E+00  9.55249411E+00
 -1.91049882E+01  0.00000000E+00  9.55249411E+00  9.55249411E+00 -1.91049882E+01
  0.00000000E+00  9.55249411E+00  9.55249411E+00 -1.91049882E+01  0.00000000E+00
  9.55249411E+00  9.55249411E+00 -1.91049882E+01  0.00000000E+00  9.55249411E+00
  9.55249411E+00 -1.91049882E+01  0.00000000E+00  9.55249411E+00  9.55249411E+00
 -1.91049882E+01  0.00000000E+00  9.55249411E+00  9.55249411E+00 -1.91049882E+01
  0.00000000E+00  9.55249411E+00  9.55249411E+00 -1.91049882E+01  0.00000000E+00
  9.55249411E+00  9.55249411E+00 -1.91049882E+01  0.00000000E+00  9.55249411E+00
  9.55249411E+00 -1.91049882E+01  0.00000000E+00  9.55249411E+00  9.55249411E+00
 -1.91049882E+01  0.00000000E+00  9.55249411E+00  9.55249411E+00 -1.91049882E+01
  0.00000000E+00  9.55249411E+00  9.55249411E+00 -1.91049882E+01  0.00000000E+00
  9.55249411E+00  9.55249411E+00 -1.91049882E+01  0.00000000E+00  9.55249411E+00
  9.55249411E+00 -1.91049882E+01  0.00000000E+00  9.55249411E+00  9.55249411E+00
 -1.91049882E+01  0.00000000E+00  9.55249411E+00  9.55249411E+00 -1.91049882E+01
  0.00000000E+00  9.55249411E+00  9.55249411E+00 -1.91049882E+01  0.00000000E+00
  9.55249411E+00  9.55249411E+00 -1.91049882E+01  0.00000000E+00  9.55249411E+00
  9.55249411E+00 -1.91049882E+01  0.00000000E+00  9.55249411E+00  9.55249411E+00
 -1.91049882E+01  0.00000000E+00  9.55249411E+00  9.55249411E+00 -1.91049882E+01
  0.00000000E+00  9.55249411E+00  9.55249411E+00 -1.91049882E+01  0.00000000E+00
  9.55249411E+00  9.55249411E+00 -1.91049882E+01  0.00000000E+00  9.55249411E+00
  9.55249411E+00 -1.91049882E+01  0.00000000E+00  9.55249411E+00  9.55249411E+00
 -1.91049882E+01  0.00000000E+00  9.55249411E+00  9.55249411E+00 -1.91049882E+01
  0.00000000E+00  9.55249411E+00  9.55249411E+00 -1.91049882E+01  0.00000000E+00
  9.55249411E+00  9.55249411E+00 -1.91049882E+01  0.00000000E+00  9.55249411E+00
  9.55249411E+00 -1.91049882E+01  0.00000000E+00  9.55249411E+00  9.55249411E+00
 -1.91049882E+01  0.00000000E+00  9.55249411E+00  9.55249411E+00 -1.91049882E+01
  0.00000000E+00  9.55249411E+00  9.55249411E+00 -1.91049882E+01  0.00000000E+00
  9.55249411E+00  9.55249411E+00 -1.91049882E+01  0.00000000E+00  9.55249411E+00
  9.55249411E+00 -1.91049882E+01  0.00000000E+00  9.55249411E+00  9.55249411E+00
 -1.91049882E+01  0.00000000E+00  9.55249411E+00  9.55249411E+00 -1.91049882E+01
  0.00000000E+00  9.55249411E+00  9.55249411E+00 -1.91049882E+01  0.00000000E+00
  9.55249411E+00  9.55249411E+00 -1.91049882E+01  0.00000000E+00  9.55249411E+00
  9.55249411E+00 -1.91049882E+01  0.00000000E+00  9.55249411E+00  9.55249411E+00
 -1.91049882E+01  0.00000000E+00  9.55249411E+00  9.55249411E+00 -1.91049882E+01
  0.00000000E+00  9.55249411E+00  9.55249411E+00 -1.91049882E+01  0.00000000E+00
  9.55249411E+00  9.55249411E+00 -1.91049882E+01  0.00000000E+00  9.55249411E+00
  9.55249411E+00 -1.91049882E+01  0.00000000E+00  9.55249411E+00  9.55249411E+00
 -1.91049882E+01  0.00000000E+00  9.55249411E+00  9.55249411E+00 -1.91049882E+01
  0.00000000E+00  9.55249411E+00  9.55249411E+00 -1.91049882E+01  0.00000000E+00
  9.55249411E+00  9.55249411E+00 -1.91049882E+01  0.00000000E+00  9.55249411E+00
  9.55249411E+00 -1.91049882E+01  0.00000000E+00  9.55249411E+00  9.55249411E+00
 -1.91049882E+01  0.00000000E+00  9.55249411E+00  9.55249411E+00 -1.91049882E+01
  0.00000000E+00  9.55249411E+00  9.55249411E+00 -1.91049882E+01  0.00000000E+00
  9.55249411E+00  9.55249411E+00 -1.91049882E+01  0.00000000E+00  9.55249411E+00
  9.55249411E+00 -1.91049882E+01  0.00000000E+00  9.55249411E+00  9.55249411E+00
 -1.91049882E+01  0.00000000E+00  9.55249411E+00  9.55249411E+00 -1.91049882E+01
  0.00000000E+00  9.55249411E+00  9.55249411E+00 -1.91049882E+01  0.00000000E+00
  9.55249411E+00  9.55249411E+00 -1.91049882E+01  0.00000000E+00  9.55249411E+00
  9.55249411E+00 -1.91049882E+01  0.00000000E+00  9.55249411E+00  9.55249411E+00
 -1.91049882E+01  0.00000000E+00  9.55249411E+00  9.55249411E+00 -1.91049882E+01
  0.00000000E+00  9.55249411E+00  9.55249411E+00 -1.91049882E+01  0.00000000E+00
  9.55249411E+00  9.55249411E+00 -1.91049882E+01  0.00000000E+00  9.55249411E+00
  9.55249411E+00 -1.91049882E+01  0.00000000E+00  9.55249411E+00  9.55249411E+00
 -1.91049882E+01  0.00000000E+00  9.55249411E+00  9.55249411E+00 -1.91049882E+01
  0.00000000E+00  9.55249411E+00  9.55249411E+00 -1.91049882E+01  0.00000000E+00
  9.55249411E+00  9.55249411E+00 -1.91049882E+01  0.00000000E+00  9.55249411E+00
  9.55249411E+00 -1.91049882E+01  0.00000000E+00  9.55249411E+00  9.55249411E+00
 -1.91049882E+01  0.00000000E+00  9.55249411E+00  9.55249411E+00 -1.91049882E+01
  0.00000000E+00  9.55249411E+00  9.55249411E+00 -1.91049882E+01  0.00000000E+00
  9.55249411E+00  9.55249411E+00 -1.91049882E+01  0.00000000E+00  9.55249411E+00
  9.55249411E+00 -1.91049882E+01  0.00000000E+00  9.55249411E+00  9.55249411E+00
 -1.91049882E+01  0.00000000E+00  9.55249411E+00  9.55249411E+00 -1.91049882E+01
  0.00000000E+00  9.55249411E+00  9.55249411E+00 -1.91049882E+01  0.00000000E+00
  9.55249411E+00  9.55249411E+00 -1.91049882E+01  0.00000000E+00  9.55249411E+00
  9.55249411E+00 -1.91049882E+01  0.00000000E+00  9.55249411E+00  9.55249411E+00
 -1.91049882E+01  0.00000000E+00  9.55249411E+00  9.55249411E+00 -1.91049882E+01
  0.00000000E+00  9.55249411E+00  9.55249411E+00 -1.91049882E+01  0.00000000E+00
  9.55249411E+00  9.55249411E+00 -1.91049882E+01  0.00000000E+00  9.55249411E+00
  9.55249411E+00 -1.91049882E+01  0.00000000E+00  9.55249411E+00  9.55249411E+00
 -1.91049882E+01  0.00000000E+00  9.55249411E+00  9.55249411E+00 -1.91049882E+01
  0.00000000E+00  9.55249411E+00  9.55249411E+00 -1.91049882E+01  0.00000000E+00
  9.55249411E+00  9.55249411E+00 -1.91049882E+01  0.00000000E+00  9.55249411E+00
  9.55249411E+00 -1.91049882E+01  0.00000000E+00  9.55249411E+00  9.55249411E+00
 -1.91049882E+01  0.00000000E+00  9.55249411E+00  9.55249411E+00 -1.91049882E+01
  0.00000000E+00  9.55249411E+00  9.55249411E+00 -1.91049882E+01  0.00000000E+00
  9.55249411E+00  9.55249411E+00 -1.91049882E+01  0.00000000E+00  9.55249411E+00
  9.55249411E+00 -1.91049882E+01  0.00000000E+00  9.55249411E+00  9.55249411E+00
 -1.91049882E+01  0.00000000E+00  9.55249411E+00  9.55249411E+00 -1.91049882E+01
  0.00000000E+00  9.55249411E+00  9.55249411E+00 -1.91049882E+01  0.00000000E+00
  9.55249411E+00  9.55249411E+00 -1.91049882E+01  0.00000000E+00  9.55249411E+00
  9.55249411E+00 -1.91049882E+01  0.00000000E+00  9.55249411E+00  9.55249411E+00
 -1.91049882E+01  0.00000000E+00  9.55249411E+00  9.55249411E+00 -1.91049882E+01
  0.00000000E+00  9.55249411E+00  9.55249411E+00 -1.91049882E+01  0.00000000E+00
  9.55249411E+00  9.55249411E+00 -1.91049882E+01  0.00000000E+00  9.55249411E+00
  9.55249411E+00 -1.91049882E+01  0.00000000E+00  9.55249411E+00  9.55249411E+00
 -1.91049882E+01  0.00000000E+00  9.55249411E+00  9.55249411E+00 -1.91049882E+01
  0.00000000E+00  9.55249411E+00  9.55249411E+00 -1.91049882E+01  0.00000000E+00
  9.55249411E+00  9.55249411E+00 -1.91049882E+01  0.00000000E+00  9.55249411E+00
  9.55249411E+00 -1.91049882E+01  0.00000000E+00  9.55249411E+00  9.55249411E+00
 -1.91049882E+01  0.00000000E+00  9.55249411E+00  9.55249411E+00 -1.91049882E+01
  0.00000000E+00  9.55249411E+00  9.55249411E+00 -1.91049882E+01  0.00000000E+00
  9.55249411E+00  9.55249411E+00 -1.91049882E+01  0.00000000E+00  9.55249411E+00
  9.55249411E+00 -1.91049882E+01  0.00000000E+00  9.55249411E+00  9.55249411E+00
 -1.91049882E+01  0.00000000E+00  9.55249411E+00  9.55249411E+00 -1.91049882E+01
  0.00000000E+00  9.55249411E+00  9.55249411E+00 -1.91049882E+01  0.00000000E+00
  9.55249411E+00  9.55249411E+00 -1.91049882E+01  0.00000000E+00  9.55249411E+00
  9.55249411E+00 -1.91049882E+01  0.00000000E+00  9.55249411E+00  9.55249411E+00
 -1.91049882E+01  0.00000000E+00  9.55249411E+00  9.55249411E+00 -1.91049882E+01
  0.00000000E+00  9.55249411E+00  9.55249411E+00 -1.91049882E+01  0.00000000E+00
  9.55249411E+00  9.55249411E+00 -1.91049882E+01  0.00000000E+00  9.55249411E+00
  9.55249411E+00 -1.91049882E+01  0.00000000E+00  9.55249411E+00  9.55249411E+00
 -1.91049882E+01  0.00000000E+00  9.55249411E+00  9.55249411E+00 -1.91049882E+01
  0.00000000E+00  9.55249411E+00  9.55249411E+00 -1.91049882E+01  0.00000000E+00
  9.55249411E+00  9.55249411E+00 -1.91049882E+01  0.00000000E+00  9.55249411E+00
  9.55249411E+00 -1.91049882E+01  0.00000000E+00  9.55249411E+00  9.55249411E+00
 -1.91049882E+01  0.00000000E+00  9.55249411E+00  9.55249411E+00 -1.91049882E+01
  0.00000000E+00  9.55249411E+00  9.55249411E+00 -1.91049882E+01  0.00000000E+00
  9.55249411E+00  9.55249411E+00 -1.91049882E+01  0.00000000E+00  9.55249411E+00
  9.55249411E+00 -1.91049882E+01  0.00000000E+00  9.55249411E+00  9.55249411E+00
 -1.91049882E+01  0.00000000E+00  9.55249411E+00  9.55249411E+00 -1.91049882E+01
  0.00000000E+00  9.55249411E+00  9.55249411E+00 -1.91049882E+01  0.00000000E+00
  9.55249411E+00  9.55249411E+00 -1.91049882E+01  0.00000000E+00  9.55249411E+00
  9.55249411E+00 -1.91049882E+01  0.00000000E+00  9.55249411E+00  9.55249411E+00
 -1.91049882E+01  0.00000000E+00  9.55249411E+00  9.55249411E+00 -1.91049882E+01
  0.00000000E+00  9.55249411E+00  9.55249411E+00 -1.91049882E+01  0.00000000E+00
  9.55249411E+00  9.55249411E+00 -1.91049882E+01  0.00000000E+00  9.55249411E+00
  9.55249411E+00 -1.91049882E+01  0.00000000E+00  9.55249411E+00  9.55249411E+00
 -1.91049882E+01  0.00000000E+00  9.55249411E+00  9.55249411E+00 -1.91049882E+01
  0.00000000E+00  9.55249411E+00  9.55249411E+00 -1.91049882E+01  0.00000000E+00
  9.55249411E+00  9.55249411E+00 -1.91049882E+01  0.00000000E+00  9.55249411E+00
  9.55249411E+00 -1.91049882E+01  0.00000000E+00  9.55249411E+00  9.55249411E+00
 -1.91049882E+01  0.00000000E+00  9.55249411E+00  9.55249411E+00 -1.91049882E+01
  0.00000000E+00  9.55249411E+00  9.55249411E+00 -1.91049882E+01  0.00000000E+00
  9.55249411E+00  9.55249411E+00 -1.91049882E+01  0.00000000E+00  9.55249411E+00
  9.55249411E+00 -1.91049882E+01  0.00000000E+00  9.55249411E+00  9.55249411E+00
 -1.91049882E+01  0.00000000E+00  9.55249411E+00  9.55249411E+00 -1.91049882E+01
  0.00000000E+00  9.55249411E+00  9.55249411E+00 -1.91049882E+01  0.00000000E+00
  9.55249411E+00  9.55249411E+00 -1.91049882E+01  0.00000000E+00  9.55249411E+00
  9.55249411E+00 -1.91049882E+01  0.00000000E+00  9.55249411E+00  9.55249411E+00
 -1.91049882E+01  0.00000000E+00  9.55249411E+00  9.55249411E+00 -1.91049882E+01
  0.00000000E+00  9.55249411E+00  9.55249411E+00 -1.91049882E+01  0.00000000E+00
  9.55249411E+00  9.55249411E+00 -1.91049882E+01  0.00000000E+00  9.55249411E+00
  9.55249411E+00 -1.91049882E+01  0.00000000E+00  9.55249411E+00  9.55249411E+00
 -1.91049882E+01  0.00000000E+00  9.55249411E+00  9.55249411E+00 -1.91049882E+01
  0.00000000E+00  9.55249411E+00  9.55249411E+00 -1.91049882E+01  0.00000000E+00
  9.55249411E+00  9.55249411E+00 -1.91049882E+01  0.00000000E+00  9.55249411E+00
  9.55249411E+00 -1.91049882E+01  0.00000000E+00  9.55249411E+00  9.55249411E+00
 -1.91049882E+01  0.00000000E+00  9.55249411E+00  9.55249411E+00 -1.91049882E+01
  0.00000000E+00  9.55249411E+00  9.55249411E+00 -1.91049882E+01  0.00000000E+00
  9.55249411E+00  9.55249411E+00 -1.91049882E+01  0.00000000E+00  9.55249411E+00
  9.55249411E+00 -1.91049882E+01  0.00000000E+00  9.55249411E+00  9.55249411E+00
 -1.91049882E+01  0.00000000E+00  9.55249411E+00  9.55249411E+00 -1.91049882E+01
  0.00000000E+00  9.55249411E+00  9.55249411E+00 -1.91049882E+01  0.00000000E+00
  9.55249411E+00  9.55249411E+00 -1.91049882E+01  0.00000000E+00  9.55249411E+00
  9.55249411E+00 -1.91049882E+01  0.00000000E+00  9.55249411E+00  9.55249411E+00
 -1.91049882E+01  0.00000000E+00  9.55249411E+00  9.55249411E+00 -1.91049882E+01
  0.00000000E+00  9.55249411E+00  9.55249411E+00 -1.91049882E+01  0.00000000E+00
  9.55249411E+00  9.55249411E+00 -1.91049882E+01  0.00000000E+00  9.55249411E+00
  9.55249411E+00 -1.91049882E+01  0.00000000E+00  9.55249411E+00  9.55249411E+00
 -1.91049882E+01  0.00000000E+00  9.55249411E+00  9.55249411E+00 -1.91049882E+01
  0.00000000E+00  9.55249411E+00  9.55249411E+00 -1.91049882E+01  0.00000000E+00
  9.55249411E+00  9.55249411E+00 -1.91049882E+01  0.00000000E+00  9.55249411E+00
  9.55249411E+00 -1.91049882E+01  0.00000000E+00  9.55249411E+00  9.55249411E+00
 -1.91049882E+01  0.00000000E+00  9.55249411E+00  9.55249411E+00 -1.91049882E+01
  0.00000000E+00  9.55249411E+00  9.55249411E+00 -1.91049882E+01  0.00000000E+00
  9.55249411E+00  9.55249411E+00 -1.91049882E+01  0.00000000E+00  9.55249411E+00
  9.55249411E+00 -1.91049882E+01  0.00000000E+00  9.55249411E+00  9.55249411E+00
 -1.91049882E+01  0.00000000E+00  9.55249411E+00  9.55249411E+00 -1.91049882E+01
  0.00000000E+00  9.55249411E+00  9.55249411E+00 -1.91049882E+01  0.00000000E+00
  9.55249411E+00  9.55249411E+00 -1.91049882E+01  0.00000000E+00  9.55249411E+00
  9.55249411E+00 -1.91049882E+01  0.00000000E+00  9.55249411E+00  9.55249411E+00
 -1.91049882E+01  0.00000000E+00  9.55249411E+00  9.55249411E+00 -1.91049882E+01
  0.00000000E+00  9.55249411E+00  9.55249411E+00 -1.91049882E+01  0.00000000E+00
  9.55249411E+00  9.55249411E+00 -1.91049882E+01  0.00000000E+00  9.55249411E+00
  9.55249411E+00 -1.91049882E+01  0.00000000E+00  9.55249411E+00  9.55249411E+00
 -1.91049882E+01  0.00000000E+00  9.55249411E+00  9.55249411E+00 -1.91049882E+01
  0.00000000E+00  9.55249411E+00  9.55249411E+00 -1.91049882E+01  0.00000000E+00
  9.55249411E+00  9.55249411E+00 -1.91049882E+01  0.00000000E+00  9.55249411E+00
  9.55249411E+00 -1.91049882E+01  0.00000000E+00  9.55249411E+00  9.55249411E+00
 -1.91049882E+01  0.00000000E+00  9.55249411E+00  9.55249411E+00 -1.91049882E+01
  0.00000000E+00  9.55249411E+00  9.55249411E+00 -1.91049882E+01  0.00000000E+00
  9.55249411E+00  9.55249411E+00 -1.91049882E+01  0.00000000E+00  9.55249411E+00
  9.55249411E+00 -1.91049882E+01  0.00000000E+00  9.55249411E+00  9.55249411E+00
 -1.91049882E+01  0.00000000E+00  9.55249411E+00  9.55249411E+00 -1.91049882E+01
  0.00000000E+00  9.55249411E+00  9.55249411E+00 -1.91049882E+01  0.00000000E+00
  9.55249411E+00  9.55249411E+00 -1.91049882E+01  0.00000000E+00  9.55249411E+00
  9.55249411E+00 -1.91049882E+01  0.00000000E+00  9.55249411E+00  9.55249411E+00
 -1.91049882E+01  0.00000000E+00  9.55249411E+00  9.55249411E+00 -1.91049882E+01
  0.00000000E+00  9.55249411E+00  9.55249411E+00 -1.91049882E+01  0.00000000E+00
  9.55249411E+00  9.55249411E+00 -1.91049882E+01  0.00000000E+00  9.55249411E+00
  9.55249411E+00 -1.91049882E+01  0.00000000E+00  9.55249411E+00  9.55249411E+00
 -1.91049882E+01  0.00000000E+00  9.55249411E+00  9.55249411E+00 -1.91049882E+01
  0.00000000E+00  9.55249411E+00  9.55249411E+00 -1.91049882E+01  0.00000000E+00
  9.55249411E+00  9.55249411E+00 -1.91049882E+01  0.00000000E+00  9.55249411E+00
  9.55249411E+00 -1.91049882E+01  0.00000000E+00  9.55249411E+00  9.55249411E+00
 -1.91049882E+01  0.00000000E+00  9.55249411E+00  9.55249411E+00 -1.91049882E+01
  0.00000000E+00  9.55249411E+00  9.55249411E+00 -1.91049882E+01  0.00000000E+00
  9.55249411E+00  9.55249411E+00 -1.91049882E+01  0.00000000E+00  9.55249411E+00
  9.55249411E+00 -1.91049882E+01  0.00000000E+00  9.55249411E+00  9.55249411E+00
 -1.91049882E+01  0.00000000E+00  9.55249411E+00  9.55249411E+00 -1.91049882E+01
  0.00000000E+00  9.55249411E+00  9.55249411E+00 -1.91049882E+01  0.00000000E+00
  9.55249411E+00  9.55249411E+00 -1.91049882E+01  0.00000000E+00  9.55249411E+00
  9.55249411E+00 -1.91049882E+01  0.00000000E+00  9.55249411E+00  9.55249411E+00
 -1.91049882E+01  0.00000000E+00  9.55249411E+00  9.55249411E+00 -1.91049882E+01
  0.00000000E+00  9.55249411E+00  9.55249411E+00 -1.91049882E+01  0.00000000E+00
  9.55249411E+00  9.55249411E+00 -1.91049882E+01  0.00000000E+00  9.55249411E+00
  9.55249411E+00 -1.91049882E+01  0.00000000E+00  9.55249411E+00  9.55249411E+00
 -1.91049882E+01  0.00000000E+00  9.55249411E+00  9.55249411E+00 -1.91049882E+01
  0.00000000E+00  9.55249411E+00  9.55249411E+00 -1.91049882E+01  0.00000000E+00
  9.55249411E+00  9.55249411E+00 -1.91049882E+01  0.00000000E+00  9.55249411E+00
  9.55249411E+00 -1.91049882E+01  0.00000000E+00  9.55249411E+00  9.55249411E+00
 -1.91049882E+01  0.00000000E+00  9.55249411E+00  9.55249411E+00 -1.91049882E+01
  0.00000000E+00  9.55249411E+00  9.55249411E+00 -1.91049882E+01  0.00000000E+00
  9.55249411E+00  9.55249411E+00 -1.91049882E+01  0.00000000E+00  9.55249411E+00
  9.55249411E+00 -1.91049882E+01  0.00000000E+00  9.55249411E+00  9.55249411E+00
 -1.91049882E+01  0.00000000E+00  9.55249411E+00  9.55249411E+00 -1.91049882E+01
  0.00000000E+00  9.55249411E+00  9.55249411E+00 -1.91049882E+01  0.00000000E+00
  9.55249411E+00  9.55249411E+00 -1.91049882E+01  0.00000000E+00  9.55249411E+00
  9.55249411E+00 -1.91049882E+01  0.00000000E+00  9.55249411E+00  9.55249411E+00
 -1.91049882E+01  0.00000000E+00  9.55249411E+00  9.55249411E+00 -1.91049882E+01
  0.00000000E+00  9.55249411E+00  9.55249411E+00 -1.91049882E+01  0.00000000E+00
  9.55249411E+00  9.55249411E+00 -1.91049882E+01  0.00000000E+00  9.55249411E+00
  9.55249411E+00 -1.91049882E+01  0.00000000E+00  9.55249411E+00  9.55249411E+00
 -1.91049882E+01  0.00000000E+00  9.55249411E+00  9.55249411E+00 -1.91049882E+01
  0.00000000E+00  9.55249411E+00  9.55249411E+00 -1.91049882E+01  0.00000000E+00
  9.55249411E+00  9.55249411E+00 -1.91049882E+01  0.00000000E+00  9.55249411E+00
  9.55249411E+00 -1.91049882E+01  0.00000000E+00  9.55249411E+00  9.55249411E+00
 -1.91049882E+01  0.00000000E+00  9.55249411E+00  9.55249411E+00 -1.91049882E+01
  0.00000000E+00  9.55249411E+00  9.55249411E+00 -1.91049882E+01  0.00000000E+00
  9.55249411E+00  9.55249411E+00 -1.91049882E+01  0.00000000E+00  9.55249411E+00
  9.55249411E+00 -1.91049882E+01  0.00000000E+00  9.55249411E+00  9.55249411E+00
 -1.91049882E+01  0.00000000E+00  9.55249411E+00  9.55249411E+00 -1.91049882E+01
  0.00000000E+00  9.55249411E+00  9.55249411E+00 -1.91049882E+01  0.00000000E+00
  9.55249411E+00  9.55249411E+00 -1.91049882E+01  0.00000000E+00  9.55249411E+00
  9.55249411E+00 -1.91049882E+01  0.00000000E+00  9.55249411E+00  9.55249411E+00
 -1.91049882E+01  0.00000000E+00  9.55249411E+00  9.55249411E+00 -1.91049882E+01
  0.00000000E+00  9.55249411E+00  9.55249411E+00 -1.91049882E+01  0.00000000E+00
  9.55249411E+00  9.55249411E+00 -1.91049882E+01  0.00000000E+00  9.55249411E+00
  9.55249411E+00 -1.91049882E+01  0.00000000E+00  9.55249411E+00  9.55249411E+00
 -1.91049882E+01  0.00000000E+00  9.55249411E+00  9.55249411E+00 -1.91049882E+01
  0.00000000E+00  9.55249411E+00  9.55249411E+00 -1.91049882E+01  0.00000000E+00
  9.55249411E+00  9.55249411E+00 -1.91049882E+01  0.00000000E+00  9.55249411E+00
  9.55249411E+00 -1.91049882E+01  0.00000000E+00  9.55249411E+00  9.55249411E+00
 -1.91049882E+01  0.00000000E+00  9.55249411E+00  9.55249411E+00 -1.91049882E+01
  0.00000000E+00  9.55249411E+00  9.55249411E+00 -1.91049882E+01  0.00000000E+00
  9.55249411E+00  9.55249411E+00 -1.91049882E+01  0.00000000E+00  9.55249411E+00
  9.55249411E+00 -1.91049882E+01  0.00000000E+00  9.55249411E+00  9.55249411E+00
 -1.91049882E+01  0.00000000E+00  9.55249411E+00  9.55249411E+00 -1.91049882E+01
  0.00000000E+00  9.55249411E+00  9.55249411E+00 -1.91049882E+01  0.00000000E+00
  9.55249411E+00  9.55249411E+00 -1.91049882E+01  0.00000000E+00  9.55249411E+00
  9.55249411E+00 -1.91049882E+01  0.00000000E+00  9.55249411E+00  9.55249411E+00
 -1.91049882E+01  0.00000000E+00  9.55249411E+00  9.55249411E+00 -1.91049882E+01
  0.00000000E+00  9.55249411E+00  9.55249411E+00 -1.91049882E+01  0.00000000E+00
  9.55249411E+00  9.55249411E+00 -1.91049882E+01  0.00000000E+00  9.55249411E+00
  9.55249411E+00 -1.91049882E+01  0.00000000E+00  9.55249411E+00  9.55249411E+00
 -1.91049882E+01  0.00000000E+00  9.55249411E+00  9.55249411E+00 -1.91049882E+01
  0.00000000E+00  9.55249411E+00  9.55249411E+00 -1.91049882E+01  0.00000000E+00
  9.55249411E+00  9.55249411E+00 -1.91049882E+01  0.00000000E+00  9.55249411E+00
  9.55249411E+00 -1.91049882E+01  0.00000000E+00  9.55249411E+00  9.55249411E+00
 -1.91049882E+01  0.00000000E+00  9.55249411E+00  9.55249411E+00 -1.91049882E+01
  0.00000000E+00  9.55249411E+00  9.55249411E+00 -1.91049882E+01  0.00000000E+00
  9.55249411E+00  9.55249411E+00 -1.91049882E+01  0.00000000E+00  9.55249411E+00
  9.55249411E+00 -1.91049882E+01  0.00000000E+00  9.55249411E+00  9.55249411E+00
 -1.91049882E+01  0.00000000E+00  9.55249411E+00  9.55249411E+00 -1.91049882E+01
  0.00000000E+00  9.55249411E+00  9.55249411E+00 -1.91049882E+01  0.00000000E+00
  9.55249411E+00  9.55249411E+00 -1.91049882E+01  0.00000000E+00  9.55249411E+00
  9.55249411E+00 -1.91049882E+01  0.00000000E+00  9.55249411E+00  9.55249411E+00
 -1.91049882E+01  0.00000000E+00  9.55249411E+00  9.55249411E+00 -1.91049882E+01
  0.00000000E+00  9.55249411E+00  9.55249411E+00 -1.91049882E+01  0.00000000E+00
  9.55249411E+00  9.55249411E+00 -1.91049882E+01  0.00000000E+00  9.55249411E+00
  9.55249411E+00 -1.91049882E+01  0.00000000E+00  9.55249411E+00  9.55249411E+00
 -1.91049882E+01  0.00000000E+00  9.55249411E+00  9.55249411E+00 -1.91049882E+01
  0.00000000E+00  9.55249411E+00  9.55249411E+00 -1.91049882E+01  0.00000000E+00
  9.55249411E+00  9.55249411E+00 -1.91049882E+01  0.00000000E+00  9.55249411E+00
  9.55249411E+00 -1.91049882E+01  0.00000000E+00  9.55249411E+00  9.55249411E+00
 -1.91049882E+01  0.00000000E+00  9.55249411E+00  9.55249411E+00 -1.91049882E+01
  0.00000000E+00  9.55249411E+00  9.55249411E+00 -1.91049882E+01  0.00000000E+00
  9.55249411E+00  9.55249411E+00 -1.91049882E+01  0.00000000E+00  9.55249411E+00
  9.55249411E+00 -1.91049882E+01  0.00000000E+00  9.55249411E+00  9.55249411E+00
 -1.91049882E+01  0.00000000E+00  9.55249411E+00  9.55249411E+00 -1.91049882E+01
  0.00000000E+00  9.55249411E+00  9.55249411E+00 -1.91049882E+01  0.00000000E+00
  9.55249411E+00  9.55249411E+00 -1.91049882E+01  0.00000000E+00  9.55249411E+00
  9.55249411E+00 -1.91049882E+01  0.00000000E+00  9.55249411E+00  9.55249411E+00
 -1.91049882E+01  0.00000000E+00  9.55249411E+00  9.55249411E+00 -1.91049882E+01
  0.00000000E+00  9.55249411E+00  9.55249411E+00 -1.91049882E+01  0.00000000E+00
  9.55249411E+00  9.55249411E+00 -1.91049882E+01  0.00000000E+00  9.55249411E+00
  9.55249411E+00 -1.91049882E+01  0.00000000E+00  9.55249411E+00  9.55249411E+00
 -1.91049882E+01  0.00000000E+00  9.55249411E+00  9.55249411E+00 -1.91049882E+01
  0.00000000E+00  9.55249411E+00  9.55249411E+00 -1.91049882E+01  0.00000000E+00
  9.55249411E+00  9.55249411E+00 -1.91049882E+01  0.00000000E+00  9.55249411E+00
  9.55249411E+00 -1.91049882E+01  0.00000000E+00  9.55249411E+00  9.55249411E+00
 -1.91049882E+01  0.00000000E+00  9.55249411E+00  9.55249411E+00 -1.91049882E+01
  0.00000000E+00  9.55249411E+00  9.55249411E+00 -1.91049882E+01  0.00000000E+00
  9.55249411E+00  9.55249411E+00 -1.91049882E+01  0.00000000E+00  9.55249411E+00
  9.55249411E+00 -1.91049882E+01  0.00000000E+00  9.55249411E+00  9.55249411E+00
 -1.91049882E+01  0.00000000E+00  9.55249411E+00  9.55249411E+00 -1.91049882E+01
  0.00000000E+00  9.55249411E+00  9.55249411E+00 -1.91049882E+01  0.00000000E+00
  9.55249411E+00  9.55249411E+00 -1.91049882E+01  0.00000000E+00  9.55249411E+00
  9.55249411E+00 -1.91049882E+01  0.00000000E+00  9.55249411E+00  9.55249411E+00
 -1.91049882E+01  0.00000000E+00  9.55249411E+00  9.55249411E+00 -1.91049882E+01
  0.00000000E+00  9.55249411E+00  9.55249411E+00 -1.91049882E+01  0.00000000E+00
  9.55249411E+00  9.55249411E+00 -1.91049882E+01  0.00000000E+00  9.55249411E+00
  9.55249411E+00 -1.91049882E+01  0.00000000E+00  9.55249411E+00  9.55249411E+00
 -1.91049882E+01  0.00000000E+00  9.55249411E+00  9.55249411E+00 -1.91049882E+01
  0.00000000E+00  9.55249411E+00  9.55249411E+00 -1.91049882E+01  0.00000000E+00
  9.55249411E+00  9.55249411E+00 -1.91049882E+01  0.00000000E+00  9.55249411E+00
  9.55249411E+00 -1.91049882E+01  0.00000000E+00  9.55249411E+00  9.55249411E+00
 -1.91049882E+01  0.00000000E+00  9.55249411E+00  9.55249411E+00 -1.91049882E+01
  0.00000000E+00  9.55249411E+00  9.55249411E+00 -1.91049882E+01  0.00000000E+00
  9.55249411E+00  9.55249411E+00 -1.91049882E+01  0.00000000E+00  9.55249411E+00
  9.55249411E+00 -1.91049882E+01  0.00000000E+00  9.55249411E+00  9.55249411E+00
 -1.91049882E+01  0.00000000E+00  9.55249411E+00  9.55249411E+00 -1.91049882E+01
  0.00000000E+00  9.55249411E+00  9.55249411E+00 -1.91049882E+01  0.00000000E+00
  9.55249411E+00  9.55249411E+00 -1.91049882E+01  0.00000000E+00  9.55249411E+00
  9.55249411E+00 -1.91049882E+01  0.00000000E+00  9.55249411E+00  9.55249411E+00
 -1.91049882E+01  0.00000000E+00  9.55249411E+00  9.55249411E+00 -1.91049882E+01
  0.00000000E+00  9.55249411E+00  9.55249411E+00 -1.91049882E+01  0.00000000E+00
  9.55249411E+00  9.55249411E+00 -1.91049882E+01  0.00000000E+00  9.55249411E+00
  9.55249411E+00 -1.91049882E+01  0.00000000E+00  9.55249411E+00  9.55249411E+00
 -1.91049882E+01  0.00000000E+00  9.55249411E+00  9.55249411E+00 -1.91049882E+01
  0.00000000E+00  9.55249411E+00  9.55249411E+00 -1.91049882E+01  0.00000000E+00
  9.55249411E+00  9.55249411E+00 -1.91049882E+01  0.00000000E+00  9.55249411E+00
  9.55249411E+00 -1.91049882E+01  0.00000000E+00  9.55249411E+00  9.55249411E+00
 -1.91049882E+01  0.00000000E+00  9.55249411E+00  9.55249411E+00 -1.91049882E+01
  0.00000000E+00  9.55249411E+00  9.55249411E+00 -1.91049882E+01  0.00000000E+00
  9.55249411E+00  9.55249411E+00 -1.91049882E+01  0.00000000E+00  9.55249411E+00
  9.55249411E+00 -1.91049882E+01  0.00000000E+00  9.55249411E+00  9.55249411E+00
 -1.91049882E+01  0.00000000E+00  9.55249411E+00  9.55249411E+00 -1.91049882E+01
  0.00000000E+00  9.55249411E+00  9.55249411E+00 -1.91049882E+01  0.00000000E+00
  9.55249411E+00  9.55249411E+00 -1.91049882E+01  0.00000000E+00  9.55249411E+00
  9.55249411E+00 -1.91049882E+01  0.00000000E+00  9.55249411E+00  9.55249411E+00
 -1.91049882E+01  0.00000000E+00  9.55249411E+00  9.55249411E+00 -1.91049882E+01
  0.00000000E+00  9.55249411E+00  9.55249411E+00 -1.91049882E+01  0.00000000E+00
  9.55249411E+00  9.55249411E+00 -1.91049882E+01  0.00000000E+00  9.55249411E+00
  9.55249411E+00 -1.91049882E+01  0.00000000E+00  9.55249411E+00  9.55249411E+00
 -1.91049882E+01  0.00000000E+00  9.55249411E+00  9.55249411E+00 -1.91049882E+01
  0.00000000E+00  9.55249411E+00  9.55249411E+00 -1.91049882E+01  0.00000000E+00
  9.55249411E+00  9.55249411E+00 -1.91049882E+01  0.00000000E+00  9.55249411E+00
  9.55249411E+00 -1.91049882E+01  0.00000000E+00  9.55249411E+00  9.55249411E+00
 -1.91049882E+01  0.00000000E+00  9.55249411E+00  9.55249411E+00 -1.91049882E+01
  0.00000000E+00  9.55249411E+00  9.55249411E+00 -1.91049882E+01  0.00000000E+00
  9.55249411E+00  9.55249411E+00 -1.91049882E+01  0.00000000E+00  9.55249411E+00
  9.55249411E+00 -1.91049882E+01  0.00000000E+00  9.55249411E+00  9.55249411E+00
 -1.91049882E+01  0.00000000E+00  9.55249411E+00  9.55249411E+00 -1.91049882E+01
  0.00000000E+00  9.55249411E+00  9.55249411E+00 -1.91049882E+01  0.00000000E+00
  9.55249411E+00  9.55249411E+00 -1.91049882E+01  0.00000000E+00  9.55249411E+00
  9.55249411E+00 -1.91049882E+01  0.00000000E+00  9.55249411E+00  9.55249411E+00
 -1.91049882E+01  0.00000000E+00  9.55249411E+00  9.55249411E+00 -1.91049882E+01
  0.00000000E+00  9.55249411E+00  9.55249411E+00 -1.91049882E+01  0.00000000E+00
  9.55249411E+00  9.55249411E+00 -1.91049882E+01  0.00000000E+00  9.55249411E+00
  9.55249411E+00 -1.91049882E+01  0.00000000E+00  9.55249411E+00  9.55249411E+00
 -1.91049882E+01  0.00000000E+00  9.55249411E+00  9.55249411E+00 -1.91049882E+01
  0.00000000E+00  9.55249411E+00  9.55249411E+00 -1.91049882E+01  0.00000000E+00
  9.55249411E+00  9.55249411E+00 -1.91049882E+01  0.00000000E+00  9.55249411E+00
  9.55249411E+00 -1.91049882E+01  0.00000000E+00  9.55249411E+00  9.55249411E+00
 -1.91049882E+01  0.00000000E+00  9.55249411E+00  9.55249411E+00 -1.91049882E+01
  0.00000000E+00  9.55249411E+00  9.55249411E+00 -1.91049882E+01  0.00000000E+00
  9.55249411E+00  9.55249411E+00 -1.91049882E+01  0.00000000E+00  9.55249411E+00
  9.55249411E+00 -1.91049882E+01  0.00000000E+00  9.55249411E+00  9.55249411E+00
 -1.91049882E+01  0.00000000E+00  9.55249411E+00  9.55249411E+00 -1.91049882E+01
  0.00000000E+00  9.55249411E+00  9.55249411E+00 -1.91049882E+01  0.00000000E+00
  9.55249411E+00  9.55249411E+00 -1.91049882E+01  0.00000000E+00  9.55249411E+00
  9.55249411E+00 -1.91049882E+01  0.00000000E+00  9.55249411E+00  9.55249411E+00
 -1.91049882E+01  0.00000000E+00  9.55249411E+00  9.55249411E+00 -1.91049882E+01
  0.00000000E+00  9.55249411E+00  9.55249411E+00 -1.91049882E+01  0.00000000E+00
  9.55249411E+00  9.55249411E+00 -1.91049882E+01  0.00000000E+00  9.55249411E+00
  9.55249411E+00 -1.91049882E+01  0.00000000E+00  9.55249411E+00  9.55249411E+00
 -1.91049882E+01  0.00000000E+00  9.55249411E+00  9.55249411E+00 -1.91049882E+01
  0.00000000E+00  9.55249411E+00  9.55249411E+00 -1.91049882E+01  0.00000000E+00
  9.55249411E+00  9.55249411E+00 -1.91049882E+01  0.00000000E+00  9.55249411E+00
  9.55249411E+00 -1.91049882E+01  0.00000000E+00  9.55249411E+00  9.55249411E+00
 -1.91049882E+01  0.00000000E+00  9.55249411E+00  9.55249411E+00 -1.91049882E+01
  0.00000000E+00  9.55249411E+00  9.55249411E+00 -1.91049882E+01  0.00000000E+00
  9.55249411E+00  9.55249411E+00 -1.91049882E+01  0.00000000E+00  9.55249411E+00
  9.55249411E+00 -1.91049882E+01  0.00000000E+00  9.55249411E+00  9.55249411E+00
 -1.91049882E+01  0.00000000E+00  9.55249411E+00  9.55249411E+00 -1.91049882E+01
  0.00000000E+00  9.55249411E+00  9.55249411E+00 -1.91049882E+01  0.00000000E+00
  9.55249411E+00  9.55249411E+00 -1.91049882E+01  0.00000000E+00  9.55249411E+00
  9.55249411E+00 -1.91049882E+01  0.00000000E+00  9.55249411E+00  9.55249411E+00
 -1.91049882E+01  0.00000000E+00  9.55249411E+00  9.55249411E+00 -1.91049882E+01
  0.00000000E+00  9.55249411E+00  9.55249411E+00 -1.91049882E+01  0.00000000E+00
  9.55249411E+00  9.55249411E+00 -1.91049882E+01  0.00000000E+00  9.55249411E+00
  9.55249411E+00 -1.91049882E+01  0.00000000E+00  9.55249411E+00  9.55249411E+00
 -1.91049882E+01  0.00000000E+00  9.55249411E+00  9.55249411E+00 -1.91049882E+01
  0.00000000E+00  9.55249411E+00  9.55249411E+00 -1.91049882E+01  0.00000000E+00
  9.55249411E+00  9.55249411E+00 -1.91049882E+01  0.00000000E+00  9.55249411E+00
  9.55249411E+00 -1.91049882E+01  0.00000000E+00  9.55249411E+00  9.55249411E+00
 -1.91049882E+01  0.00000000E+00  9.55249411E+00  9.55249411E+00 -1.91049882E+01
  0.00000000E+00  9.55249411E+00  9.55249411E+00 -1.91049882E+01  0.00000000E+00
  9.55249411E+00  9.55249411E+00 -1.91049882E+01  0.00000000E+00  9.55249411E+00
  9.55249411E+00 -1.91049882E+01  0.00000000E+00  9.55249411E+00  9.55249411E+00
 -1.91049882E+01  0.00000000E+00  9.55249411E+00  9.55249411E+00 -1.91049882E+01
  0.00000000E+00  9.55249411E+00  9.55249411E+00 -1.91049882E+01  0.00000000E+00
  9.55249411E+00  9.55249411E+00 -1.91049882E+01  0.00000000E+00  9.55249411E+00
  9.55249411E+00 -1.91049882E+01  0.00000000E+00  9.55249411E+00  9.55249411E+00
 -1.91049882E+01  0.00000000E+00  9.55249411E+00  9.55249411E+00 -1.91049882E+01
  0.00000000E+00  9.55249411E+00  9.55249411E+00 -1.91049882E+01  0.00000000E+00
  9.55249411E+00  9.55249411E+00 -1.91049882E+01  0.00000000E+00  9.55249411E+00
  9.55249411E+00 -1.91049882E+01  0.00000000E+00  9.55249411E+00  9.55249411E+00
 -1.91049882E+01  0.00000000E+00  9.55249411E+00  9.55249411E+00 -1.91049882E+01
  0.00000000E+00  9.55249411E+00  9.55249411E+00 -1.91049882E+01  0.00000000E+00
  9.55249411E+00  9.55249411E+00 -1.91049882E+01  0.00000000E+00  9.55249411E+00
  9.55249411E+00 -1.91049882E+01  0.00000000E+00  9.55249411E+00  9.55249411E+00
 -1.91049882E+01  0.00000000E+00  9.55249411E+00  9.55249411E+00 -1.91049882E+01
  0.00000000E+00  9.55249411E+00  9.55249411E+00 -1.91049882E+01  0.00000000E+00
  9.55249411E+00  9.55249411E+00 -1.91049882E+01  0.00000000E+00  9.55249411E+00
  9.55249411E+00 -1.91049882E+01  0.00000000E+00  9.55249411E+00  9.55249411E+00
 -1.91049882E+01  0.00000000E+00  9.55249411E+00  9.55249411E+00 -1.91049882E+01
  0.00000000E+00  9.55249411E+00  9.55249411E+00 -1.91049882E+01  0.00000000E+00
  9.55249411E+00  9.55249411E+00 -1.91049882E+01  0.00000000E+00  9.55249411E+00
  9.55249411E+00 -1.91049882E+01  0.00000000E+00  9.55249411E+00  9.55249411E+00
 -1.91049882E+01  0.00000000E+00  9.55249411E+00  9.55249411E+00 -1.91049882E+01
  0.00000000E+00  9.55249411E+00  9.55249411E+00 -1.91049882E+01  0.00000000E+00
  9.55249411E+00  9.55249411E+00 -1.91049882E+01  0.00000000E+00  9.55249411E+00
  9.55249411E+00 -1.91049882E+01  0.00000000E+00  9.55249411E+00  9.55249411E+00
 -1.91049882E+01  0.00000000E+00  9.55249411E+00  9.55249411E+00 -1.91049882E+01
  0.00000000E+00  9.55249411E+00  9.55249411E+00 -1.91049882E+01  0.00000000E+00
  9.55249411E+00  9.55249411E+00 -1.91049882E+01  0.00000000E+00  9.55249411E+00
  9.55249411E+00 -1.91049882E+01  0.00000000E+00  9.55249411E+00  9.55249411E+00
 -1.91049882E+01  0.00000000E+00  9.55249411E+00  9.55249411E+00 -1.91049882E+01
  0.00000000E+00  9.55249411E+00  9.55249411E+00 -1.91049882E+01  0.00000000E+00
  9.55249411E+00  9.55249411E+00 -1.91049882E+01  0.00000000E+00  9.55249411E+00
  9.55249411E+00 -1.91049882E+01  0.00000000E+00  9.55249411E+00  9.55249411E+00
 -1.91049882E+01  0.00000000E+00  9.55249411E+00  9.55249411E+00 -1.91049882E+01
  0.00000000E+00  9.55249411E+00  9.55249411E+00 -1.91049882E+01  0.00000000E+00
  9.55249411E+00  9.55249411E+00 -1.91049882E+01  0.00000000E+00  9.55249411E+00
  9.55249411E+00 -1.91049882E+01  0.00000000E+00  9.55249411E+00  9.55249411E+00
 -1.91049882E+01  0.00000000E+00  9.55249411E+00  9.55249411E+00 -1.91049882E+01
  0.00000000E+00  9.55249411E+00  9.55249411E+00 -1.91049882E+01  0.00000000E+00
  9.55249411E+00  9.55249411E+00 -1.91049882E+01  0.00000000E+00  9.55249411E+00
  9.55249411E+00 -1.91049882E+01  0.00000000E+00  9.55249411E+00  9.55249411E+00
 -1.91049882E+01  0.00000000E+00  9.55249411E+00  9.55249411E+00 -1.91049882E+01
  0.00000000E+00  9.55249411E+00  9.55249411E+00 -1.91049882E+01  0.00000000E+00
  9.55249411E+00  9.55249411E+00 -1.91049882E+01  0.00000000E+00  9.55249411E+00
  9.55249411E+00 -1.91049882E+01  0.00000000E+00  9.55249411E+00  9.55249411E+00
 -1.91049882E+01  0.00000000E+00  9.55249411E+00  9.55249411E+00 -1.91049882E+01
  0.00000000E+00  9.55249411E+00  9.55249411E+00 -1.91049882E+01  0.00000000E+00
  9.55249411E+00  9.55249411E+00 -1.91049882E+01  0.00000000E+00  9.55249411E+00
  9.55249411E+00 -1.91049882E+01  0.00000000E+00  9.55249411E+00  9.55249411E+00
 -1.91049882E+01  0.00000000E+00  9.55249411E+00  9.55249411E+00 -1.91049882E+01
  0.00000000E+00  9.55249411E+00  9.55249411E+00 -1.91049882E+01  0.00000000E+00
  9.55249411E+00  9.55249411E+00 -1.91049882E+01  0.00000000E+00  9.55249411E+00
  9.55249411E+00 -1.91049882E+01  0.00000000E+00  9.55249411E+00  9.55249411E+00
 -1.91049882E+01  0.00000000E+00  9.55249411E+00  9.55249411E+00 -1.91049882E+01
  0.00000000E+00  9.55249411E+00  9.55249411E+00 -1.91049882E+01  0.00000000E+00
  9.55249411E+00  9.55249411E+00 -1.91049882E+01  0.00000000E+00  9.55249411E+00
  9.55249411E+00 -1.91049882E+01  0.00000000E+00  9.55249411E+00  9.55249411E+00
 -1.91049882E+01  0.00000000E+00  9.55249411E+00  9.55249411E+00 -1.91049882E+01
  0.00000000E+00  9.55249411E+00  9.55249411E+00 -1.91049882E+01  0.00000000E+00
  9.55249411E+00  9.55249411E+00 -1.91049882E+01  0.00000000E+00  9.55249411E+00
  9.55249411E+00 -1.91049882E+01  0.00000000E+00  9.55249411E+00  9.55249411E+00
 -1.91049882E+01  0.00000000E+00  9.55249411E+00  9.55249411E+00 -1.91049882E+01
  0.00000000E+00  9.55249411E+00  9.55249411E+00 -1.91049882E+01  0.00000000E+00
  9.55249411E+00  9.55249411E+00 -1.91049882E+01  0.00000000E+00  9.55249411E+00
  9.55249411E+00 -1.91049882E+01  0.00000000E+00  9.55249411E+00  9.55249411E+00
 -1.91049882E+01  0.00000000E+00  9.55249411E+00  9.55249411E+00 -1.91049882E+01
  0.00000000E+00  9.55249411E+00  9.55249411E+00 -1.91049882E+01  0.00000000E+00
  9.55249411E+00  9.55249411E+00 -1.91049882E+01  0.00000000E+00  9.55249411E+00
  9.55249411E+00 -1.91049882E+01  0.00000000E+00  9.55249411E+00  9.55249411E+00
 -1.91049882E+01  0.00000000E+00  9.55249411E+00  9.55249411E+00 -1.91049882E+01
  0.00000000E+00  9.55249411E+00  9.55249411E+00 -1.91049882E+01  0.00000000E+00
  9.55249411E+00  9.55249411E+00 -1.91049882E+01  0.00000000E+00  9.55249411E+00
  9.55249411E+00 -1.91049882E+01  0.00000000E+00  9.55249411E+00  9.55249411E+00
 -1.91049882E+01  0.00000000E+00  9.55249411E+00  9.55249411E+00 -1.91049882E+01
  0.00000000E+00  9.55249411E+00  9.55249411E+00 -1.91049882E+01  0.00000000E+00
  9.55249411E+00  9.55249411E+00 -1.91049882E+01  0.00000000E+00  9.55249411E+00
  9.55249411E+00 -1.91049882E+01  0.00000000E+00  9.55249411E+00  9.55249411E+00
 -1.91049882E+01  0.00000000E+00  9.55249411E+00  9.55249411E+00 -1.91049882E+01
  0.00000000E+00  9.55249411E+00  9.55249411E+00 -1.91049882E+01  0.00000000E+00
  9.55249411E+00  9.55249411E+00 -1.91049882E+01  0.00000000E+00  9.55249411E+00
  9.55249411E+00 -1.91049882E+01  0.00000000E+00  9.55249411E+00  9.55249411E+00
 -1.91049882E+01  0.00000000E+00  9.55249411E+00  9.55249411E+00 -1.91049882E+01
  0.00000000E+00  9.55249411E+00  9.55249411E+00 -1.91049882E+01  0.00000000E+00
  9.55249411E+00  9.55249411E+00 -1.91049882E+01  0.00000000E+00  9.55249411E+00
  9.55249411E+00 -1.91049882E+01  0.00000000E+00  9.55249411E+00  9.55249411E+00
 -1.91049882E+01  0.00000000E+00  9.55249411E+00  9.55249411E+00 -1.91049882E+01
  0.00000000E+00  9.55249411E+00  9.55249411E+00 -1.91049882E+01  0.00000000E+00
  9.55249411E+00  9.55249411E+00 -1.91049882E+01  0.00000000E+00  9.55249411E+00
  9.55249411E+00 -1.91049882E+01  0.00000000E+00  9.55249411E+00  9.55249411E+00
 -1.91049882E+01  0.00000000E+00  9.55249411E+00  9.55249411E+00 -1.91049882E+01
  0.00000000E+00  9.55249411E+00  9.55249411E+00 -1.91049882E+01  0.00000000E+00
  9.55249411E+00  9.55249411E+00 -1.91049882E+01  0.00000000E+00  9.55249411E+00
  9.55249411E+00 -1.91049882E+01  0.00000000E+00  9.55249411E+00  9.55249411E+00
 -1.91049882E+01  0.00000000E+00  9.55249411E+00  9.55249411E+00 -1.91049882E+01
  0.00000000E+00  9.55249411E+00  9.55249411E+00 -1.91049882E+01  0.00000000E+00
  9.55249411E+00  9.55249411E+00 -1.91049882E+01  0.00000000E+00  9.55249411E+00
  9.55249411E+00 -1.91049882E+01  0.00000000E+00  9.55249411E+00  9.55249411E+00
 -1.91049882E+01  0.00000000E+00  9.55249411E+00  9.55249411E+00 -1.91049882E+01
  0.00000000E+00  9.55249411E+00  9.55249411E+00 -1.91049882E+01  0.00000000E+00
  9.55249411E+00  9.55249411E+00 -1.91049882E+01  0.00000000E+00  9.55249411E+00
  9.55249411E+00 -1.91049882E+01  0.00000000E+00  9.55249411E+00  9.55249411E+00
 -1.91049882E+01  0.00000000E+00  9.55249411E+00  9.55249411E+00 -1.91049882E+01
  0.00000000E+00  9.55249411E+00  9.55249411E+00 -1.91049882E+01  0.00000000E+00
  9.55249411E+00  9.55249411E+00 -1.91049882E+01  0.00000000E+00  9.55249411E+00
  9.55249411E+00 -1.91049882E+01  0.00000000E+00  9.55249411E+00  9.55249411E+00
 -1.91049882E+01  0.00000000E+00  9.55249411E+00  9.55249411E+00 -1.91049882E+01
  0.00000000E+00  9.55249411E+00  9.55249411E+00 -1.91049882E+01  0.00000000E+00
  9.55249411E+00  9.55249411E+00 -1.91049882E+01  0.00000000E+00  9.55249411E+00
  9.55249411E+00 -1.91049882E+01  0.00000000E+00  9.55249411E+00  9.55249411E+00
 -1.91049882E+01  0.00000000E+00  9.55249411E+00  9.55249411E+00 -1.91049882E+01
  0.00000000E+00  9.55249411E+00  9.55249411E+00 -1.91049882E+01  0.00000000E+00
  9.55249411E+00  9.55249411E+00 -1.91049882E+01  0.00000000E+00  9.55249411E+00
  9.55249411E+00 -1.91049882E+01  0.00000000E+00  9.55249411E+00  9.55249411E+00
 -1.91049882E+01  0.00000000E+00  9.55249411E+00  9.55249411E+00 -1.91049882E+01
  0.00000000E+00  9.55249411E+00  9.55249411E+00 -1.91049882E+01  0.00000000E+00
  9.55249411E+00  9.55249411E+00 -1.91049882E+01  0.00000000E+00  9.55249411E+00
  9.55249411E+00 -1.91049882E+01  0.00000000E+00  9.55249411E+00  9.55249411E+00
 -1.91049882E+01  0.00000000E+00  9.55249411E+00  9.55249411E+00 -1.91049882E+01
  0.00000000E+00  9.55249411E+00  9.55249411E+00 -1.91049882E+01  0.00000000E+00
  9.55249411E+00  9.55249411E+00 -1.91049882E+01  0.00000000E+00  9.55249411E+00
  9.55249411E+00 -1.91049882E+01  0.00000000E+00  9.55249411E+00  9.55249411E+00
 -1.91049882E+01  0.00000000E+00  9.55249411E+00  9.55249411E+00 -1.91049882E+01
  0.00000000E+00  9.55249411E+00  9.55249411E+00 -1.91049882E+01  0.00000000E+00
  9.55249411E+00  9.55249411E+00 -1.91049882E+01  0.00000000E+00  9.55249411E+00
  9.55249411E+00 -1.91049882E+01  0.00000000E+00  9.55249411E+00  9.55249411E+00
 -1.91049882E+01  0.00000000E+00  9.55249411E+00  9.55249411E+00 -1.91049882E+01
  0.00000000E+00  9.55249411E+00  9.55249411E+00 -1.91049882E+01  0.00000000E+00
  9.55249411E+00  9.55249411E+00 -1.91049882E+01  0.00000000E+00  9.55249411E+00
  9.55249411E+00 -1.91049882E+01  0.00000000E+00  9.55249411E+00  9.55249411E+00
 -1.91049882E+01  0.00000000E+00  9.55249411E+00  9.55249411E+00 -1.91049882E+01
  0.00000000E+00  9.55249411E+00  9.55249411E+00 -1.91049882E+01  0.00000000E+00
  9.55249411E+00  9.55249411E+00 -1.91049882E+01  0.00000000E+00  9.55249411E+00
  9.55249411E+00 -1.91049882E+01  0.00000000E+00  9.55249411E+00  9.55249411E+00
 -1.91049882E+01  0.00000000E+00  9.55249411E+00  9.55249411E+00 -1.91049882E+01
  0.00000000E+00  9.55249411E+00  9.55249411E+00 -1.91049882E+01  0.00000000E+00
  9.55249411E+00  9.55249411E+00 -1.91049882E+01  0.00000000E+00  9.55249411E+00
  9.55249411E+00 -1.91049882E+01  0.00000000E+00  9.55249411E+00  9.55249411E+00
 -1.91049882E+01  0.00000000E+00  9.55249411E+00  9.55249411E+00 -1.91049882E+01
  0.00000000E+00  9.55249411E+00  9.55249411E+00 -1.91049882E+01  0.00000000E+00
  9.55249411E+00  9.55249411E+00 -1.91049882E+01  0.00000000E+00  9.55249411E+00
  9.55249411E+00 -1.91049882E+01  0.00000000E+00  9.55249411E+00  9.55249411E+00
 -1.91049882E+01  0.00000000E+00  9.55249411E+00  9.55249411E+00 -1.91049882E+01
  0.00000000E+00  9.55249411E+00  9.55249411E+00 -1.91049882E+01  0.00000000E+00
  9.55249411E+00  9.55249411E+00 -1.91049882E+01  0.00000000E+00  9.55249411E+00
  9.55249411E+00 -1.91049882E+01  0.00000000E+00  9.55249411E+00  9.55249411E+00
 -1.91049882E+01  0.00000000E+00  9.55249411E+00  9.55249411E+00 -1.91049882E+01
  0.00000000E+00  9.55249411E+00  9.55249411E+00 -1.91049882E+01  0.00000000E+00
  9.55249411E+00  9.55249411E+00 -1.91049882E+01  0.00000000E+00  9.55249411E+00
  9.55249411E+00 -1.91049882E+01  0.00000000E+00  9.55249411E+00  9.55249411E+00
 -1.91049882E+01  0.00000000E+00  9.55249411E+00  9.55249411E+00 -1.91049882E+01
  0.00000000E+00  9.55249411E+00  9.55249411E+00 -1.91049882E+01  0.00000000E+00
  9.55249411E+00  9.55249411E+00 -1.91049882E+01  0.00000000E+00  9.55249411E+00
  9.55249411E+00 -1.91049882E+01  0.00000000E+00  9.55249411E+00  9.55249411E+00
 -1.91049882E+01  0.00000000E+00  9.55249411E+00  9.55249411E+00 -1.91049882E+01
  0.00000000E+00  9.55249411E+00  9.55249411E+00 -1.91049882E+01  0.00000000E+00
  9.55249411E+00  9.55249411E+00 -1.91049882E+01  0.00000000E+00  9.55249411E+00
  9.55249411E+00 -1.91049882E+01  0.00000000E+00  9.55249411E+00  9.55249411E+00
 -1.91049882E+01  0.00000000E+00  9.55249411E+00  9.55249411E+00 -1.91049882E+01
  0.00000000E+00  9.55249411E+00  9.55249411E+00 -1.91049882E+01  0.00000000E+00
  9.55249411E+00  9.55249411E+00 -1.91049882E+01  0.00000000E+00  9.55249411E+00
  9.55249411E+00 -1.91049882E+01  0.00000000E+00  9.55249411E+00  9.55249411E+00
 -1.91049882E+01  0.00000000E+00  9.55249411E+00  9.55249411E+00 -1.91049882E+01
  0.00000000E+00  9.55249411E+00  9.55249411E+00 -1.91049882E+01  0.00000000E+00
  9.55249411E+00  9.55249411E+00 -1.91049882E+01  0.00000000E+00  9.55249411E+00
  9.55249411E+00 -1.91049882E+01  0.00000000E+00  9.55249411E+00  9.55249411E+00
 -1.91049882E+01  0.00000000E+00  9.55249411E+00  9.55249411E+00 -1.91049882E+01
  0.00000000E+00  9.55249411E+00  9.55249411E+00 -1.91049882E+01  0.00000000E+00
  9.55249411E+00  9.55249411E+00 -1.91049882E+01  0.00000000E+00  9.55249411E+00
  9.55249411E+00 -1.91049882E+01  0.00000000E+00  9.55249411E+00  9.55249411E+00
 -1.91049882E+01  0.00000000E+00  9.55249411E+00  9.55249411E+00 -1.91049882E+01
  0.00000000E+00  9.55249411E+00  9.55249411E+00 -1.91049882E+01  0.00000000E+00
  9.55249411E+00  9.55249411E+00 -1.91049882E+01  0.00000000E+00  9.55249411E+00
  9.55249411E+00 -1.91049882E+01  0.00000000E+00  9.55249411E+00  9.55249411E+00
 -1.91049882E+01  0.00000000E+00  9.55249411E+00  9.55249411E+00 -1.91049882E+01
  0.00000000E+00  9.55249411E+00  9.55249411E+00 -1.91049882E+01  0.00000000E+00
  9.55249411E+00  9.55249411E+00 -1.91049882E+01  0.00000000E+00  9.55249411E+00
  9.55249411E+00 -1.91049882E+01  0.00000000E+00  9.55249411E+00  9.55249411E+00
 -1.91049882E+01  0.00000000E+00  9.55249411E+00  9.55249411E+00 -1.91049882E+01
  0.00000000E+00  9.55249411E+00  9.55249411E+00 -1.91049882E+01  0.00000000E+00
  9.55249411E+00  9.55249411E+00 -1.91049882E+01  0.00000000E+00  9.55249411E+00
  9.55249411E+00 -1.91049882E+01  0.00000000E+00  9.55249411E+00  9.55249411E+00
 -1.91049882E+01  0.00000000E+00  9.55249411E+00  9.55249411E+00 -1.91049882E+01
  0.00000000E+00  9.55249411E+00  9.55249411E+00 -1.91049882E+01  0.00000000E+00
  9.55249411E+00  9.55249411E+00 -1.91049882E+01  0.00000000E+00  9.55249411E+00
  9.55249411E+00 -1.91049882E+01  0.00000000E+00  9.55249411E+00  9.55249411E+00
 -1.91049882E+01  0.00000000E+00  9.55249411E+00  9.55249411E+00 -1.91049882E+01
  0.00000000E+00  9.55249411E+00  9.55249411E+00 -1.91049882E+01  0.00000000E+00
  9.55249411E+00  9.55249411E+00 -1.91049882E+01  0.00000000E+00  9.55249411E+00
  9.55249411E+00 -1.91049882E+01  0.00000000E+00  9.55249411E+00  9.55249411E+00
 -1.91049882E+01  0.00000000E+00  9.55249411E+00  9.55249411E+00 -1.91049882E+01
  0.00000000E+00  9.55249411E+00  9.55249411E+00 -1.91049882E+01  0.00000000E+00
  9.55249411E+00  9.55249411E+00 -1.91049882E+01  0.00000000E+00  9.55249411E+00
  9.55249411E+00 -1.91049882E+01  0.00000000E+00  9.55249411E+00  9.55249411E+00
 -1.91049882E+01  0.00000000E+00  9.55249411E+00  9.55249411E+00 -1.91049882E+01
  0.00000000E+00  9.55249411E+00  9.55249411E+00 -1.91049882E+01  0.00000000E+00
  9.55249411E+00  9.55249411E+00 -1.91049882E+01  0.00000000E+00  9.55249411E+00
  9.55249411E+00 -1.91049882E+01  0.00000000E+00  9.55249411E+00  9.55249411E+00
 -1.91049882E+01  0.00000000E+00  9.55249411E+00  9.55249411E+00 -1.91049882E+01
  0.00000000E+00  9.55249411E+00  9.55249411E+00 -1.91049882E+01  0.00000000E+00
  9.55249411E+00  9.55249411E+00 -1.91049882E+01  0.00000000E+00  9.55249411E+00
  9.55249411E+00 -1.91049882E+01  0.00000000E+00  9.55249411E+00  9.55249411E+00
 -1.91049882E+01  0.00000000E+00  9.55249411E+00  9.55249411E+00 -1.91049882E+01
  0.00000000E+00  9.55249411E+00  9.55249411E+00 -1.91049882E+01  0.00000000E+00
  9.55249411E+00  9.55249411E+00 -1.91049882E+01  0.00000000E+00  9.55249411E+00
  9.55249411E+00 -1.91049882E+01  0.00000000E+00  9.55249411E+00  9.55249411E+00
 -1.91049882E+01  0.00000000E+00  9.55249411E+00  9.55249411E+00 -1.91049882E+01
  0.00000000E+00  9.55249411E+00  9.55249411E+00 -1.91049882E+01  0.00000000E+00
  9.55249411E+00  9.55249411E+00 -1.91049882E+01  0.00000000E+00  9.55249411E+00
  9.55249411E+00 -1.91049882E+01  0.00000000E+00  9.55249411E+00  9.55249411E+00
 -1.91049882E+01  0.00000000E+00  9.55249411E+00  9.55249411E+00 -1.91049882E+01
  0.00000000E+00  9.55249411E+00  9.55249411E+00 -1.91049882E+01  0.00000000E+00
  9.55249411E+00  9.55249411E+00 -1.91049882E+01  0.00000000E+00  9.55249411E+00
  9.55249411E+00 -1.91049882E+01  0.00000000E+00  9.55249411E+00  9.55249411E+00
 -1.91049882E+01  0.00000000E+00  9.55249411E+00  9.55249411E+00 -1.91049882E+01
  0.00000000E+00  9.55249411E+00  9.55249411E+00 -1.91049882E+01  0.00000000E+00
  9.55249411E+00  9.55249411E+00 -1.91049882E+01  0.00000000E+00  9.55249411E+00
  9.55249411E+00 -1.91049882E+01  0.00000000E+00  9.55249411E+00  9.55249411E+00
 -1.91049882E+01  0.00000000E+00  9.55249411E+00  9.55249411E+00 -1.91049882E+01
  0.00000000E+00  9.55249411E+00  9.55249411E+00 -1.91049882E+01  0.00000000E+00
  9.55249411E+00  9.55249411E+00 -1.91049882E+01  0.00000000E+00  9.55249411E+00
  9.55249411E+00 -1.91049882E+01  0.00000000E+00  9.55249411E+00  9.55249411E+00
 -1.91049882E+01  0.00000000E+00  9.55249411E+00  9.55249411E+00 -1.91049882E+01
  0.00000000E+00  9.55249411E+00  9.55249411E+00 -1.91049882E+01  0.00000000E+00
  9.55249411E+00  9.55249411E+00 -1.91049882E+01  0.00000000E+00  9.55249411E+00
  9.55249411E+00 -1.91049882E+01  0.00000000E+00  9.55249411E+00  9.55249411E+00
 -1.91049882E+01  0.00000000E+00  9.55249411E+00  9.55249411E+00 -1.91049882E+01
  0.00000000E+00  9.55249411E+00  9.55249411E+00 -1.91049882E+01  0.00000000E+00
  9.55249411E+00  9.55249411E+00 -1.91049882E+01  0.00000000E+00  9.55249411E+00
  9.55249411E+00 -1.91049882E+01  0.00000000E+00  9.55249411E+00  9.55249411E+00
 -1.91049882E+01  0.00000000E+00  9.55249411E+00  9.55249411E+00 -1.91049882E+01
  0.00000000E+00  9.55249411E+00  9.55249411E+00 -1.91049882E+01  0.00000000E+00
  9.55249411E+00  9.55249411E+00 -1.91049882E+01  0.00000000E+00  9.55249411E+00
  9.55249411E+00 -1.91049882E+01  0.00000000E+00  9.55249411E+00  9.55249411E+00
 -1.91049882E+01  0.00000000E+00  9.55249411E+00  9.55249411E+00 -1.91049882E+01
  0.00000000E+00  9.55249411E+00  9.55249411E+00 -1.91049882E+01  0.00000000E+00
  9.55249411E+00  9.55249411E+00 -1.91049882E+01  0.00000000E+00  9.55249411E+00
  9.55249411E+00 -1.91049882E+01  0.00000000E+00  9.55249411E+00  9.55249411E+00
 -1.91049882E+01  0.00000000E+00  9.55249411E+00  9.55249411E+00 -1.91049882E+01
  0.00000000E+00  9.55249411E+00  9.55249411E+00 -1.91049882E+01  0.00000000E+00
  9.55249411E+00  9.55249411E+00 -1.91049882E+01  0.00000000E+00  9.55249411E+00
  9.55249411E+00 -1.91049882E+01  0.00000000E+00  9.55249411E+00  9.55249411E+00
 -1.91049882E+01  0.00000000E+00  9.55249411E+00  9.55249411E+00 -1.91049882E+01
  0.00000000E+00  9.55249411E+00  9.55249411E+00 -1.91049882E+01  0.00000000E+00
  9.55249411E+00  9.55249411E+00 -1.91049882E+01  0.00000000E+00  9.55249411E+00
  9.55249411E+00 -1.91049882E+01  0.00000000E+00  9.55249411E+00  9.55249411E+00
 -1.91049882E+01  0.00000000E+00  9.55249411E+00  9.55249411E+00 -1.91049882E+01
  0.00000000E+00  9.55249411E+00  9.55249411E+00 -1.91049882E+01  0.00000000E+00
  9.55249411E+00  9.55249411E+00 -1.91049882E+01  0.00000000E+00  9.55249411E+00
  9.55249411E+00 -1.91049882E+01  0.00000000E+00  9.55249411E+00  9.55249411E+00
 -1.91049882E+01  0.00000000E+00  9.55249411E+00  9.55249411E+00 -1.91049882E+01
  0.00000000E+00  9.55249411E+00  9.55249411E+00 -1.91049882E+01  0.00000000E+00
  9.55249411E+00  9.55249411E+00 -1.91049882E+01  0.00000000E+00  9.55249411E+00
  9.55249411E+00 -1.91049882E+01  0.00000000E+00  9.55249411E+00  9.55249411E+00
 -1.91049882E+01  0.00000000E+00  9.55249411E+00  9.55249411E+00 -1.91049882E+01
  0.00000000E+00  9.55249411E+00  9.55249411E+00 -1.91049882E+01  0.00000000E+00
  9.55249411E+00  9.55249411E+00 -1.91049882E+01  0.00000000E+00  9.55249411E+00
  9.55249411E+00 -1.91049882E+01  0.00000000E+00  9.55249411E+00  9.55249411E+00
 -1.91049882E+01  0.00000000E+00  9.55249411E+00  9.55249411E+00 -1.91049882E+01
  0.00000000E+00  9.55249411E+00  9.55249411E+00 -1.91049882E+01  0.00000000E+00
  9.55249411E+00  9.55249411E+00 -1.91049882E+01  0.00000000E+00  9.55249411E+00
  9.55249411E+00 -1.91049882E+01  0.00000000E+00  9.55249411E+00  9.55249411E+00
 -1.91049882E+01  0.00000000E+00  9.55249411E+00  9.55249411E+00 -1.91049882E+01
  0.00000000E+00  9.55249411E+00  9.55249411E+00 -1.91049882E+01  0.00000000E+00
  9.55249411E+00  9.55249411E+00 -1.91049882E+01  0.00000000E+00  9.55249411E+00
  9.55249411E+00 -1.91049882E+01  0.00000000E+00  9.55249411E+00  9.55249411E+00
 -1.91049882E+01  0.00000000E+00  9.55249411E+00  9.55249411E+00 -1.91049882E+01
  0.00000000E+00  9.55249411E+00  9.55249411E+00 -1.91049882E+01  0.00000000E+00
  9.55249411E+00  9.55249411E+00 -1.91049882E+01  0.00000000E+00  9.55249411E+00
  9.55249411E+00 -1.91049882E+01  0.00000000E+00  9.55249411E+00  9.55249411E+00
 -1.91049882E+01  0.00000000E+00  9.55249411E+00  9.55249411E+00 -1.91049882E+01
  0.00000000E+00  9.55249411E+00  9.55249411E+00 -1.91049882E+01  0.00000000E+00
  9.55249411E+00  9.55249411E+00 -1.91049882E+01  0.00000000E+00  9.55249411E+00
  9.55249411E+00 -1.91049882E+01  0.00000000E+00  9.55249411E+00  9.55249411E+00
 -1.91049882E+01  0.00000000E+00  9.55249411E+00  9.55249411E+00 -1.91049882E+01
  0.00000000E+00  9.55249411E+00  9.55249411E+00 -1.91049882E+01  0.00000000E+00
  9.55249411E+00  9.55249411E+00 -1.91049882E+01  0.00000000E+00  9.55249411E+00
  9.55249411E+00 -1.91049882E+01  0.00000000E+00  9.55249411E+00  9.55249411E+00
 -1.91049882E+01  0.00000000E+00  9.55249411E+00  9.55249411E+00 -1.91049882E+01
  0.00000000E+00  9.55249411E+00  9.55249411E+00 -1.91049882E+01  0.00000000E+00
  9.55249411E+00  9.55249411E+00 -1.91049882E+01  0.00000000E+00  9.55249411E+00
  9.55249411E+00 -1.91049882E+01  0.00000000E+00  9.55249411E+00  9.55249411E+00
 -1.91049882E+01  0.00000000E+00  9.55249411E+00  9.55249411E+00 -1.91049882E+01
  0.00000000E+00  9.55249411E+00  9.55249411E+00 -1.91049882E+01  0.00000000E+00
  9.55249411E+00  9.55249411E+00 -1.91049882E+01  0.00000000E+00  9.55249411E+00
  9.55249411E+00 -1.91049882E+01  0.00000000E+00  9.55249411E+00  9.55249411E+00
 -1.91049882E+01  0.00000000E+00  9.55249411E+00  9.55249411E+00 -1.91049882E+01
  0.00000000E+00  9.55249411E+00  9.55249411E+00 -1.91049882E+01  0.00000000E+00
  9.55249411E+00  9.55249411E+00 -1.91049882E+01  0.00000000E+00  9.55249411E+00
  9.55249411E+00 -1.91049882E+01  0.00000000E+00  9.55249411E+00  9.55249411E+00
 -1.91049882E+01  0.00000000E+00  9.55249411E+00  9.55249411E+00 -1.91049882E+01
  0.00000000E+00  9.55249411E+00  9.55249411E+00 -1.91049882E+01  0.00000000E+00
  9.55249411E+00  9.55249411E+00 -1.91049882E+01  0.00000000E+00  9.55249411E+00
  9.55249411E+00 -1.91049882E+01  0.00000000E+00  9.55249411E+00  9.55249411E+00
 -1.91049882E+01  0.00000000E+00  9.55249411E+00  9.55249411E+00 -1.91049882E+01
  0.00000000E+00  9.55249411E+00  9.55249411E+00 -1.91049882E+01  0.00000000E+00
  9.55249411E+00  9.55249411E+00 -1.91049882E+01  0.00000000E+00  9.55249411E+00
  9.55249411E+00 -1.91049882E+01  0.00000000E+00  9.55249411E+00  9.55249411E+00
 -1.91049882E+01  0.00000000E+00  9.55249411E+00  9.55249411E+00 -1.91049882E+01
  0.00000000E+00  9.55249411E+00  9.55249411E+00 -1.91049882E+01  0.00000000E+00
  9.55249411E+00  9.55249411E+00 -1.91049882E+01  0.00000000E+00  9.55249411E+00
  9.55249411E+00 -1.91049882E+01  0.00000000E+00  9.55249411E+00  9.55249411E+00
 -1.91049882E+01  0.00000000E+00  9.55249411E+00  9.55249411E+00 -1.91049882E+01
  0.00000000E+00  9.55249411E+00  9.55249411E+00 -1.91049882E+01  0.00000000E+00
  9.55249411E+00  9.55249411E+00 -1.91049882E+01  0.00000000E+00  9.55249411E+00
  9.55249411E+00 -1.91049882E+01  0.00000000E+00  9.55249411E+00  9.55249411E+00
 -1.91049882E+01  0.00000000E+00  9.55249411E+00  9.55249411E+00 -1.91049882E+01
  0.00000000E+00  9.55249411E+00  9.55249411E+00 -1.91049882E+01  0.00000000E+00
  9.55249411E+00  9.55249411E+00 -1.91049882E+01  0.00000000E+00  9.55249411E+00
  9.55249411E+00 -1.91049882E+01  0.00000000E+00  9.55249411E+00  9.55249411E+00
 -1.91049882E+01  0.00000000E+00  9.55249411E+00  9.55249411E+00 -1.91049882E+01
  0.00000000E+00  9.55249411E+00  9.55249411E+00 -1.91049882E+01  0.00000000E+00
  9.55249411E+00  9.55249411E+00 -1.91049882E+01  0.00000000E+00  9.55249411E+00
  9.55249411E+00 -1.91049882E+01  0.00000000E+00  9.55249411E+00  9.55249411E+00
 -1.91049882E+01  0.00000000E+00  9.55249411E+00  9.55249411E+00 -1.91049882E+01
  0.00000000E+00  9.55249411E+00  9.55249411E+00 -1.91049882E+01  0.00000000E+00
  9.55249411E+00  9.55249411E+00 -1.91049882E+01  0.00000000E+00  9.55249411E+00
  9.55249411E+00 -1.91049882E+01  0.00000000E+00  9.55249411E+00  9.55249411E+00
 -1.91049882E+01  0.00000000E+00  9.55249411E+00  9.55249411E+00 -1.91049882E+01
  0.00000000E+00  9.55249411E+00  9.55249411E+00 -1.91049882E+01  0.00000000E+00
  9.55249411E+00  9.55249411E+00 -1.91049882E+01  0.00000000E+00  9.55249411E+00
  9.55249411E+00 -1.91049882E+01  0.00000000E+00  9.55249411E+00  9.55249411E+00
 -1.91049882E+01  0.00000000E+00  9.55249411E+00  9.55249411E+00 -1.91049882E+01
  0.00000000E+00  9.55249411E+00  9.55249411E+00 -1.91049882E+01  0.00000000E+00
  9.55249411E+00  9.55249411E+00 -1.91049882E+01  0.00000000E+00  9.55249411E+00
  9.55249411E+00 -1.91049882E+01  0.00000000E+00  9.55249411E+00  9.55249411E+00
 -1.91049882E+01  0.00000000E+00  9.55249411E+00  9.55249411E+00 -1.91049882E+01
  0.00000000E+00  9.55249411E+00  9.55249411E+00 -1.91049882E+01  0.00000000E+00
  9.55249411E+00  9.55249411E+00 -1.91049882E+01  0.00000000E+00  9.55249411E+00
  9.55249411E+00 -1.91049882E+01  0.00000000E+00  9.55249411E+00  9.55249411E+00
 -1.91049882E+01  0.00000000E+00  9.55249411E+00  9.55249411E+00 -1.91049882E+01
  0.00000000E+00  9.55249411E+00  9.55249411E+00 -1.91049882E+01  0.00000000E+00
  9.55249411E+00  9.55249411E+00 -1.91049882E+01  0.00000000E+00  9.55249411E+00
  9.55249411E+00 -1.91049882E+01  0.00000000E+00  9.55249411E+00  9.55249411E+00
 -1.91049882E+01  0.00000000E+00  9.55249411E+00  9.55249411E+00 -1.91049882E+01
  0.00000000E+00  9.55249411E+00  9.55249411E+00 -1.91049882E+01  0.00000000E+00
  9.55249411E+00  9.55249411E+00 -1.91049882E+01  0.00000000E+00  9.55249411E+00
  9.55249411E+00 -1.91049882E+01  0.00000000E+00  9.55249411E+00  9.55249411E+00
 -1.91049882E+01  0.00000000E+00  9.55249411E+00  9.55249411E+00 -1.91049882E+01
  0.00000000E+00  9.55249411E+00  9.55249411E+00 -1.91049882E+01  0.00000000E+00
  9.55249411E+00  9.55249411E+00 -1.91049882E+01  0.00000000E+00  9.55249411E+00
  9.55249411E+00 -1.91049882E+01  0.00000000E+00  9.55249411E+00  9.55249411E+00
 -1.91049882E+01  0.00000000E+00  9.55249411E+00  9.55249411E+00 -1.91049882E+01
  0.00000000E+00  9.55249411E+00  9.55249411E+00 -1.91049882E+01  0.00000000E+00
  9.55249411E+00  9.55249411E+00 -1.91049882E+01  0.00000000E+00  9.55249411E+00
  9.55249411E+00 -1.91049882E+01  0.00000000E+00  9.55249411E+00  9.55249411E+00
 -1.91049882E+01  0.00000000E+00  9.55249411E+00  9.55249411E+00 -1.91049882E+01
  0.00000000E+00  9.55249411E+00  9.55249411E+00 -1.91049882E+01  0.00000000E+00
  9.55249411E+00  9.55249411E+00 -1.91049882E+01  0.00000000E+00  9.55249411E+00
  9.55249411E+00 -1.91049882E+01  0.00000000E+00  9.55249411E+00  9.55249411E+00
 -1.91049882E+01  0.00000000E+00  9.55249411E+00  9.55249411E+00 -1.91049882E+01
  0.00000000E+00  9.55249411E+00  9.55249411E+00 -1.91049882E+01  0.00000000E+00
  9.55249411E+00  9.55249411E+00 -1.91049882E+01  0.00000000E+00  9.55249411E+00
  9.55249411E+00 -1.91049882E+01  0.00000000E+00  9.55249411E+00  9.55249411E+00
 -1.91049882E+01  0.00000000E+00  9.55249411E+00  9.55249411E+00 -1.91049882E+01
  0.00000000E+00  9.55249411E+00  9.55249411E+00 -1.91049882E+01  0.00000000E+00
  9.55249411E+00  9.55249411E+00 -1.91049882E+01  0.00000000E+00  9.55249411E+00
  9.55249411E+00 -1.91049882E+01  0.00000000E+00  9.55249411E+00  9.55249411E+00
 -1.91049882E+01  0.00000000E+00  9.55249411E+00  9.55249411E+00 -1.91049882E+01
  0.00000000E+00  9.55249411E+00  9.55249411E+00 -1.91049882E+01  0.00000000E+00
  9.55249411E+00  9.55249411E+00 -1.91049882E+01  0.00000000E+00  9.55249411E+00
  9.55249411E+00 -1.91049882E+01  0.00000000E+00  9.55249411E+00  9.55249411E+00
 -1.91049882E+01  0.00000000E+00  9.55249411E+00  9.55249411E+00 -1.91049882E+01
  0.00000000E+00  9.55249411E+00  9.55249411E+00 -1.91049882E+01  0.00000000E+00
  9.55249411E+00  9.55249411E+00 -1.91049882E+01  0.00000000E+00  9.55249411E+00
  9.55249411E+00 -1.91049882E+01  0.00000000E+00  9.55249411E+00  9.55249411E+00
 -1.91049882E+01  0.00000000E+00  9.55249411E+00  9.55249411E+00 -1.91049882E+01
  0.00000000E+00  9.55249411E+00  9.55249411E+00 -1.91049882E+01  0.00000000E+00
  9.55249411E+00  9.55249411E+00 -1.91049882E+01  0.00000000E+00  9.55249411E+00
  9.55249411E+00 -1.91049882E+01  0.00000000E+00  9.55249411E+00  9.55249411E+00
 -1.91049882E+01  0.00000000E+00  9.55249411E+00  9.55249411E+00 -1.91049882E+01
  0.00000000E+00  9.55249411E+00  9.55249411E+00 -1.91049882E+01  0.00000000E+00
  9.55249411E+00  9.55249411E+00 -1.91049882E+01  0.00000000E+00  9.55249411E+00
  9.55249411E+00 -1.91049882E+01  0.00000000E+00  9.55249411E+00  9.55249411E+00
 -1.91049882E+01  0.00000000E+00  9.55249411E+00  9.55249411E+00 -1.91049882E+01
  0.00000000E+00  9.55249411E+00  9.55249411E+00 -1.91049882E+01  0.00000000E+00
  9.55249411E+00  9.55249411E+00 -1.91049882E+01  0.00000000E+00  9.55249411E+00
  9.55249411E+00 -1.91049882E+01  0.00000000E+00  9.55249411E+00  9.55249411E+00
 -1.91049882E+01  0.00000000E+00  9.55249411E+00  9.55249411E+00 -1.91049882E+01
  0.00000000E+00  9.55249411E+00  9.55249411E+00 -1.91049882E+01  0.00000000E+00
  9.55249411E+00  9.55249411E+00 -1.91049882E+01  0.00000000E+00  9.55249411E+00
  9.55249411E+00 -1.91049882E+01  0.00000000E+00  9.55249411E+00  9.55249411E+00
 -1.91049882E+01  0.00000000E+00  9.55249411E+00  9.55249411E+00 -1.91049882E+01
  0.00000000E+00  9.55249411E+00  9.55249411E+00 -1.91049882E+01  0.00000000E+00
  9.55249411E+00  9.55249411E+00 -1.91049882E+01  0.00000000E+00  9.55249411E+00
  9.55249411E+00 -1.91049882E+01  0.00000000E+00  9.55249411E+00  9.55249411E+00
 -1.91049882E+01  0.00000000E+00  9.55249411E+00  9.55249411E+00 -1.91049882E+01
  0.00000000E+00  9.55249411E+00  9.55249411E+00 -1.91049882E+01  0.00000000E+00
  9.55249411E+00  9.55249411E+00 -1.91049882E+01  0.00000000E+00  9.55249411E+00
  9.55249411E+00 -1.91049882E+01  0.00000000E+00  9.55249411E+00  9.55249411E+00
 -1.91049882E+01  0.00000000E+00  9.55249411E+00  9.55249411E+00 -1.91049882E+01
  0.00000000E+00  9.55249411E+00  9.55249411E+00 -1.91049882E+01  0.00000000E+00
  9.55249411E+00  9.55249411E+00 -1.91049882E+01  0.00000000E+00  9.55249411E+00
  9.55249411E+00 -1.91049882E+01  0.00000000E+00  9.55249411E+00  9.55249411E+00
 -1.91049882E+01  0.00000000E+00  9.55249411E+00  9.55249411E+00 -1.91049882E+01
  0.00000000E+00  9.55249411E+00  9.55249411E+00 -1.91049882E+01  0.00000000E+00
  9.55249411E+00  9.55249411E+00 -1.91049882E+01  0.00000000E+00  9.55249411E+00
  9.55249411E+00 -1.91049882E+01  0.00000000E+00  9.55249411E+00  9.55249411E+00
 -1.91049882E+01  0.00000000E+00  9.55249411E+00  9.55249411E+00 -1.91049882E+01
  0.00000000E+00  9.55249411E+00  9.55249411E+00 -1.91049882E+01  0.00000000E+00
  9.55249411E+00  9.55249411E+00 -1.91049882E+01  0.00000000E+00  9.55249411E+00
  9.55249411E+00 -1.91049882E+01  0.00000000E+00  9.55249411E+00  9.55249411E+00
 -1.91049882E+01  0.00000000E+00  9.55249411E+00  9.55249411E+00 -1.91049882E+01
  0.00000000E+00  9.55249411E+00  9.55249411E+00 -1.91049882E+01  0.00000000E+00
  9.55249411E+00  9.55249411E+00 -1.91049882E+01  0.00000000E+00  9.55249411E+00
  9.55249411E+00 -1.91049882E+01  0.00000000E+00  9.55249411E+00  9.55249411E+00
 -1.91049882E+01  0.00000000E+00  9.55249411E+00  9.55249411E+00 -1.91049882E+01
  0.00000000E+00  9.55249411E+00  9.55249411E+00 -1.91049882E+01  0.00000000E+00
  9.55249411E+00  9.55249411E+00 -1.91049882E+01  0.00000000E+00  9.55249411E+00
  9.55249411E+00 -1.91049882E+01  0.00000000E+00  9.55249411E+00  9.55249411E+00
 -1.91049882E+01  0.00000000E+00  9.55249411E+00  9.55249411E+00 -1.91049882E+01
  0.00000000E+00  9.55249411E+00  9.55249411E+00 -1.91049882E+01  0.00000000E+00
  9.55249411E+00  9.55249411E+00 -1.91049882E+01  0.00000000E+00  9.55249411E+00
  9.55249411E+00 -1.91049882E+01  0.00000000E+00  9.55249411E+00  9.55249411E+00
 -1.91049882E+01  0.00000000E+00  9.55249411E+00  9.55249411E+00 -1.91049882E+01
  0.00000000E+00  9.55249411E+00  9.55249411E+00 -1.91049882E+01  0.00000000E+00
  9.55249411E+00  9.55249411E+00 -1.91049882E+01  0.00000000E+00  9.55249411E+00
  9.55249411E+00 -1.91049882E+01  0.00000000E+00  9.55249411E+00  9.55249411E+00
 -1.91049882E+01  0.00000000E+00  9.55249411E+00  9.55249411E+00 -1.91049882E+01
  0.00000000E+00  9.55249411E+00  9.55249411E+00 -1.91049882E+01  0.00000000E+00
  9.55249411E+00  9.55249411E+00 -1.91049882E+01  0.00000000E+00  9.55249411E+00
  9.55249411E+00 -1.91049882E+01  0.00000000E+00  9.55249411E+00  9.55249411E+00
 -1.91049882E+01  0.00000000E+00  9.55249411E+00  9.55249411E+00 -1.91049882E+01
  0.00000000E+00  9.55249411E+00  9.55249411E+00 -1.91049882E+01  0.00000000E+00
  9.55249411E+00  9.55249411E+00 -1.91049882E+01  0.00000000E+00  9.55249411E+00
  9.55249411E+00 -1.91049882E+01  0.00000000E+00  9.55249411E+00  9.55249411E+00
 -1.91049882E+01  0.00000000E+00  9.55249411E+00  9.55249411E+00 -1.91049882E+01
  0.00000000E+00  9.55249411E+00  9.55249411E+00 -1.91049882E+01  0.00000000E+00
  9.55249411E+00  9.55249411E+00 -1.91049882E+01  0.00000000E+00  9.55249411E+00
  9.55249411E+00 -1.91049882E+01  0.00000000E+00  9.55249411E+00  9.55249411E+00
 -1.91049882E+01  0.00000000E+00  9.55249411E+00  9.55249411E+00 -1.91049882E+01
  0.00000000E+00  9.55249411E+00  9.55249411E+00 -1.91049882E+01  0.00000000E+00
  9.55249411E+00  9.55249411E+00 -1.91049882E+01  0.00000000E+00  9.55249411E+00
  9.55249411E+00 -1.91049882E+01  0.00000000E+00  9.55249411E+00  9.55249411E+00
 -1.91049882E+01  0.00000000E+00  9.55249411E+00  9.55249411E+00 -1.91049882E+01
  0.00000000E+00  9.55249411E+00  9.55249411E+00 -1.91049882E+01  0.00000000E+00
  9.55249411E+00  9.55249411E+00 -1.91049882E+01  0.00000000E+00  9.55249411E+00
  9.55249411E+00 -1.91049882E+01  0.00000000E+00  9.55249411E+00  9.55249411E+00
 -1.91049882E+01  0.00000000E+00  9.55249411E+00  9.55249411E+00 -1.91049882E+01
  0.00000000E+00  9.55249411E+00  9.55249411E+00 -1.91049882E+01  0.00000000E+00
  9.55249411E+00  9.55249411E+00 -1.91049882E+01  0.00000000E+00  9.55249411E+00
  9.55249411E+00 -1.91049882E+01  0.00000000E+00  9.55249411E+00  9.55249411E+00
 -1.91049882E+01  0.00000000E+00  9.55249411E+00  9.55249411E+00 -1.91049882E+01
  0.00000000E+00  9.55249411E+00  9.55249411E+00 -1.91049882E+01  0.00000000E+00
  9.55249411E+00  9.55249411E+00 -1.91049882E+01  0.00000000E+00  9.55249411E+00
  9.55249411E+00 -1.91049882E+01  0.00000000E+00  9.55249411E+00  9.55249411E+00
 -1.91049882E+01  0.00000000E+00  9.55249411E+00  9.55249411E+00 -1.91049882E+01
  0.00000000E+00  9.55249411E+00  9.55249411E+00 -1.91049882E+01  0.00000000E+00
  9.55249411E+00  9.55249411E+00 -1.91049882E+01  0.00000000E+00  9.55249411E+00
  9.55249411E+00 -1.91049882E+01  0.00000000E+00  9.55249411E+00  9.55249411E+00
 -1.91049882E+01  0.00000000E+00  9.55249411E+00  9.55249411E+00 -1.91049882E+01
  0.00000000E+00  9.55249411E+00  9.55249411E+00 -1.91049882E+01  0.00000000E+00
  9.55249411E+00  9.55249411E+00 -1.91049882E+01  0.00000000E+00  9.55249411E+00
  9.55249411E+00 -1.91049882E+01  0.00000000E+00  9.55249411E+00  9.55249411E+00
 -1.91049882E+01  0.00000000E+00  9.55249411E+00  9.55249411E+00 -1.91049882E+01
  0.00000000E+00  9.55249411E+00  9.55249411E+00 -1.91049882E+01  0.00000000E+00
  9.55249411E+00  9.55249411E+00 -1.91049882E+01  0.00000000E+00  9.55249411E+00
  9.55249411E+00 -1.91049882E+01  0.00000000E+00  9.55249411E+00  9.55249411E+00
 -1.91049882E+01  0.00000000E+00  9.55249411E+00  9.55249411E+00 -1.91049882E+01
  0.00000000E+00  9.55249411E+00  9.55249411E+00 -1.91049882E+01  0.00000000E+00
  9.55249411E+00  9.55249411E+00 -1.91049882E+01  0.00000000E+00  9.55249411E+00
  9.55249411E+00 -1.91049882E+01  0.00000000E+00  9.55249411E+00  9.55249411E+00
 -1.91049882E+01  0.00000000E+00  9.55249411E+00  9.55249411E+00 -1.91049882E+01
  0.00000000E+00  9.55249411E+00  9.55249411E+00 -1.91049882E+01  0.00000000E+00
  9.55249411E+00  9.55249411E+00 -1.91049882E+01  0.00000000E+00  9.55249411E+00
  9.55249411E+00 -1.91049882E+01  0.00000000E+00  9.55249411E+00  9.55249411E+00
 -1.91049882E+01  0.00000000E+00  9.55249411E+00  9.55249411E+00 -1.91049882E+01
  0.00000000E+00  9.55249411E+00  9.55249411E+00 -1.91049882E+01  0.00000000E+00
  9.55249411E+00  9.55249411E+00 -1.91049882E+01  0.00000000E+00  9.55249411E+00
  9.55249411E+00 -1.91049882E+01  0.00000000E+00  9.55249411E+00  9.55249411E+00
 -1.91049882E+01  0.00000000E+00  9.55249411E+00  9.55249411E+00 -1.91049882E+01
  0.00000000E+00  9.55249411E+00  9.55249411E+00 -1.91049882E+01  0.00000000E+00
  9.55249411E+00  9.55249411E+00 -1.91049882E+01  0.00000000E+00  9.55249411E+00
  9.55249411E+00 -1.91049882E+01  0.00000000E+00  9.55249411E+00  9.55249411E+00
 -1.91049882E+01  0.00000000E+00  9.55249411E+00  9.55249411E+00 -1.91049882E+01
  0.00000000E+00  9.55249411E+00  9.55249411E+00 -1.91049882E+01  0.00000000E+00
  9.55249411E+00  9.55249411E+00 -1.91049882E+01  0.00000000E+00  9.55249411E+00
  9.55249411E+00 -1.91049882E+01  0.00000000E+00  9.55249411E+00  9.55249411E+00
 -1.91049882E+01  0.00000000E+00  9.55249411E+00  9.55249411E+00 -1.91049882E+01
  0.00000000E+00  9.55249411E+00  9.55249411E+00 -1.91049882E+01  0.00000000E+00
  9.55249411E+00  9.55249411E+00 -1.91049882E+01  0.00000000E+00  9.55249411E+00
  9.55249411E+00 -1.91049882E+01  0.00000000E+00  9.55249411E+00  9.55249411E+00
 -1.91049882E+01  0.00000000E+00  9.55249411E+00  9.55249411E+00 -1.91049882E+01
  0.00000000E+00  9.55249411E+00  9.55249411E+00 -1.91049882E+01  0.00000000E+00
  9.55249411E+00  9.55249411E+00 -1.91049882E+01  0.00000000E+00  9.55249411E+00
  9.55249411E+00 -1.91049882E+01  0.00000000E+00  9.55249411E+00  9.55249411E+00
 -1.91049882E+01  0.00000000E+00  9.55249411E+00  9.55249411E+00 -1.91049882E+01
  0.00000000E+00  9.55249411E+00  9.55249411E+00 -1.91049882E+01  0.00000000E+00
  9.55249411E+00  9.55249411E+00 -1.91049882E+01  0.00000000E+00  9.55249411E+00
  9.55249411E+00 -1.91049882E+01  0.00000000E+00  9.55249411E+00  9.55249411E+00
 -1.91049882E+01  0.00000000E+00  9.55249411E+00  9.55249411E+00 -1.91049882E+01
  0.00000000E+00  9.55249411E+00  9.55249411E+00 -1.91049882E+01  0.00000000E+00
  9.55249411E+00  9.55249411E+00 -1.91049882E+01  0.00000000E+00  9.55249411E+00
  9.55249411E+00 -1.91049882E+01  0.00000000E+00  9.55249411E+00  9.55249411E+00
 -1.91049882E+01  0.00000000E+00  9.55249411E+00  9.55249411E+00 -1.91049882E+01
  0.00000000E+00  9.55249411E+00  9.55249411E+00 -1.91049882E+01
%FLAG ATOMIC_NUMBER                                                             
%FORMAT(10I8)                                                                   
       1       8       6       1       1       6       1       8       6       1
       7       6       1       7       6       6       8       7       1       6
       7       1       1       7       6       6       1       6       1       8
       1       8      15       8       8       8       6       1       1       6
       1       8       6       1       7       6       1       7       6       6
       8       7       1       6       7       1       1       7       6       6
       1       6       1       8       1       8      15       8       8       8
       6       1       1       6       1       8       6       1       7       6
       1       7       6       6       7       1       1       7       6       1
       7       6       6       1       6       1       8       1       8      15
       8       8       8       6       1       1       6       1       8       6
       1       7       6       1       6       1       6       8       7       1
       6       8       6       1       6       1       8       1       8      15
       8       8       8       6       1       1       6       1       8       6
       1       7       6       1       6       1       6       7       1       1
       7       6       8       6       1       6       1       8       1       8
      15       8       8       8       6       1       1       6       1       8
       6       1       7       6       1       7       6       6       7       1
       1       7       6       1       7       6       6       1       6       1
       8       1       8      15       8       8       8       6       1       1
       6       1       8       6       1       7       6       1       6       1
       6       8       7       1       6       8       6       1       6       1
       8       1       8      15       8       8       8       6       1       1
       6       1       8       6       1       7       6       1       7       6
       6       7       1       1       7       6       1       7       6       6
       1       6       1       8       1       8      15       8       8       8
       6       1       1       6       1       8       6       1       7       6
       1       6       1       6       8       7       1       6       8       6
       1       6       1       8       1       8      15       8       8       8
       6       1       1       6       1       8       6       1       7       6
       1       7       6       6       7       1       1       7       6       1
       7       6       6       1       6       1       8       1       8      15
       8       8       8       6       1       1       6       1       8       6
       1       7       6       1       7       6       6       7       1       1
       7       6       1       7       6       6       1       6       1       8
       1       8      15       8       8       8       6       1       1       6
       1       8       6       1       7       6       1       6       1       6
       8       7       1       6       8       6       1       6       1       8
       1       8      15       8       8       8       6       1       1       6
       1       8       6       1       7       6       1       6       1       6
       7       1       1       7       6       8       6       1       6       1
       8       1       8      15       8       8       8       6       1       1
       6       1       8       6       1       7       6       1       7       6
       6       8       7       1       6       7       1       1       7       6
       6       1       6       1       8       1       8      15       8       8
       8       6       1       1       6       1       8       6       1       7
       6       1       6       1       6       7       1       1       7       6
       8       6       1       6       1       8       1       8      15       8
       8       8       6       1       1       6       1       8       6       1
       7       6       1       7       6       6       8       7       1       6
       7       1       1       7       6       6       1       6       1       8
       1       8      15       8       8       8       6       1       1       6
       1       8       6       1       7       6       1       6       1       6
       8       7       1       6       8       6       1       6       1       8
       1       8      15       8       8       8       6       1       1       6
       1       8       6       1       7       6       1       7       6       6
       8       7       1       6       7       1       1       7       6       6
       1       6       1       8       1       8      15       8       8       8
       6       1       1       6       1       8       6       1       7       6
       1       7       6       6       8       7       1       6       7       1
       1       7       6       6       1       6       1       8       1       8
      15       8       8       8       6       1       1       6       1       8
       6       1       7       6       1       7       6       6       7       1
       1       7       6       1       7       6       6       1       6       1
       8       1       8      15       8       8       8       6       1       1
       6       1       8       6       1       7       6       1       6       1
       6       8       7       1       6       8       6       1       6       1
       8       1       8      15       8       8       8       6       1       1
       6       1       8       6       1       7       6       1       7       6
       6       7       1       1       7       6       1       7       6       6
       1       6       1       8       1       8      15       8       8       8
       6       1       1       6       1       8       6       1       7       6
       1       6       1       6       8       7       1       6       8       6
       1       6       1       8       1       8      15       8       8       8
       6       1       1       6       1       8       6       1       7       6
       1       7       6       6       8       7       1       6       7       1
       1       7       6       6       1       6       1       8       1       8
      15       8       8       8       6       1       1       6       1       8
       6       1       7       6       1       7       6       6       8       7
       1       6       7       1       1       7       6       6       1       6
       1       8       1       8      15       8       8       8       6       1
       1       6       1       8       6       1       7       6       1       6
       1       6       7       1       1       7       6       8       6       1
       6       1       8       1       8      15       8       8       8       6
       1       1       6       1       8       6       1       7       6       1
       7       6       6       7       1       1       7       6       1       7
       6       6       1       6       1       8       1       8      15       8
       8       8       6       1       1       6       1       8       6       1
       7       6       1       6       1       6       7       1       1       7
       6       8       6       1       6       1       8       1       8      15
       8       8       8       6       1       1       6       1       8       6
       1       7       6       1       7       6       6       8       7       1
       6       7       1       1       7       6       6       1       6       1
       8       1       8      15       8       8       8       6       1       1
       6       1       8       6       1       7       6       1       6       1
       6       7       1       1       7       6       8       6       1       6
       1       8       1       8      15       8       8       8       6       1
       1       6       1       8       6       1       7       6       1       7
       6       6       7       1       1       7       6       1       7       6
       6       1       6       1       8       1       8      15       8       8
       8       6       1       1       6       1       8       6       1       7
       6       1       7       6       6       7       1       1       7       6
       1       7       6       6       1       6       1       8       1       8
      15       8       8       8       6       1       1       6       1       8
       6       1       7       6       1       7       6       6       8       7
       1       6       7       1       1       7       6       6       1       6
       1       8       1       8      15       8       8       8       6       1
       1       6       1       8       6       1       7       6       1       6
       1       6       8       7       1       6       8       6       1       6
       1       8       1       8      15       8       8       8       6       1
       1       6       1       8       6       1       7       6       1       6
       1       6       8       7       1       6       8       6       1       6
       1       8       1       8      15       8       8       8       6       1
       1       6       1       8       6       1       7       6       1       6
       1       6       8       7       1       6       8       6       1       6
       1       8       1       8      15       8       8       8       6       1
       1       6       1       8       6       1       7       6       1       6
       1       6       7       1       1       7       6       8       6       1
       6       1       8       1       8      15       8       8       8       6
       1       1       6       1       8       6       1       7       6       1
       6       1       6       8       7       1       6       8       6       1
       6       1       8       1       8      15       8       8       8       6
       1       1       6       1       8       6       1       7       6       1
       7       6       6       7       1       1       7       6       1       7
       6       6       1       6       1       8       1       8      15       8
       8       8       6       1       1       6       1       8       6       1
       7       6       1       6       1       6       7       1       1       7
       6       8       6       1       6       1       8       1       8      15
       8       8       8       6       1       1       6       1       8       6
       1       7       6       1       6       1       6       7       1       1
       7       6       8       6       1       6       1       8       1       8
      15       8       8       8       6       1       1       6       1       8
       6       1       7       6       1       7       6       6       8       7
       1       6       7       1       1       7       6       6       1       6
       1       8       1       8      15       8       8       8       6       1
       1       6       1       8       6       1       7       6       1       7
       6       6       8       7       1       6       7       1       1       7
       6       6       1       6       1       8       1       8      15       8
       8       8       6       1       1       6       1       8       6       1
       7       6       1       7       6       6       8       7       1       6
       7       1       1       7       6       6       1       6       1       8
       1       8      15       8       8       8       6       1       1       6
       1       8       6       1       7       6       1       6       1       6
       7       1       1       7       6       8       6       1       6       1
       8       1       8      15       8       8       8       6       1       1
       6       1       8       6       1       7       6       1       7       6
       6       7       1       1       7       6       1       7       6       6
       1       6       1       8       1       8      15       8       8       8
       6       1       1       6       1       8       6       1       7       6
       1       6       1       6       7       1       1       7       6       8
       6       1       6       1       8       1       8      15       8       8
       8       6       1       1       6       1       8       6       1       7
       6       1       6       1       6       7       1       1       7       6
       8       6       1       6       1       8       1       8      15       8
       8       8       6       1       1       6       1       8       6       1
       7       6       1       7       6       6       8       7       1       6
       7       1       1       7       6       6       1       6       1       8
       1       8      15       8       8       8       6       1       1       6
       1       8       6       1       7       6       1       6       1       6
       8       7       1       6       8       6       1       6       1       8
       1       8      15       8       8       8       6       1       1       6
       1       8       6       1       7       6       1       7       6       6
       7       1       1       7       6       1       7       6       6       1
       6       1       8       1       8      15       8       8       8       6
       1       1       6       1       8       6       1       7       6       1
       7       6       6       7       1       1       7       6       1       7
       6       6       1       6       1       8       1       8      15       8
       8       8       6       1       1       6       1       8       6       1
       7       6       1       7       6       6       7       1       1       7
       6       1       7       6       6       1       6       1       8       1
       8      15       8       8       8       6       1       1       6       1
       8       6       1       7       6       1       6       1       6       8
       7       1       6       8       6       1       6       1       8       1
       8      15       8       8       8       6       1       1       6       1
       8       6       1       7       6       1       7       6       6       8
       7       1       6       7       1       1       7       6       6       1
       6       1       8       1       8      15       8       8       8       6
       1       1       6       1       8       6       1       7       6       1
       6       1       6       8       7       1       6       8       6       1
       6       1       8       1       8      15       8       8       8       6
       1       1       6       1       8       6       1       7       6       1
       6       1       6       7       1       1       7       6       8       6
       1       6       1       8       1       8      15       8       8       8
       6       1       1       6       1       8       6       1       7       6
       1       6       1       6       7       1       1       7       6       8
       6       1       6       1       8       1       8      15       8       8
       8       6       1       1       6       1       8       6       1       7
       6       1       7       6       6       8       7       1       6       7
       1       1       7       6       6       1       6       1       8       1
       8      15       8       8       8       6       1       1       6       1
       8       6       1       7       6       1       7       6       6       7
       1       1       7       6       1       7       6       6       1       6
       1       8       1       8      15       8       8       8       6       1
       1       6       1       8       6       1       7       6       1       6
       1       6       7       1       1       7       6       8       6       1
       6       1       8       1       8      15       8       8       8       6
       1       1       6       1       8       6       1       7       6       1
       6       1       6       8       7       1       6       8       6       1
       6       1       8       1       8      15       8       8       8       6
       1       1       6       1       8       6       1       7       6       1
       7       6       6       7       1       1       7       6       1       7
       6       6       1       6       1       8       1       8      15       8
       8       8       6       1       1       6       1       8       6       1
       7       6       1       6       1       6       8       7       1       6
       8       6       1       6       1       8       1       8      15       8
       8       8       6       1       1       6       1       8       6       1
       7       6       1       7       6       6       8       7       1       6
       7       1       1       7       6       6       1       6       1       8
       1       8      15       8       8       8       6       1       1       6
       1       8       6       1       7       6       1       7       6       6
       8       7       1       6       7       1       1       7       6       6
       1       6       1       8       1       8      15       8       8       8
       6       1       1       6       1       8       6       1       7       6
       1       6       1       6       8       7       1       6       8       6
       1       6       1       8       1       8      15       8       8       8
       6       1       1       6       1       8       6       1       7       6
       1       6       1       6       7       1       1       7       6       8
       6       1       6       1       8       1       8       1      11      11
      11      11      11      11      11      11      11      11      11      11
      11      11      11      11      11      11      11      11      11      11
      11      11      11      11      11      11      11      11      11      11
      11      11      11      11      11      11      11      11      11      11
      11      11      11      11      11      11      11      11      11      11
      11      11      11      11      11      11      11      11      11      11
      11      11      11      11      11      11      17      11      17      11
      17      11      17      11      17      11      17      11      17      11
      17      11      17      11      17      11      17      11      17      11
      17      11      17      11      17      11      17      11      17      11
      17      11      17      11      17      11      17      11      17      11
      17      11      17      11      17      11      17      11      17      11
      17      11      17      11      17      11      17      11      17       8
       6       7       6       7       8       6       6       6       6       6
       6       6       7       6       6       7       6       7       1       1
       1       1       1       1       1       1       1       1       1       8
       1       1       0       8       1       1       0       8       1       1
       0       8       1       1       0       8       1       1       0       8
       1       1       0       8       1       1       0       8       1       1
       0       8       1       1       0       8       1       1       0       8
       1       1       0       8       1       1       0       8       1       1
       0       8       1       1       0       8       1       1       0       8
       1       1       0       8       1       1       0       8       1       1
       0       8       1       1       0       8       1       1       0       8
       1       1       0       8       1       1       0       8       1       1
       0       8       1       1       0       8       1       1       0       8
       1       1       0       8       1       1       0       8       1       1
       0       8       1       1       0       8       1       1       0       8
       1       1       0       8       1       1       0       8       1       1
       0       8       1       1       0       8       1       1       0       8
       1       1       0       8       1       1       0       8       1       1
       0       8       1       1       0       8       1       1       0       8
       1       1       0       8       1       1       0       8       1       1
       0       8       1       1       0       8       1       1       0       8
       1       1       0       8       1       1       0       8       1       1
       0       8       1       1       0       8       1       1       0       8
       1       1       0       8       1       1       0       8       1       1
       0       8       1       1       0       8       1       1       0       8
       1       1       0       8       1       1       0       8       1       1
       0       8       1       1       0       8       1       1       0       8
       1       1       0       8       1       1       0       8       1       1
       0       8       1       1       0       8       1       1       0       8
       1       1       0       8       1       1       0       8       1       1
       0       8       1       1       0       8       1       1       0       8
       1       1       0       8       1       1       0       8       1       1
       0       8       1       1       0       8       1       1       0       8
       1       1       0       8       1       1       0       8       1       1
       0       8       1       1       0       8       1       1       0       8
       1       1       0       8       1       1       0       8       1       1
       0       8       1       1       0       8       1       1       0       8
       1       1       0       8       1       1       0       8       1       1
       0       8       1       1       0       8       1       1       0       8
       1       1       0       8       1       1       0       8       1       1
       0       8       1       1       0       8       1       1       0       8
       1       1       0       8       1       1       0       8       1       1
       0       8       1       1       0       8       1       1       0       8
       1       1       0       8       1       1       0       8       1       1
       0       8       1       1       0       8       1       1       0       8
       1       1       0       8       1       1       0       8       1       1
       0       8       1       1       0       8       1       1       0       8
       1       1       0       8       1       1       0       8       1       1
       0       8       1       1       0       8       1       1       0       8
       1       1       0       8       1       1       0       8       1       1
       0       8       1       1       0       8       1       1       0       8
       1       1       0       8       1       1       0       8       1       1
       0       8       1       1       0       8       1       1       0       8
       1       1       0       8       1       1       0       8       1       1
       0       8       1       1       0       8       1       1       0       8
       1       1       0       8       1       1       0       8       1       1
       0       8       1       1       0       8       1       1       0       8
       1       1       0       8       1       1       0       8       1       1
       0       8       1       1       0       8       1       1       0       8
       1       1       0       8       1       1       0       8       1       1
       0       8       1       1       0       8       1       1       0       8
       1       1       0       8       1       1       0       8       1       1
       0       8       1       1       0       8       1       1       0       8
       1       1       0       8       1       1       0       8       1       1
       0       8       1       1       0       8       1       1       0       8
       1       1       0       8       1       1       0       8       1       1
       0       8       1       1       0       8       1       1       0       8
       1       1       0       8       1       1       0       8       1       1
       0       8       1       1       0       8       1       1       0       8
       1       1       0       8       1       1       0       8       1       1
       0       8       1       1       0       8       1       1       0       8
       1       1       0       8       1       1       0       8       1       1
       0       8       1       1       0       8       1       1       0       8
       1       1       0       8       1       1       0       8       1       1
       0       8       1       1       0       8       1       1       0       8
       1       1       0       8       1       1       0       8       1       1
       0       8       1       1       0       8       1       1       0       8
       1       1       0       8       1       1       0       8       1       1
       0       8       1       1       0       8       1       1       0       8
       1       1       0       8       1       1       0       8       1       1
       0       8       1       1       0       8       1       1       0       8
       1       1       0       8       1       1       0       8       1       1
       0       8       1       1       0       8       1       1       0       8
       1       1       0       8       1       1       0       8       1       1
       0       8       1       1       0       8       1       1       0       8
       1       1       0       8       1       1       0       8       1       1
       0       8       1       1       0       8       1       1       0       8
       1       1       0       8       1       1       0       8       1       1
       0       8       1       1       0       8       1       1       0       8
       1       1       0       8       1       1       0       8       1       1
       0       8       1       1       0       8       1       1       0       8
       1       1       0       8       1       1       0       8       1       1
       0       8       1       1       0       8       1       1       0       8
       1       1       0       8       1       1       0       8       1       1
       0       8       1       1       0       8       1       1       0       8
       1       1       0       8       1       1       0       8       1       1
       0       8       1       1       0       8       1       1       0       8
       1       1       0       8       1       1       0       8       1       1
       0       8       1       1       0       8       1       1       0       8
       1       1       0       8       1       1       0       8       1       1
       0       8       1       1       0       8       1       1       0       8
       1       1       0       8       1       1       0       8       1       1
       0       8       1       1       0       8       1       1       0       8
       1       1       0       8       1       1       0       8       1       1
       0       8       1       1       0       8       1       1       0       8
       1       1       0       8       1       1       0       8       1       1
       0       8       1       1       0       8       1       1       0       8
       1       1       0       8       1       1       0       8       1       1
       0       8       1       1       0       8       1       1       0       8
       1       1       0       8       1       1       0       8       1       1
       0       8       1       1       0       8       1       1       0       8
       1       1       0       8       1       1       0       8       1       1
       0       8       1       1       0       8       1       1       0       8
       1       1       0       8       1       1       0       8       1       1
       0       8       1       1       0       8       1       1       0       8
       1       1       0       8       1       1       0       8       1       1
       0       8       1       1       0       8       1       1       0       8
       1       1       0       8       1       1       0       8       1       1
       0       8       1       1       0       8       1       1       0       8
       1       1       0       8       1       1       0       8       1       1
       0       8       1       1       0       8       1       1       0       8
       1       1       0       8       1       1       0       8       1       1
       0       8       1       1       0       8       1       1       0       8
       1       1       0       8       1       1       0       8       1       1
       0       8       1       1       0       8       1       1       0       8
       1       1       0       8       1       1       0       8       1       1
       0       8       1       1       0       8       1       1       0       8
       1       1       0       8       1       1       0       8       1       1
       0       8       1       1       0       8       1       1       0       8
       1       1       0       8       1       1       0       8       1       1
       0       8       1       1       0       8       1       1       0       8
       1       1       0       8       1       1       0       8       1       1
       0       8       1       1       0       8       1       1       0       8
       1       1       0       8       1       1       0       8       1       1
       0       8       1       1       0       8       1       1       0       8
       1       1       0       8       1       1       0       8       1       1
       0       8       1       1       0       8       1       1       0       8
       1       1       0       8       1       1       0       8       1       1
       0       8       1       1       0       8       1       1       0       8
       1       1       0       8       1       1       0       8       1       1
       0       8       1       1       0       8       1       1       0       8
       1       1       0       8       1       1       0       8       1       1
       0       8       1       1       0       8       1       1       0       8
       1       1       0       8       1       1       0       8       1       1
       0       8       1       1       0       8       1       1       0       8
       1       1       0       8       1       1       0       8       1       1
       0       8       1       1       0       8       1       1       0       8
       1       1       0       8       1       1       0       8       1       1
       0       8       1       1       0       8       1       1       0       8
       1       1       0       8       1       1       0       8       1       1
       0       8       1       1       0       8       1       1       0       8
       1       1       0       8       1       1       0       8       1       1
       0       8       1       1       0       8       1       1       0       8
       1       1       0       8       1       1       0       8       1       1
       0       8       1       1       0       8       1       1       0       8
       1       1       0       8       1       1       0       8       1       1
       0       8       1       1       0       8       1       1       0       8
       1       1       0       8       1       1       0       8       1       1
       0       8       1       1       0       8       1       1       0       8
       1       1       0       8       1       1       0       8       1       1
       0       8       1       1       0       8       1       1       0       8
       1       1       0       8       1       1       0       8       1       1
       0       8       1       1       0       8       1       1       0       8
       1       1       0       8       1       1       0       8       1       1
       0       8       1       1       0       8       1       1       0       8
       1       1       0       8       1       1       0       8       1       1
       0       8       1       1       0       8       1       1       0       8
       1       1       0       8       1       1       0       8       1       1
       0       8       1       1       0       8       1       1       0       8
       1       1       0       8       1       1       0       8       1       1
       0       8       1       1       0       8       1       1       0       8
       1       1       0       8       1       1       0       8       1       1
       0       8       1       1       0       8       1       1       0       8
       1       1       0       8       1       1       0       8       1       1
       0       8       1       1       0       8       1       1       0       8
       1       1       0       8       1       1       0       8       1       1
       0       8       1       1       0       8       1       1       0       8
       1       1       0       8       1       1       0       8       1       1
       0       8       1       1       0       8       1       1       0       8
       1       1       0       8       1       1       0       8       1       1
       0       8       1       1       0       8       1       1       0       8
       1       1       0       8       1       1       0       8       1       1
       0       8       1       1       0       8       1       1       0       8
       1       1       0       8       1       1       0       8       1       1
       0       8       1       1       0       8       1       1       0       8
       1       1       0       8       1       1       0       8       1       1
       0       8       1       1       0       8       1       1       0       8
       1       1       0       8       1       1       0       8       1       1
       0       8       1       1       0       8       1       1       0       8
       1       1       0       8       1       1       0       8       1       1
       0       8       1       1       0       8       1       1       0       8
       1       1       0       8       1       1       0       8       1       1
       0       8       1       1       0       8       1       1       0       8
       1       1       0       8       1       1       0       8       1       1
       0       8       1       1       0       8       1       1       0       8
       1       1       0       8       1       1       0       8       1       1
       0       8       1       1       0       8       1       1       0       8
       1       1       0       8       1       1       0       8       1       1
       0       8       1       1       0       8       1       1       0       8
       1       1       0       8       1       1       0       8       1       1
       0       8       1       1       0       8       1       1       0       8
       1       1       0       8       1       1       0       8       1       1
       0       8       1       1       0       8       1       1       0       8
       1       1       0       8       1       1       0       8       1       1
       0       8       1       1       0       8       1       1       0       8
       1       1       0       8       1       1       0       8       1       1
       0       8       1       1       0       8       1       1       0       8
       1       1       0       8       1       1       0       8       1       1
       0       8       1       1       0       8       1       1       0       8
       1       1       0       8       1       1       0       8       1       1
       0       8       1       1       0       8       1       1       0       8
       1       1       0       8       1       1       0       8       1       1
       0       8       1       1       0       8       1       1       0       8
       1       1       0       8       1       1       0       8       1       1
       0       8       1       1       0       8       1       1       0       8
       1       1       0       8       1       1       0       8       1       1
       0       8       1       1       0       8       1       1       0       8
       1       1       0       8       1       1       0       8       1       1
       0       8       1       1       0       8       1       1       0       8
       1       1       0       8       1       1       0       8       1       1
       0       8       1       1       0       8       1       1       0       8
       1       1       0       8       1       1       0       8       1       1
       0       8       1       1       0       8       1       1       0       8
       1       1       0       8       1       1       0       8       1       1
       0       8       1       1       0       8       1       1       0       8
       1       1       0       8       1       1       0       8       1       1
       0       8       1       1       0       8       1       1       0       8
       1       1       0       8       1       1       0       8       1       1
       0       8       1       1       0       8       1       1       0       8
       1       1       0       8       1       1       0       8       1       1
       0       8       1       1       0       8       1       1       0       8
       1       1       0       8       1       1       0       8       1       1
       0       8       1       1       0       8       1       1       0       8
       1       1       0       8       1       1       0       8       1       1
       0       8       1       1       0       8       1       1       0       8
       1       1       0       8       1       1       0       8       1       1
       0       8       1       1       0       8       1       1       0       8
       1       1       0       8       1       1       0       8       1       1
       0       8       1       1       0       8       1       1       0       8
       1       1       0       8       1       1       0       8       1       1
       0       8       1       1       0       8       1       1       0       8
       1       1       0       8       1       1       0       8       1       1
       0       8       1       1       0       8       1       1       0       8
       1       1       0       8       1       1       0       8       1       1
       0       8       1       1       0       8       1       1       0       8
       1       1       0       8       1       1       0       8       1       1
       0       8       1       1       0       8       1       1       0       8
       1       1       0       8       1       1       0       8       1       1
       0       8       1       1       0       8       1       1       0       8
       1       1       0       8       1       1       0       8       1       1
       0       8       1       1       0       8       1       1       0       8
       1       1       0       8       1       1       0       8       1       1
       0       8       1       1       0       8       1       1       0       8
       1       1       0       8       1       1       0       8       1       1
       0       8       1       1       0       8       1       1       0       8
       1       1       0       8       1       1       0       8       1       1
       0       8       1       1       0       8       1       1       0       8
       1       1       0       8       1       1       0       8       1       1
       0       8       1       1       0       8       1       1       0       8
       1       1       0       8       1       1       0       8       1       1
       0       8       1       1       0       8       1       1       0       8
       1       1       0       8       1       1       0       8       1       1
       0       8       1       1       0       8       1       1       0       8
       1       1       0       8       1       1       0       8       1       1
       0       8       1       1       0       8       1       1       0       8
       1       1       0       8       1       1       0       8       1       1
       0       8       1       1       0       8       1       1       0       8
       1       1       0       8       1       1       0       8       1       1
       0       8       1       1       0       8       1       1       0       8
       1       1       0       8       1       1       0       8       1       1
       0       8       1       1       0       8       1       1       0       8
       1       1       0       8       1       1       0       8       1       1
       0       8       1       1       0       8       1       1       0       8
       1       1       0       8       1       1       0       8       1       1
       0       8       1       1       0       8       1       1       0       8
       1       1       0       8       1       1       0       8       1       1
       0       8       1       1       0       8       1       1       0       8
       1       1       0       8       1       1       0       8       1       1
       0       8       1       1       0       8       1       1       0       8
       1       1       0       8       1       1       0       8       1       1
       0       8       1       1       0       8       1       1       0       8
       1       1       0       8       1       1       0       8       1       1
       0       8       1       1       0       8       1       1       0       8
       1       1       0       8       1       1       0       8       1       1
       0       8       1       1       0       8       1       1       0       8
       1       1       0       8       1       1       0       8       1       1
       0       8       1       1       0       8       1       1       0       8
       1       1       0       8       1       1       0       8       1       1
       0       8       1       1       0       8       1       1       0       8
       1       1       0       8       1       1       0       8       1       1
       0       8       1       1       0       8       1       1       0       8
       1       1       0       8       1       1       0       8       1       1
       0       8       1       1       0       8       1       1       0       8
       1       1       0       8       1       1       0       8       1       1
       0       8       1       1       0       8       1       1       0       8
       1       1       0       8       1       1       0       8       1       1
       0       8       1       1       0       8       1       1       0       8
       1       1       0       8       1       1       0       8       1       1
       0       8       1       1       0       8       1       1       0       8
       1       1       0       8       1       1       0       8       1       1
       0       8       1       1       0       8       1       1       0       8
       1       1       0       8       1       1       0       8       1       1
       0       8       1       1       0       8       1       1       0       8
       1       1       0       8       1       1       0       8       1       1
       0       8       1       1       0       8       1       1       0       8
       1       1       0       8       1       1       0       8       1       1
       0       8       1       1       0       8       1       1       0       8
       1       1       0       8       1       1       0       8       1       1
       0       8       1       1       0       8       1       1       0       8
       1       1       0       8       1       1       0       8       1       1
       0       8       1       1       0       8       1       1       0       8
       1       1       0       8       1       1       0       8       1       1
       0       8       1       1       0       8       1       1       0       8
       1       1       0       8       1       1       0       8       1       1
       0       8       1       1       0       8       1       1       0       8
       1       1       0       8       1       1       0       8       1       1
       0       8       1       1       0       8       1       1       0       8
       1       1       0       8       1       1       0       8       1       1
       0       8       1       1       0       8       1       1       0       8
       1       1       0       8       1       1       0       8       1       1
       0       8       1       1       0       8       1       1       0       8
       1       1       0       8       1       1       0       8       1       1
       0       8       1       1       0       8       1       1       0       8
       1       1       0       8       1       1       0       8       1       1
       0       8       1       1       0       8       1       1       0       8
       1       1       0       8       1       1       0       8       1       1
       0       8       1       1       0       8       1       1       0       8
       1       1       0       8       1       1       0       8       1       1
       0       8       1       1       0       8       1       1       0       8
       1       1       0       8       1       1       0       8       1       1
       0       8       1       1       0       8       1       1       0       8
       1       1       0       8       1       1       0       8       1       1
       0       8       1       1       0       8       1       1       0       8
       1       1       0       8       1       1       0       8       1       1
       0       8       1       1       0       8       1       1       0       8
       1       1       0       8       1       1       0       8       1       1
       0       8       1       1       0       8       1       1       0       8
       1       1       0       8       1       1       0       8       1       1
       0       8       1       1       0       8       1       1       0       8
       1       1       0       8       1       1       0       8       1       1
       0       8       1       1       0       8       1       1       0       8
       1       1       0       8       1       1       0       8       1       1
       0       8       1       1       0       8       1       1       0       8
       1       1       0       8       1       1       0       8       1       1
       0       8       1       1       0       8       1       1       0       8
       1       1       0       8       1       1       0       8       1       1
       0       8       1       1       0       8       1       1       0       8
       1       1       0       8       1       1       0       8       1       1
       0       8       1       1       0       8       1       1       0       8
       1       1       0       8       1       1       0       8       1       1
       0       8       1       1       0       8       1       1       0       8
       1       1       0       8       1       1       0       8       1       1
       0       8       1       1       0       8       1       1       0       8
       1       1       0       8       1       1       0       8       1       1
       0       8       1       1       0       8       1       1       0       8
       1       1       0       8       1       1       0       8       1       1
       0       8       1       1       0       8       1       1       0       8
       1       1       0       8       1       1       0       8       1       1
       0       8       1       1       0       8       1       1       0       8
       1       1       0       8       1       1       0       8       1       1
       0       8       1       1       0       8       1       1       0       8
       1       1       0       8       1       1       0       8       1       1
       0       8       1       1       0       8       1       1       0       8
       1       1       0       8       1       1       0       8       1       1
       0       8       1       1       0       8       1       1       0       8
       1       1       0       8       1       1       0       8       1       1
       0       8       1       1       0       8       1       1       0       8
       1       1       0       8       1       1       0       8       1       1
       0       8       1       1       0       8       1       1       0       8
       1       1       0       8       1       1       0       8       1       1
       0       8       1       1       0       8       1       1       0       8
       1       1       0       8       1       1       0       8       1       1
       0       8       1       1       0       8       1       1       0       8
       1       1       0       8       1       1       0       8       1       1
       0       8       1       1       0       8       1       1       0       8
       1       1       0       8       1       1       0       8       1       1
       0       8       1       1       0       8       1       1       0       8
       1       1       0       8       1       1       0       8       1       1
       0       8       1       1       0       8       1       1       0       8
       1       1       0       8       1       1       0       8       1       1
       0       8       1       1       0       8       1       1       0       8
       1       1       0       8       1       1       0       8       1       1
       0       8       1       1       0       8       1       1       0       8
       1       1       0       8       1       1       0       8       1       1
       0       8       1       1       0       8       1       1       0       8
       1       1       0       8       1       1       0       8       1       1
       0       8       1       1       0       8       1       1       0       8
       1       1       0       8       1       1       0       8       1       1
       0       8       1       1       0       8       1       1       0       8
       1       1       0       8       1       1       0       8       1       1
       0       8       1       1       0       8       1       1       0       8
       1       1       0       8       1       1       0       8       1       1
       0       8       1       1       0       8       1       1       0       8
       1       1       0       8       1       1       0       8       1       1
       0       8       1       1       0       8       1       1       0       8
       1       1       0       8       1       1       0       8       1       1
       0       8       1       1       0       8       1       1       0       8
       1       1       0       8       1       1       0       8       1       1
       0       8       1       1       0       8       1       1       0       8
       1       1       0       8       1       1       0       8       1       1
       0       8       1       1       0       8       1       1       0       8
       1       1       0       8       1       1       0       8       1       1
       0       8       1       1       0       8       1       1       0       8
       1       1       0       8       1       1       0       8       1       1
       0       8       1       1       0       8       1       1       0       8
       1       1       0       8       1       1       0       8       1       1
       0       8       1       1       0       8       1       1       0       8
       1       1       0       8       1       1       0       8       1       1
       0       8       1       1       0       8       1       1       0       8
       1       1       0       8       1       1       0       8       1       1
       0       8       1       1       0       8       1       1       0       8
       1       1       0       8       1       1       0       8       1       1
       0       8       1       1       0       8       1       1       0       8
       1       1       0       8       1       1       0       8       1       1
       0       8       1       1       0       8       1       1       0       8
       1       1       0       8       1       1       0       8       1       1
       0       8       1       1       0       8       1       1       0       8
       1       1       0       8       1       1       0       8       1       1
       0       8       1       1       0       8       1       1       0       8
       1       1       0       8       1       1       0       8       1       1
       0       8       1       1       0       8       1       1       0       8
       1       1       0       8       1       1       0       8       1       1
       0       8       1       1       0       8       1       1       0       8
       1       1       0       8       1       1       0       8       1       1
       0       8       1       1       0       8       1       1       0       8
       1       1       0       8       1       1       0       8       1       1
       0       8       1       1       0       8       1       1       0       8
       1       1       0       8       1       1       0       8       1       1
       0       8       1       1       0       8       1       1       0       8
       1       1       0       8       1       1       0       8       1       1
       0       8       1       1       0       8       1       1       0       8
       1       1       0       8       1       1       0       8       1       1
       0       8       1       1       0       8       1       1       0       8
       1       1       0       8       1       1       0       8       1       1
       0       8       1       1       0       8       1       1       0       8
       1       1       0       8       1       1       0       8       1       1
       0       8       1       1       0       8       1       1       0       8
       1       1       0       8       1       1       0       8       1       1
       0       8       1       1       0       8       1       1       0       8
       1       1       0       8       1       1       0       8       1       1
       0       8       1       1       0       8       1       1       0       8
       1       1       0       8       1       1       0       8       1       1
       0       8       1       1       0       8       1       1       0       8
       1       1       0       8       1       1       0       8       1       1
       0       8       1       1       0       8       1       1       0       8
       1       1       0       8       1       1       0       8       1       1
       0       8       1       1       0       8       1       1       0       8
       1       1       0       8       1       1       0       8       1       1
       0       8       1       1       0       8       1       1       0       8
       1       1       0       8       1       1       0       8       1       1
       0       8       1       1       0       8       1       1       0       8
       1       1       0       8       1       1       0       8       1       1
       0       8       1       1       0       8       1       1       0       8
       1       1       0       8       1       1       0       8       1       1
       0       8       1       1       0       8       1       1       0       8
       1       1       0       8       1       1       0       8       1       1
       0       8       1       1       0       8       1       1       0       8
       1       1       0       8       1       1       0       8       1       1
       0       8       1       1       0       8       1       1       0       8
       1       1       0       8       1       1       0       8       1       1
       0       8       1       1       0       8       1       1       0       8
       1       1       0       8       1       1       0       8       1       1
       0       8       1       1       0       8       1       1       0       8
       1       1       0       8       1       1       0       8       1       1
       0       8       1       1       0       8       1       1       0       8
       1       1       0       8       1       1       0       8       1       1
       0       8       1       1       0       8       1       1       0       8
       1       1       0       8       1       1       0       8       1       1
       0       8       1       1       0       8       1       1       0       8
       1       1       0       8       1       1       0       8       1       1
       0       8       1       1       0       8       1       1       0       8
       1       1       0       8       1       1       0       8       1       1
       0       8       1       1       0       8       1       1       0       8
       1       1       0       8       1       1       0       8       1       1
       0       8       1       1       0       8       1       1       0       8
       1       1       0       8       1       1       0       8       1       1
       0       8       1       1       0       8       1       1       0       8
       1       1       0       8       1       1       0       8       1       1
       0       8       1       1       0       8       1       1       0       8
       1       1       0       8       1       1       0       8       1       1
       0       8       1       1       0       8       1       1       0       8
       1       1       0       8       1       1       0       8       1       1
       0       8       1       1       0       8       1       1       0       8
       1       1       0       8       1       1       0       8       1       1
       0       8       1       1       0       8       1       1       0       8
       1       1       0       8       1       1       0       8       1       1
       0       8       1       1       0       8       1       1       0       8
       1       1       0       8       1       1       0       8       1       1
       0       8       1       1       0       8       1       1       0       8
       1       1       0       8       1       1       0       8       1       1
       0       8       1       1       0       8       1       1       0       8
       1       1       0       8       1       1       0       8       1       1
       0       8       1       1       0       8       1       1       0       8
       1       1       0       8       1       1       0       8       1       1
       0       8       1       1       0       8       1       1       0       8
       1       1       0       8       1       1       0       8       1       1
       0       8       1       1       0       8       1       1       0       8
       1       1       0       8       1       1       0       8       1       1
       0       8       1       1       0       8       1       1       0       8
       1       1       0       8       1       1       0       8       1       1
       0       8       1       1       0       8       1       1       0       8
       1       1       0       8       1       1       0       8       1       1
       0       8       1       1       0       8       1       1       0       8
       1       1       0       8       1       1       0       8       1       1
       0       8       1       1       0       8       1       1       0       8
       1       1       0       8       1       1       0       8       1       1
       0       8       1       1       0       8       1       1       0       8
       1       1       0       8       1       1       0       8       1       1
       0       8       1       1       0       8       1       1       0       8
       1       1       0       8       1       1       0       8       1       1
       0       8       1       1       0       8       1       1       0       8
       1       1       0       8       1       1       0       8       1       1
       0       8       1       1       0       8       1       1       0       8
       1       1       0       8       1       1       0       8       1       1
       0       8       1       1       0       8       1       1       0       8
       1       1       0       8       1       1       0       8       1       1
       0       8       1       1       0       8       1       1       0       8
       1       1       0       8       1       1       0       8       1       1
       0       8       1       1       0       8       1       1       0       8
       1       1       0       8       1       1       0       8       1       1
       0       8       1       1       0       8       1       1       0       8
       1       1       0       8       1       1       0       8       1       1
       0       8       1       1       0       8       1       1       0       8
       1       1       0       8       1       1       0       8       1       1
       0       8       1       1       0       8       1       1       0       8
       1       1       0       8       1       1       0       8       1       1
       0       8       1       1       0       8       1       1       0       8
       1       1       0       8       1       1       0       8       1       1
       0       8       1       1       0       8       1       1       0       8
       1       1       0       8       1       1       0       8       1       1
       0       8       1       1       0       8       1       1       0       8
       1       1       0       8       1       1       0       8       1       1
       0       8       1       1       0       8       1       1       0       8
       1       1       0       8       1       1       0       8       1       1
       0       8       1       1       0       8       1       1       0       8
       1       1       0       8       1       1       0       8       1       1
       0       8       1       1       0       8       1       1       0       8
       1       1       0       8       1       1       0       8       1       1
       0       8       1       1       0       8       1       1       0       8
       1       1       0       8       1       1       0       8       1       1
       0       8       1       1       0       8       1       1       0       8
       1       1       0       8       1       1       0       8       1       1
       0       8       1       1       0       8       1       1       0       8
       1       1       0       8       1       1       0       8       1       1
       0       8       1       1       0       8       1       1       0       8
       1       1       0       8       1       1       0       8       1       1
       0       8       1       1       0       8       1       1       0       8
       1       1       0       8       1       1       0       8       1       1
       0       8       1       1       0       8       1       1       0       8
       1       1       0       8       1       1       0       8       1       1
       0       8       1       1       0       8       1       1       0       8
       1       1       0       8       1       1       0       8       1       1
       0       8       1       1       0       8       1       1       0       8
       1       1       0       8       1       1       0       8       1       1
       0       8       1       1       0       8       1       1       0       8
       1       1       0       8       1       1       0       8       1       1
       0       8       1       1       0       8       1       1       0       8
       1       1       0       8       1       1       0       8       1       1
       0       8       1       1       0       8       1       1       0       8
       1       1       0       8       1       1       0       8       1       1
       0       8       1       1       0       8       1       1       0       8
       1       1       0       8       1       1       0       8       1       1
       0       8       1       1       0       8       1       1       0       8
       1       1       0       8       1       1       0       8       1       1
       0       8       1       1       0       8       1       1       0       8
       1       1       0       8       1       1       0       8       1       1
       0       8       1       1       0       8       1       1       0       8
       1       1       0       8       1       1       0       8       1       1
       0       8       1       1       0       8       1       1       0       8
       1       1       0       8       1       1       0       8       1       1
       0       8       1       1       0       8       1       1       0       8
       1       1       0       8       1       1       0       8       1       1
       0       8       1       1       0       8       1       1       0       8
       1       1       0       8       1       1       0       8       1       1
       0       8       1       1       0       8       1       1       0       8
       1       1       0       8       1       1       0       8       1       1
       0       8       1       1       0       8       1       1       0       8
       1       1       0       8       1       1       0       8       1       1
       0       8       1       1       0       8       1       1       0       8
       1       1       0       8       1       1       0       8       1       1
       0       8       1       1       0       8       1       1       0       8
       1       1       0       8       1       1       0       8       1       1
       0       8       1       1       0       8       1       1       0       8
       1       1       0       8       1       1       0       8       1       1
       0       8       1       1       0       8       1       1       0       8
       1       1       0       8       1       1       0       8       1       1
       0       8       1       1       0       8       1       1       0       8
       1       1       0       8       1       1       0       8       1       1
       0       8       1       1       0       8       1       1       0       8
       1       1       0       8       1       1       0       8       1       1
       0       8       1       1       0       8       1       1       0       8
       1       1       0       8       1       1       0       8       1       1
       0       8       1       1       0       8       1       1       0       8
       1       1       0       8       1       1       0       8       1       1
       0       8       1       1       0       8       1       1       0       8
       1       1       0       8       1       1       0       8       1       1
       0       8       1       1       0       8       1       1       0       8
       1       1       0       8       1       1       0       8       1       1
       0       8       1       1       0       8       1       1       0       8
       1       1       0       8       1       1       0       8       1       1
       0       8       1       1       0       8       1       1       0       8
       1       1       0       8       1       1       0       8       1       1
       0       8       1       1       0       8       1       1       0       8
       1       1       0       8       1       1       0       8       1       1
       0       8       1       1       0       8       1       1       0       8
       1       1       0       8       1       1       0       8       1       1
       0       8       1       1       0       8       1       1       0       8
       1       1       0       8       1       1       0       8       1       1
       0       8       1       1       0       8       1       1       0       8
       1       1       0       8       1       1       0       8       1       1
       0       8       1       1       0       8       1       1       0       8
       1       1       0       8       1       1       0       8       1       1
       0       8       1       1       0       8       1       1       0       8
       1       1       0       8       1       1       0       8       1       1
       0       8       1       1       0       8       1       1       0       8
       1       1       0       8       1       1       0       8       1       1
       0       8       1       1       0       8       1       1       0       8
       1       1       0       8       1       1       0       8       1       1
       0       8       1       1       0       8       1       1       0       8
       1       1       0       8       1       1       0       8       1       1
       0       8       1       1       0       8       1       1       0       8
       1       1       0       8       1       1       0       8       1       1
       0       8       1       1       0       8       1       1       0       8
       1       1       0       8       1       1       0       8       1       1
       0       8       1       1       0       8       1       1       0       8
       1       1       0       8       1       1       0       8       1       1
       0       8       1       1       0       8       1       1       0       8
       1       1       0       8       1       1       0       8       1       1
       0       8       1       1       0       8       1       1       0       8
       1       1       0       8       1       1       0       8       1       1
       0       8       1       1       0       8       1       1       0       8
       1       1       0       8       1       1       0       8       1       1
       0       8       1       1       0       8       1       1       0       8
       1       1       0       8       1       1       0       8       1       1
       0       8       1       1       0       8       1       1       0       8
       1       1       0       8       1       1       0       8       1       1
       0       8       1       1       0       8       1       1       0       8
       1       1       0       8       1       1       0       8       1       1
       0       8       1       1       0       8       1       1       0       8
       1       1       0       8       1       1       0       8       1       1
       0       8       1       1       0       8       1       1       0       8
       1       1       0       8       1       1       0       8       1       1
       0       8       1       1       0       8       1       1       0       8
       1       1       0       8       1       1       0       8       1       1
       0       8       1       1       0       8       1       1       0       8
       1       1       0       8       1       1       0       8       1       1
       0       8       1       1       0       8       1       1       0       8
       1       1       0       8       1       1       0       8       1       1
       0       8       1       1       0       8       1       1       0       8
       1       1       0       8       1       1       0       8       1       1
       0       8       1       1       0       8       1       1       0       8
       1       1       0       8       1       1       0       8       1       1
       0       8       1       1       0       8       1       1       0       8
       1       1       0       8       1       1       0       8       1       1
       0       8       1       1       0       8       1       1       0       8
       1       1       0       8       1       1       0       8       1       1
       0       8       1       1       0       8       1       1       0       8
       1       1       0       8       1       1       0       8       1       1
       0       8       1       1       0       8       1       1       0       8
       1       1       0       8       1       1       0       8       1       1
       0       8       1       1       0       8       1       1       0       8
       1       1       0       8       1       1       0       8       1       1
       0       8       1       1       0       8       1       1       0       8
       1       1       0       8       1       1       0       8       1       1
       0       8       1       1       0       8       1       1       0       8
       1       1       0       8       1       1       0       8       1       1
       0       8       1       1       0       8       1       1       0       8
       1       1       0       8       1       1       0       8       1       1
       0       8       1       1       0       8       1       1       0       8
       1       1       0       8       1       1       0       8       1       1
       0       8       1       1       0       8       1       1       0       8
       1       1       0       8       1       1       0       8       1       1
       0       8       1       1       0       8       1       1       0       8
       1       1       0       8       1       1       0       8       1       1
       0       8       1       1       0       8       1       1       0       8
       1       1       0       8       1       1       0       8       1       1
       0       8       1       1       0       8       1       1       0       8
       1       1       0       8       1       1       0       8       1       1
       0       8       1       1       0       8       1       1       0       8
       1       1       0       8       1       1       0       8       1       1
       0       8       1       1       0       8       1       1       0       8
       1       1       0       8       1       1       0       8       1       1
       0       8       1       1       0       8       1       1       0       8
       1       1       0       8       1       1       0       8       1       1
       0       8       1       1       0       8       1       1       0       8
       1       1       0       8       1       1       0       8       1       1
       0       8       1       1       0       8       1       1       0       8
       1       1       0       8       1       1       0       8       1       1
       0       8       1       1       0       8       1       1       0       8
       1       1       0       8       1       1       0       8       1       1
       0       8       1       1       0       8       1       1       0       8
       1       1       0       8       1       1       0       8       1       1
       0       8       1       1       0       8       1       1       0       8
       1       1       0       8       1       1       0       8       1       1
       0       8       1       1       0       8       1       1       0       8
       1       1       0       8       1       1       0       8       1       1
       0       8       1       1       0       8       1       1       0       8
       1       1       0       8       1       1       0       8       1       1
       0       8       1       1       0       8       1       1       0       8
       1       1       0       8       1       1       0       8       1       1
       0       8       1       1       0       8       1       1       0       8
       1       1       0       8       1       1       0       8       1       1
       0       8       1       1       0       8       1       1       0       8
       1       1       0       8       1       1       0       8       1       1
       0       8       1       1       0       8       1       1       0       8
       1       1       0       8       1       1       0       8       1       1
       0       8       1       1       0       8       1       1       0       8
       1       1       0       8       1       1       0       8       1       1
       0       8       1       1       0       8       1       1       0       8
       1       1       0       8       1       1       0       8       1       1
       0       8       1       1       0       8       1       1       0       8
       1       1       0       8       1       1       0       8       1       1
       0       8       1       1       0       8       1       1       0       8
       1       1       0       8       1       1       0       8       1       1
       0       8       1       1       0       8       1       1       0       8
       1       1       0       8       1       1       0       8       1       1
       0       8       1       1       0       8       1       1       0       8
       1       1       0       8       1       1       0       8       1       1
       0       8       1       1       0       8       1       1       0       8
       1       1       0       8       1       1       0       8       1       1
       0       8       1       1       0       8       1       1       0       8
       1       1       0       8       1       1       0       8       1       1
       0       8       1       1       0       8       1       1       0       8
       1       1       0       8       1       1       0       8       1       1
       0       8       1       1       0       8       1       1       0       8
       1       1       0       8       1       1       0       8       1       1
       0       8       1       1       0       8       1       1       0       8
       1       1       0       8       1       1       0       8       1       1
       0       8       1       1       0       8       1       1       0       8
       1       1       0       8       1       1       0       8       1       1
       0       8       1       1       0       8       1       1       0       8
       1       1       0       8       1       1       0       8       1       1
       0       8       1       1       0       8       1       1       0       8
       1       1       0       8       1       1       0       8       1       1
       0       8       1       1       0       8       1       1       0       8
       1       1       0       8       1       1       0       8       1       1
       0       8       1       1       0       8       1       1       0       8
       1       1       0       8       1       1       0       8       1       1
       0       8       1       1       0       8       1       1       0       8
       1       1       0       8       1       1       0       8       1       1
       0       8       1       1       0       8       1       1       0       8
       1       1       0       8       1       1       0       8       1       1
       0       8       1       1       0       8       1       1       0       8
       1       1       0       8       1       1       0       8       1       1
       0       8       1       1       0       8       1       1       0       8
       1       1       0       8       1       1       0       8       1       1
       0       8       1       1       0       8       1       1       0       8
       1       1       0       8       1       1       0       8       1       1
       0       8       1       1       0       8       1       1       0       8
       1       1       0       8       1       1       0       8       1       1
       0       8       1       1       0       8       1       1       0       8
       1       1       0       8       1       1       0       8       1       1
       0       8       1       1       0       8       1       1       0       8
       1       1       0       8       1       1       0       8       1       1
       0       8       1       1       0       8       1       1       0       8
       1       1       0       8       1       1       0       8       1       1
       0       8       1       1       0       8       1       1       0       8
       1       1       0       8       1       1       0       8       1       1
       0       8       1       1       0       8       1       1       0       8
       1       1       0       8       1       1       0       8       1       1
       0       8       1       1       0       8       1       1       0       8
       1       1       0       8       1       1       0       8       1       1
       0       8       1       1       0       8       1       1       0       8
       1       1       0       8       1       1       0       8       1       1
       0       8       1       1       0       8       1       1       0       8
       1       1       0       8       1       1       0       8       1       1
       0       8       1       1       0       8       1       1       0       8
       1       1       0       8       1       1       0       8       1       1
       0       8       1       1       0       8       1       1       0       8
       1       1       0       8       1       1       0       8       1       1
       0       8       1       1       0       8       1       1       0       8
       1       1       0       8       1       1       0       8       1       1
       0       8       1       1       0       8       1       1       0       8
       1       1       0       8       1       1       0       8       1       1
       0       8       1       1       0       8       1       1       0       8
       1       1       0       8       1       1       0       8       1       1
       0       8       1       1       0       8       1       1       0       8
       1       1       0       8       1       1       0       8       1       1
       0       8       1       1       0       8       1       1       0       8
       1       1       0       8       1       1       0       8       1       1
       0       8       1       1       0       8       1       1       0       8
       1       1       0       8       1       1       0       8       1       1
       0       8       1       1       0       8       1       1       0       8
       1       1       0       8       1       1       0       8       1       1
       0       8       1       1       0       8       1       1       0       8
       1       1       0       8       1       1       0       8       1       1
       0       8       1       1       0       8       1       1       0       8
       1       1       0       8       1       1       0       8       1       1
       0       8       1       1       0       8       1       1       0       8
       1       1       0       8       1       1       0       8       1       1
       0       8       1       1       0       8       1       1       0       8
       1       1       0       8       1       1       0       8       1       1
       0       8       1       1       0       8       1       1       0       8
       1       1       0       8       1       1       0       8       1       1
       0       8       1       1       0       8       1       1       0       8
       1       1       0       8       1       1       0       8       1       1
       0       8       1       1       0       8       1       1       0       8
       1       1       0       8       1       1       0       8       1       1
       0       8       1       1       0       8       1       1       0       8
       1       1       0       8       1       1       0       8       1       1
       0       8       1       1       0       8       1       1       0       8
       1       1       0       8       1       1       0       8       1       1
       0       8       1       1       0       8       1       1       0       8
       1       1       0       8       1       1       0       8       1       1
       0       8       1       1       0       8       1       1       0       8
       1       1       0       8       1       1       0       8       1       1
       0       8       1       1       0       8       1       1       0       8
       1       1       0       8       1       1       0       8       1       1
       0       8       1       1       0       8       1       1       0       8
       1       1       0       8       1       1       0       8       1       1
       0       8       1       1       0       8       1       1       0       8
       1       1       0       8       1       1       0       8       1       1
       0       8       1       1       0       8       1       1       0       8
       1       1       0       8       1       1       0       8       1       1
       0       8       1       1       0       8       1       1       0       8
       1       1       0       8       1       1       0       8       1       1
       0       8       1       1       0       8       1       1       0       8
       1       1       0       8       1       1       0       8       1       1
       0       8       1       1       0       8       1       1       0       8
       1       1       0       8       1       1       0       8       1       1
       0       8       1       1       0       8       1       1       0       8
       1       1       0       8       1       1       0       8       1       1
       0       8       1       1       0       8       1       1       0       8
       1       1       0       8       1       1       0       8       1       1
       0       8       1       1       0       8       1       1       0       8
       1       1       0       8       1       1       0       8       1       1
       0       8       1       1       0       8       1       1       0       8
       1       1       0       8       1       1       0       8       1       1
       0       8       1       1       0       8       1       1       0       8
       1       1       0       8       1       1       0       8       1       1
       0       8       1       1       0       8       1       1       0       8
       1       1       0       8       1       1       0       8       1       1
       0       8       1       1       0       8       1       1       0       8
       1       1       0       8       1       1       0       8       1       1
       0       8       1       1       0       8       1       1       0       8
       1       1       0       8       1       1       0       8       1       1
       0       8       1       1       0       8       1       1       0       8
       1       1       0       8       1       1       0       8       1       1
       0       8       1       1       0       8       1       1       0       8
       1       1       0       8       1       1       0       8       1       1
       0       8       1       1       0       8       1       1       0       8
       1       1       0       8       1       1       0       8       1       1
       0       8       1       1       0       8       1       1       0       8
       1       1       0       8       1       1       0       8       1       1
       0       8       1       1       0       8       1       1       0       8
       1       1       0       8       1       1       0       8       1       1
       0       8       1       1       0       8       1       1       0       8
       1       1       0       8       1       1       0       8       1       1
       0       8       1       1       0       8       1       1       0       8
       1       1       0       8       1       1       0       8       1       1
       0       8       1       1       0       8       1       1       0       8
       1       1       0       8       1       1       0       8       1       1
       0       8       1       1       0       8       1       1       0       8
       1       1       0       8       1       1       0       8       1       1
       0       8       1       1       0       8       1       1       0       8
       1       1       0       8       1       1       0       8       1       1
       0       8       1       1       0       8       1       1       0       8
       1       1       0       8       1       1       0       8       1       1
       0       8       1       1       0       8       1       1       0       8
       1       1       0       8       1       1       0       8       1       1
       0       8       1       1       0       8       1       1       0       8
       1       1       0       8       1       1       0       8       1       1
       0       8       1       1       0       8       1       1       0       8
       1       1       0       8       1       1       0       8       1       1
       0       8       1       1       0       8       1       1       0       8
       1       1       0       8       1       1       0       8       1       1
       0       8       1       1       0       8       1       1       0       8
       1       1       0       8       1       1       0       8       1       1
       0       8       1       1       0       8       1       1       0       8
       1       1       0       8       1       1       0       8       1       1
       0       8       1       1       0       8       1       1       0       8
       1       1       0       8       1       1       0       8       1       1
       0       8       1       1       0       8       1       1       0       8
       1       1       0       8       1       1       0       8       1       1
       0       8       1       1       0       8       1       1       0       8
       1       1       0       8       1       1       0       8       1       1
       0       8       1       1       0       8       1       1       0       8
       1       1       0       8       1       1       0       8       1       1
       0       8       1       1       0       8       1       1       0       8
       1       1       0       8       1       1       0       8       1       1
       0       8       1       1       0       8       1       1       0       8
       1       1       0       8       1       1       0       8       1       1
       0       8       1       1       0       8       1       1       0       8
       1       1       0       8       1       1       0       8       1       1
       0       8       1       1       0       8       1       1       0       8
       1       1       0       8       1       1       0       8       1       1
       0       8       1       1       0       8       1       1       0       8
       1       1       0       8       1       1       0       8       1       1
       0       8       1       1       0       8       1       1       0       8
       1       1       0       8       1       1       0       8       1       1
       0       8       1       1       0       8       1       1       0       8
       1       1       0       8       1       1       0       8       1       1
       0       8       1       1       0       8       1       1       0       8
       1       1       0       8       1       1       0       8       1       1
       0       8       1       1       0       8       1       1       0       8
       1       1       0       8       1       1       0       8       1       1
       0       8       1       1       0       8       1       1       0       8
       1       1       0       8       1       1       0       8       1       1
       0       8       1       1       0       8       1       1       0       8
       1       1       0       8       1       1       0       8       1       1
       0       8       1       1       0       8       1       1       0       8
       1       1       0       8       1       1       0       8       1       1
       0       8       1       1       0       8       1       1       0       8
       1       1       0       8       1       1       0       8       1       1
       0       8       1       1       0       8       1       1       0       8
       1       1       0       8       1       1       0       8       1       1
       0       8       1       1       0       8       1       1       0       8
       1       1       0       8       1       1       0       8       1       1
       0       8       1       1       0       8       1       1       0       8
       1       1       0       8       1       1       0       8       1       1
       0       8       1       1       0       8       1       1       0       8
       1       1       0       8       1       1       0       8       1       1
       0       8       1       1       0       8       1       1       0       8
       1       1       0       8       1       1       0       8       1       1
       0       8       1       1       0       8       1       1       0       8
       1       1       0       8       1       1       0       8       1       1
       0       8       1       1       0       8       1       1       0       8
       1       1       0       8       1       1       0       8       1       1
       0       8       1       1       0       8       1       1       0       8
       1       1       0       8       1       1       0       8       1       1
       0       8       1       1       0       8       1       1       0       8
       1       1       0       8       1       1       0       8       1       1
       0       8       1       1       0       8       1       1       0       8
       1       1       0       8       1       1       0       8       1       1
       0       8       1       1       0       8       1       1       0       8
       1       1       0       8       1       1       0       8       1       1
       0       8       1       1       0       8       1       1       0       8
       1       1       0       8       1       1       0       8       1       1
       0       8       1       1       0       8       1       1       0       8
       1       1       0       8       1       1       0       8       1       1
       0       8       1       1       0       8       1       1       0       8
       1       1       0       8       1       1       0       8       1       1
       0       8       1       1       0       8       1       1       0       8
       1       1       0       8       1       1       0       8       1       1
       0       8       1       1       0       8       1       1       0       8
       1       1       0       8       1       1       0       8       1       1
       0       8       1       1       0       8       1       1       0       8
       1       1       0       8       1       1       0       8       1       1
       0       8       1       1       0       8       1       1       0       8
       1       1       0       8       1       1       0       8       1       1
       0       8       1       1       0       8       1       1       0       8
       1       1       0       8       1       1       0       8       1       1
       0       8       1       1       0       8       1       1       0       8
       1       1       0       8       1       1       0       8       1       1
       0       8       1       1       0       8       1       1       0       8
       1       1       0       8       1       1       0       8       1       1
       0       8       1       1       0       8       1       1       0       8
       1       1       0       8       1       1       0       8       1       1
       0       8       1       1       0       8       1       1       0       8
       1       1       0       8       1       1       0       8       1       1
       0       8       1       1       0       8       1       1       0       8
       1       1       0       8       1       1       0       8       1       1
       0       8       1       1       0       8       1       1       0       8
       1       1       0       8       1       1       0       8       1       1
       0       8       1       1       0       8       1       1       0       8
       1       1       0       8       1       1       0       8       1       1
       0       8       1       1       0       8       1       1       0       8
       1       1       0       8       1       1       0       8       1       1
       0       8       1       1       0       8       1       1       0       8
       1       1       0       8       1       1       0       8       1       1
       0       8       1       1       0       8       1       1       0       8
       1       1       0       8       1       1       0       8       1       1
       0       8       1       1       0       8       1       1       0       8
       1       1       0       8       1       1       0       8       1       1
       0       8       1       1       0       8       1       1       0       8
       1       1       0       8       1       1       0       8       1       1
       0       8       1       1       0       8       1       1       0       8
       1       1       0       8       1       1       0       8       1       1
       0       8       1       1       0       8       1       1       0       8
       1       1       0       8       1       1       0       8       1       1
       0       8       1       1       0       8       1       1       0       8
       1       1       0       8       1       1       0       8       1       1
       0       8       1       1       0       8       1       1       0       8
       1       1       0       8       1       1       0       8       1       1
       0       8       1       1       0       8       1       1       0       8
       1       1       0       8       1       1       0       8       1       1
       0       8       1       1       0       8       1       1       0       8
       1       1       0       8       1       1       0       8       1       1
       0       8       1       1       0       8       1       1       0       8
       1       1       0       8       1       1       0       8       1       1
       0       8       1       1       0       8       1       1       0       8
       1       1       0       8       1       1       0       8       1       1
       0       8       1       1       0       8       1       1       0       8
       1       1       0       8       1       1       0       8       1       1
       0       8       1       1       0       8       1       1       0       8
       1       1       0       8       1       1       0       8       1       1
       0       8       1       1       0       8       1       1       0       8
       1       1       0       8       1       1       0       8       1       1
       0       8       1       1       0       8       1       1       0       8
       1       1       0       8       1       1       0       8       1       1
       0       8       1       1       0       8       1       1       0       8
       1       1       0       8       1       1       0       8       1       1
       0       8       1       1       0       8       1       1       0       8
       1       1       0       8       1       1       0       8       1       1
       0       8       1       1       0       8       1       1       0       8
       1       1       0       8       1       1       0       8       1       1
       0       8       1       1       0       8       1       1       0       8
       1       1       0       8       1       1       0       8       1       1
       0       8       1       1       0       8       1       1       0       8
       1       1       0       8       1       1       0       8       1       1
       0       8       1       1       0       8       1       1       0       8
       1       1       0       8       1       1       0       8       1       1
       0       8       1       1       0       8       1       1       0       8
       1       1       0       8       1       1       0       8       1       1
       0       8       1       1       0       8       1       1       0       8
       1       1       0       8       1       1       0       8       1       1
       0       8       1       1       0       8       1       1       0       8
       1       1       0       8       1       1       0       8       1       1
       0       8       1       1       0       8       1       1       0       8
       1       1       0       8       1       1       0       8       1       1
       0       8       1       1       0       8       1       1       0       8
       1       1       0       8       1       1       0       8       1       1
       0       8       1       1       0       8       1       1       0       8
       1       1       0       8       1       1       0       8       1       1
       0       8       1       1       0       8       1       1       0       8
       1       1       0       8       1       1       0       8       1       1
       0       8       1       1       0       8       1       1       0       8
       1       1       0       8       1       1       0       8       1       1
       0       8       1       1       0       8       1       1       0       8
       1       1       0       8       1       1       0       8       1       1
       0       8       1       1       0       8       1       1       0       8
       1       1       0       8       1       1       0       8       1       1
       0       8       1       1       0       8       1       1       0       8
       1       1       0       8       1       1       0       8       1       1
       0       8       1       1       0       8       1       1       0       8
       1       1       0       8       1       1       0       8       1       1
       0       8       1       1       0       8       1       1       0       8
       1       1       0       8       1       1       0       8       1       1
       0       8       1       1       0       8       1       1       0       8
       1       1       0       8       1       1       0       8       1       1
       0       8       1       1       0       8       1       1       0       8
       1       1       0       8       1       1       0       8       1       1
       0       8       1       1       0       8       1       1       0       8
       1       1       0       8       1       1       0       8       1       1
       0       8       1       1       0       8       1       1       0       8
       1       1       0       8       1       1       0       8       1       1
       0       8       1       1       0       8       1       1       0       8
       1       1       0       8       1       1       0       8       1       1
       0       8       1       1       0       8       1       1       0       8
       1       1       0       8       1       1       0       8       1       1
       0       8       1       1       0       8       1       1       0       8
       1       1       0       8       1       1       0       8       1       1
       0       8       1       1       0       8       1       1       0       8
       1       1       0       8       1       1       0       8       1       1
       0       8       1       1       0       8       1       1       0       8
       1       1       0       8       1       1       0       8       1       1
       0       8       1       1       0       8       1       1       0       8
       1       1       0       8       1       1       0       8       1       1
       0       8       1       1       0       8       1       1       0       8
       1       1       0       8       1       1       0       8       1       1
       0       8       1       1       0       8       1       1       0       8
       1       1       0       8       1       1       0       8       1       1
       0       8       1       1       0       8       1       1       0       8
       1       1       0       8       1       1       0       8       1       1
       0       8       1       1       0       8       1       1       0       8
       1       1       0       8       1       1       0       8       1       1
       0       8       1       1       0       8       1       1       0       8
       1       1       0       8       1       1       0       8       1       1
       0       8       1       1       0       8       1       1       0       8
       1       1       0       8       1       1       0       8       1       1
       0       8       1       1       0       8       1       1       0       8
       1       1       0       8       1       1       0       8       1       1
       0       8       1       1       0       8       1       1       0       8
       1       1       0       8       1       1       0       8       1       1
       0       8       1       1       0       8       1       1       0       8
       1       1       0       8       1       1       0       8       1       1
       0       8       1       1       0       8       1       1       0       8
       1       1       0       8       1       1       0       8       1       1
       0       8       1       1       0       8       1       1       0       8
       1       1       0       8       1       1       0       8       1       1
       0       8       1       1       0       8       1       1       0       8
       1       1       0       8       1       1       0       8       1       1
       0       8       1       1       0       8       1       1       0       8
       1       1       0       8       1       1       0       8       1       1
       0       8       1       1       0       8       1       1       0       8
       1       1       0       8       1       1       0       8       1       1
       0       8       1       1       0       8       1       1       0       8
       1       1       0       8       1       1       0       8       1       1
       0       8       1       1       0       8       1       1       0       8
       1       1       0       8       1       1       0       8       1       1
       0       8       1       1       0       8       1       1       0       8
       1       1       0       8       1       1       0       8       1       1
       0       8       1       1       0       8       1       1       0       8
       1       1       0       8       1       1       0       8       1       1
       0       8       1       1       0       8       1       1       0       8
       1       1       0       8       1       1       0       8       1       1
       0       8       1       1       0       8       1       1       0       8
       1       1       0       8       1       1       0       8       1       1
       0       8       1       1       0       8       1       1       0       8
       1       1       0       8       1       1       0       8       1       1
       0       8       1       1       0       8       1       1       0       8
       1       1       0       8       1       1       0       8       1       1
       0       8       1       1       0       8       1       1       0       8
       1       1       0       8       1       1       0       8       1       1
       0       8       1       1       0       8       1       1       0       8
       1       1       0       8       1       1       0       8       1       1
       0       8       1       1       0       8       1       1       0       8
       1       1       0       8       1       1       0       8       1       1
       0       8       1       1       0       8       1       1       0       8
       1       1       0       8       1       1       0       8       1       1
       0       8       1       1       0       8       1       1       0       8
       1       1       0       8       1       1       0       8       1       1
       0       8       1       1       0       8       1       1       0       8
       1       1       0       8       1       1       0       8       1       1
       0       8       1       1       0       8       1       1       0       8
       1       1       0       8       1       1       0       8       1       1
       0       8       1       1       0       8       1       1       0       8
       1       1       0       8       1       1       0       8       1       1
       0       8       1       1       0       8       1       1       0       8
       1       1       0       8       1       1       0       8       1       1
       0       8       1       1       0       8       1       1       0       8
       1       1       0       8       1       1       0       8       1       1
       0       8       1       1       0       8       1       1       0       8
       1       1       0       8       1       1       0       8       1       1
       0       8       1       1       0       8       1       1       0       8
       1       1       0       8       1       1       0       8       1       1
       0       8       1       1       0       8       1       1       0       8
       1       1       0       8       1       1       0       8       1       1
       0       8       1       1       0       8       1       1       0       8
       1       1       0       8       1       1       0       8       1       1
       0       8       1       1       0       8       1       1       0       8
       1       1       0       8       1       1       0       8       1       1
       0       8       1       1       0       8       1       1       0       8
       1       1       0       8       1       1       0       8       1       1
       0       8       1       1       0       8       1       1       0       8
       1       1       0       8       1       1       0       8       1       1
       0       8       1       1       0       8       1       1       0       8
       1       1       0       8       1       1       0       8       1       1
       0       8       1       1       0       8       1       1       0       8
       1       1       0       8       1       1       0       8       1       1
       0       8       1       1       0       8       1       1       0       8
       1       1       0       8       1       1       0       8       1       1
       0       8       1       1       0       8       1       1       0       8
       1       1       0       8       1       1       0       8       1       1
       0       8       1       1       0       8       1       1       0       8
       1       1       0       8       1       1       0       8       1       1
       0       8       1       1       0       8       1       1       0       8
       1       1       0       8       1       1       0       8       1       1
       0       8       1       1       0       8       1       1       0       8
       1       1       0       8       1       1       0       8       1       1
       0       8       1       1       0       8       1       1       0       8
       1       1       0       8       1       1       0       8       1       1
       0       8       1       1       0       8       1       1       0       8
       1       1       0       8       1       1       0       8       1       1
       0       8       1       1       0       8       1       1       0       8
       1       1       0       8       1       1       0       8       1       1
       0       8       1       1       0       8       1       1       0       8
       1       1       0       8       1       1       0       8       1       1
       0       8       1       1       0       8       1       1       0       8
       1       1       0       8       1       1       0       8       1       1
       0       8       1       1       0       8       1       1       0       8
       1       1       0       8       1       1       0       8       1       1
       0       8       1       1       0       8       1       1       0       8
       1       1       0       8       1       1       0       8       1       1
       0       8       1       1       0       8       1       1       0       8
       1       1       0       8       1       1       0       8       1       1
       0       8       1       1       0       8       1       1       0       8
       1       1       0       8       1       1       0       8       1       1
       0       8       1       1       0       8       1       1       0       8
       1       1       0       8       1       1       0       8       1       1
       0       8       1       1       0       8       1       1       0       8
       1       1       0       8       1       1       0       8       1       1
       0       8       1       1       0       8       1       1       0       8
       1       1       0       8       1       1       0       8       1       1
       0       8       1       1       0       8       1       1       0       8
       1       1       0       8       1       1       0       8       1       1
       0       8       1       1       0       8       1       1       0       8
       1       1       0       8       1       1       0       8       1       1
       0       8       1       1       0       8       1       1       0       8
       1       1       0       8       1       1       0       8       1       1
       0       8       1       1       0       8       1       1       0       8
       1       1       0       8       1       1       0       8       1       1
       0       8       1       1       0       8       1       1       0       8
       1       1       0       8       1       1       0       8       1       1
       0       8       1       1       0       8       1       1       0       8
       1       1       0       8       1       1       0       8       1       1
       0       8       1       1       0       8       1       1       0       8
       1       1       0       8       1       1       0       8       1       1
       0       8       1       1       0       8       1       1       0       8
       1       1       0       8       1       1       0       8       1       1
       0       8       1       1       0       8       1       1       0       8
       1       1       0       8       1       1       0       8       1       1
       0       8       1       1       0       8       1       1       0       8
       1       1       0       8       1       1       0       8       1       1
       0       8       1       1       0       8       1       1       0       8
       1       1       0       8       1       1       0       8       1       1
       0       8       1       1       0       8       1       1       0       8
       1       1       0       8       1       1       0       8       1       1
       0       8       1       1       0       8       1       1       0       8
       1       1       0       8       1       1       0       8       1       1
       0       8       1       1       0       8       1       1       0       8
       1       1       0       8       1       1       0       8       1       1
       0       8       1       1       0       8       1       1       0       8
       1       1       0       8       1       1       0       8       1       1
       0       8       1       1       0       8       1       1       0       8
       1       1       0       8       1       1       0       8       1       1
       0       8       1       1       0       8       1       1       0       8
       1       1       0       8       1       1       0       8       1       1
       0       8       1       1       0       8       1       1       0       8
       1       1       0       8       1       1       0       8       1       1
       0       8       1       1       0       8       1       1       0       8
       1       1       0       8       1       1       0       8       1       1
       0       8       1       1       0       8       1       1       0       8
       1       1       0       8       1       1       0       8       1       1
       0       8       1       1       0       8       1       1       0       8
       1       1       0       8       1       1       0       8       1       1
       0       8       1       1       0       8       1       1       0       8
       1       1       0       8       1       1       0       8       1       1
       0       8       1       1       0       8       1       1       0       8
       1       1       0       8       1       1       0       8       1       1
       0       8       1       1       0       8       1       1       0       8
       1       1       0       8       1       1       0       8       1       1
       0       8       1       1       0       8       1       1       0       8
       1       1       0       8       1       1       0       8       1       1
       0       8       1       1       0       8       1       1       0       8
       1       1       0       8       1       1       0       8       1       1
       0       8       1       1       0       8       1       1       0       8
       1       1       0       8       1       1       0       8       1       1
       0       8       1       1       0       8       1       1       0       8
       1       1       0       8       1       1       0       8       1       1
       0       8       1       1       0       8       1       1       0       8
       1       1       0       8       1       1       0       8       1       1
       0       8       1       1       0       8       1       1       0       8
       1       1       0       8       1       1       0       8       1       1
       0       8       1       1       0       8       1       1       0       8
       1       1       0       8       1       1       0       8       1       1
       0       8       1       1       0       8       1       1       0       8
       1       1       0       8       1       1       0       8       1       1
       0       8       1       1       0       8       1       1       0       8
       1       1       0       8       1       1       0       8       1       1
       0       8       1       1       0       8       1       1       0       8
       1       1       0       8       1       1       0       8       1       1
       0       8       1       1       0       8       1       1       0       8
       1       1       0       8       1       1       0       8       1       1
       0       8       1       1       0       8       1       1       0       8
       1       1       0       8       1       1       0       8       1       1
       0       8       1       1       0       8       1       1       0       8
       1       1       0       8       1       1       0       8       1       1
       0       8       1       1       0       8       1       1       0       8
       1       1       0       8       1       1       0       8       1       1
       0       8       1       1       0       8       1       1       0       8
       1       1       0       8       1       1       0       8       1       1
       0       8       1       1       0       8       1       1       0       8
       1       1       0       8       1       1       0       8       1       1
       0       8       1       1       0       8       1       1       0       8
       1       1       0       8       1       1       0       8       1       1
       0       8       1       1       0       8       1       1       0       8
       1       1       0       8       1       1       0       8       1       1
       0       8       1       1       0       8       1       1       0       8
       1       1       0       8       1       1       0       8       1       1
       0       8       1       1       0       8       1       1       0       8
       1       1       0       8       1       1       0       8       1       1
       0       8       1       1       0       8       1       1       0       8
       1       1       0       8       1       1       0       8       1       1
       0       8       1       1       0       8       1       1       0       8
       1       1       0       8       1       1       0       8       1       1
       0       8       1       1       0       8       1       1       0       8
       1       1       0       8       1       1       0       8       1       1
       0       8       1       1       0       8       1       1       0       8
       1       1       0       8       1       1       0       8       1       1
       0       8       1       1       0       8       1       1       0       8
       1       1       0       8       1       1       0       8       1       1
       0       8       1       1       0       8       1       1       0       8
       1       1       0       8       1       1       0       8       1       1
       0       8       1       1       0       8       1       1       0       8
       1       1       0       8       1       1       0       8       1       1
       0       8       1       1       0       8       1       1       0       8
       1       1       0       8       1       1       0       8       1       1
       0       8       1       1       0       8       1       1       0       8
       1       1       0       8       1       1       0       8       1       1
       0       8       1       1       0       8       1       1       0       8
       1       1       0       8       1       1       0       8       1       1
       0       8       1       1       0       8       1       1       0       8
       1       1       0       8       1       1       0       8       1       1
       0       8       1       1       0       8       1       1       0       8
       1       1       0       8       1       1       0       8       1       1
       0       8       1       1       0       8       1       1       0       8
       1       1       0       8       1       1       0       8       1       1
       0       8       1       1       0       8       1       1       0       8
       1       1       0       8       1       1       0       8       1       1
       0       8       1       1       0       8       1       1       0       8
       1       1       0       8       1       1       0       8       1       1
       0       8       1       1       0       8       1       1       0       8
       1       1       0       8       1       1       0       8       1       1
       0       8       1       1       0       8       1       1       0       8
       1       1       0       8       1       1       0       8       1       1
       0       8       1       1       0       8       1       1       0       8
       1       1       0       8       1       1       0       8       1       1
       0       8       1       1       0       8       1       1       0       8
       1       1       0       8       1       1       0       8       1       1
       0       8       1       1       0       8       1       1       0       8
       1       1       0       8       1       1       0       8       1       1
       0       8       1       1       0       8       1       1       0       8
       1       1       0       8       1       1       0       8       1       1
       0       8       1       1       0       8       1       1       0       8
       1       1       0       8       1       1       0       8       1       1
       0       8       1       1       0       8       1       1       0       8
       1       1       0       8       1       1       0       8       1       1
       0       8       1       1       0       8       1       1       0       8
       1       1       0       8       1       1       0       8       1       1
       0       8       1       1       0       8       1       1       0       8
       1       1       0       8       1       1       0       8       1       1
       0       8       1       1       0       8       1       1       0       8
       1       1       0       8       1       1       0       8       1       1
       0       8       1       1       0       8       1       1       0       8
       1       1       0       8       1       1       0       8       1       1
       0       8       1       1       0       8       1       1       0       8
       1       1       0       8       1       1       0       8       1       1
       0       8       1       1       0       8       1       1       0       8
       1       1       0       8       1       1       0       8       1       1
       0       8       1       1       0       8       1       1       0       8
       1       1       0       8       1       1       0       8       1       1
       0       8       1       1       0       8       1       1       0       8
       1       1       0       8       1       1       0       8       1       1
       0       8       1       1       0       8       1       1       0       8
       1       1       0       8       1       1       0       8       1       1
       0       8       1       1       0       8       1       1       0       8
       1       1       0       8       1       1       0       8       1       1
       0       8       1       1       0       8       1       1       0       8
       1       1       0       8       1       1       0       8       1       1
       0       8       1       1       0       8       1       1       0       8
       1       1       0       8       1       1       0       8       1       1
       0       8       1       1       0       8       1       1       0       8
       1       1       0       8       1       1       0       8       1       1
       0       8       1       1       0       8       1       1       0       8
       1       1       0       8       1       1       0       8       1       1
       0       8       1       1       0       8       1       1       0       8
       1       1       0       8       1       1       0       8       1       1
       0       8       1       1       0       8       1       1       0       8
       1       1       0       8       1       1       0       8       1       1
       0       8       1       1       0       8       1       1       0       8
       1       1       0       8       1       1       0       8       1       1
       0       8       1       1       0       8       1       1       0       8
       1       1       0       8       1       1       0       8       1       1
       0       8       1       1       0       8       1       1       0       8
       1       1       0       8       1       1       0       8       1       1
       0       8       1       1       0       8       1       1       0       8
       1       1       0       8       1       1       0       8       1       1
       0       8       1       1       0       8       1       1       0       8
       1       1       0       8       1       1       0       8       1       1
       0       8       1       1       0       8       1       1       0       8
       1       1       0       8       1       1       0       8       1       1
       0       8       1       1       0       8       1       1       0       8
       1       1       0       8       1       1       0       8       1       1
       0       8       1       1       0       8       1       1       0       8
       1       1       0       8       1       1       0       8       1       1
       0       8       1       1       0       8       1       1       0       8
       1       1       0       8       1       1       0       8       1       1
       0       8       1       1       0       8       1       1       0       8
       1       1       0       8       1       1       0       8       1       1
       0       8       1       1       0       8       1       1       0       8
       1       1       0       8       1       1       0       8       1       1
       0       8       1       1       0       8       1       1       0       8
       1       1       0       8       1       1       0       8       1       1
       0       8       1       1       0       8       1       1       0       8
       1       1       0       8       1       1       0       8       1       1
       0       8       1       1       0       8       1       1       0       8
       1       1       0       8       1       1       0       8       1       1
       0       8       1       1       0       8       1       1       0       8
       1       1       0       8       1       1       0       8       1       1
       0       8       1       1       0       8       1       1       0       8
       1       1       0       8       1       1       0       8       1       1
       0       8       1       1       0       8       1       1       0       8
       1       1       0       8       1       1       0       8       1       1
       0       8       1       1       0       8       1       1       0       8
       1       1       0       8       1       1       0       8       1       1
       0       8       1       1       0       8       1       1       0       8
       1       1       0       8       1       1       0       8       1       1
       0       8       1       1       0       8       1       1       0       8
       1       1       0       8       1       1       0       8       1       1
       0       8       1       1       0       8       1       1       0       8
       1       1       0       8       1       1       0       8       1       1
       0       8       1       1       0       8       1       1       0       8
       1       1       0       8       1       1       0       8       1       1
       0       8       1       1       0       8       1       1       0       8
       1       1       0       8       1       1       0       8       1       1
       0       8       1       1       0       8       1       1       0       8
       1       1       0       8       1       1       0       8       1       1
       0       8       1       1       0       8       1       1       0       8
       1       1       0       8       1       1       0       8       1       1
       0       8       1       1       0       8       1       1       0       8
       1       1       0       8       1       1       0       8       1       1
       0       8       1       1       0       8       1       1       0       8
       1       1       0       8       1       1       0       8       1       1
       0       8       1       1       0       8       1       1       0       8
       1       1       0       8       1       1       0       8       1       1
       0       8       1       1       0       8       1       1       0       8
       1       1       0       8       1       1       0       8       1       1
       0       8       1       1       0       8       1       1       0       8
       1       1       0       8       1       1       0       8       1       1
       0       8       1       1       0       8       1       1       0       8
       1       1       0       8       1       1       0       8       1       1
       0       8       1       1       0       8       1       1       0       8
       1       1       0       8       1       1       0       8       1       1
       0       8       1       1       0       8       1       1       0       8
       1       1       0       8       1       1       0       8       1       1
       0       8       1       1       0       8       1       1       0       8
       1       1       0       8       1       1       0       8       1       1
       0       8       1       1       0       8       1       1       0       8
       1       1       0       8       1       1       0       8       1       1
       0       8       1       1       0       8       1       1       0       8
       1       1       0       8       1       1       0       8       1       1
       0       8       1       1       0       8       1       1       0       8
       1       1       0       8       1       1       0       8       1       1
       0       8       1       1       0       8       1       1       0       8
       1       1       0       8       1       1       0       8       1       1
       0       8       1       1       0       8       1       1       0       8
       1       1       0       8       1       1       0       8       1       1
       0       8       1       1       0       8       1       1       0       8
       1       1       0       8       1       1       0       8       1       1
       0       8       1       1       0       8       1       1       0       8
       1       1       0       8       1       1       0       8       1       1
       0       8       1       1       0       8       1       1       0       8
       1       1       0       8       1       1       0       8       1       1
       0       8       1       1       0       8       1       1       0       8
       1       1       0       8       1       1       0       8       1       1
       0       8       1       1       0       8       1       1       0       8
       1       1       0       8       1       1       0       8       1       1
       0       8       1       1       0       8       1       1       0       8
       1       1       0       8       1       1       0       8       1       1
       0       8       1       1       0       8       1       1       0       8
       1       1       0       8       1       1       0       8       1       1
       0       8       1       1       0       8       1       1       0       8
       1       1       0       8       1       1       0       8       1       1
       0       8       1       1       0       8       1       1       0       8
       1       1       0       8       1       1       0       8       1       1
       0       8       1       1       0       8       1       1       0       8
       1       1       0       8       1       1       0       8       1       1
       0       8       1       1       0       8       1       1       0       8
       1       1       0       8       1       1       0       8       1       1
       0       8       1       1       0       8       1       1       0       8
       1       1       0       8       1       1       0       8       1       1
       0       8       1       1       0       8       1       1       0       8
       1       1       0       8       1       1       0       8       1       1
       0       8       1       1       0       8       1       1       0       8
       1       1       0       8       1       1       0       8       1       1
       0       8       1       1       0       8       1       1       0       8
       1       1       0       8       1       1       0       8       1       1
       0       8       1       1       0       8       1       1       0       8
       1       1       0       8       1       1       0       8       1       1
       0       8       1       1       0       8       1       1       0       8
       1       1       0       8       1       1       0       8       1       1
       0       8       1       1       0       8       1       1       0       8
       1       1       0       8       1       1       0       8       1       1
       0       8       1       1       0       8       1       1       0       8
       1       1       0       8       1       1       0       8       1       1
       0       8       1       1       0       8       1       1       0       8
       1       1       0       8       1       1       0       8       1       1
       0       8       1       1       0       8       1       1       0       8
       1       1       0       8       1       1       0       8       1       1
       0       8       1       1       0       8       1       1       0       8
       1       1       0       8       1       1       0       8       1       1
       0       8       1       1       0       8       1       1       0       8
       1       1       0       8       1       1       0       8       1       1
       0       8       1       1       0       8       1       1       0       8
       1       1       0       8       1       1       0       8       1       1
       0       8       1       1       0       8       1       1       0       8
       1       1       0       8       1       1       0       8       1       1
       0       8       1       1       0       8       1       1       0       8
       1       1       0       8       1       1       0       8       1       1
       0       8       1       1       0       8       1       1       0       8
       1       1       0       8       1       1       0       8       1       1
       0       8       1       1       0       8       1       1       0       8
       1       1       0       8       1       1       0       8       1       1
       0       8       1       1       0       8       1       1       0       8
       1       1       0       8       1       1       0       8       1       1
       0       8       1       1       0       8       1       1       0       8
       1       1       0       8       1       1       0       8       1       1
       0       8       1       1       0       8       1       1       0       8
       1       1       0       8       1       1       0       8       1       1
       0       8       1       1       0       8       1       1       0       8
       1       1       0       8       1       1       0       8       1       1
       0       8       1       1       0       8       1       1       0       8
       1       1       0       8       1       1       0       8       1       1
       0       8       1       1       0       8       1       1       0       8
       1       1       0       8       1       1       0       8       1       1
       0       8       1       1       0       8       1       1       0       8
       1       1       0       8       1       1       0       8       1       1
       0       8       1       1       0       8       1       1       0       8
       1       1       0       8       1       1       0       8       1       1
       0       8       1       1       0       8       1       1       0       8
       1       1       0       8       1       1       0       8       1       1
       0       8       1       1       0       8       1       1       0       8
       1       1       0       8       1       1       0       8       1       1
       0       8       1       1       0       8       1       1       0       8
       1       1       0       8       1       1       0       8       1       1
       0       8       1       1       0       8       1       1       0       8
       1       1       0       8       1       1       0       8       1       1
       0       8       1       1       0       8       1       1       0       8
       1       1       0       8       1       1       0       8       1       1
       0       8       1       1       0       8       1       1       0       8
       1       1       0       8       1       1       0       8       1       1
       0       8       1       1       0       8       1       1       0       8
       1       1       0       8       1       1       0       8       1       1
       0       8       1       1       0       8       1       1       0       8
       1       1       0       8       1       1       0       8       1       1
       0       8       1       1       0       8       1       1       0       8
       1       1       0       8       1       1       0       8       1       1
       0       8       1       1       0       8       1       1       0       8
       1       1       0       8       1       1       0       8       1       1
       0       8       1       1       0       8       1       1       0       8
       1       1       0       8       1       1       0       8       1       1
       0       8       1       1       0       8       1       1       0       8
       1       1       0       8       1       1       0       8       1       1
       0       8       1       1       0       8       1       1       0       8
       1       1       0       8       1       1       0       8       1       1
       0       8       1       1       0       8       1       1       0       8
       1       1       0       8       1       1       0       8       1       1
       0       8       1       1       0       8       1       1       0       8
       1       1       0       8       1       1       0       8       1       1
       0       8       1       1       0       8       1       1       0       8
       1       1       0       8       1       1       0       8       1       1
       0       8       1       1       0       8       1       1       0       8
       1       1       0       8       1       1       0       8       1       1
       0       8       1       1       0       8       1       1       0       8
       1       1       0       8       1       1       0       8       1       1
       0       8       1       1       0       8       1       1       0       8
       1       1       0       8       1       1       0       8       1       1
       0       8       1       1       0       8       1       1       0       8
       1       1       0       8       1       1       0       8       1       1
       0       8       1       1       0       8       1       1       0       8
       1       1       0       8       1       1       0       8       1       1
       0       8       1       1       0       8       1       1       0       8
       1       1       0       8       1       1       0       8       1       1
       0       8       1       1       0       8       1       1       0       8
       1       1       0       8       1       1       0       8       1       1
       0       8       1       1       0       8       1       1       0       8
       1       1       0       8       1       1       0       8       1       1
       0       8       1       1       0       8       1       1       0       8
       1       1       0       8       1       1       0       8       1       1
       0       8       1       1       0       8       1       1       0       8
       1       1       0       8       1       1       0       8       1       1
       0       8       1       1       0       8       1       1       0       8
       1       1       0       8       1       1       0       8       1       1
       0       8       1       1       0       8       1       1       0       8
       1       1       0       8       1       1       0       8       1       1
       0       8       1       1       0       8       1       1       0       8
       1       1       0       8       1       1       0       8       1       1
       0       8       1       1       0       8       1       1       0       8
       1       1       0       8       1       1       0       8       1       1
       0       8       1       1       0       8       1       1       0       8
       1       1       0       8       1       1       0       8       1       1
       0       8       1       1       0       8       1       1       0       8
       1       1       0       8       1       1       0       8       1       1
       0       8       1       1       0       8       1       1       0       8
       1       1       0       8       1       1       0       8       1       1
       0       8       1       1       0       8       1       1       0       8
       1       1       0       8       1       1       0       8       1       1
       0       8       1       1       0       8       1       1       0       8
       1       1       0       8       1       1       0       8       1       1
       0       8       1       1       0       8       1       1       0       8
       1       1       0       8       1       1       0       8       1       1
       0       8       1       1       0       8       1       1       0       8
       1       1       0       8       1       1       0       8       1       1
       0       8       1       1       0       8       1       1       0       8
       1       1       0       8       1       1       0       8       1       1
       0       8       1       1       0       8       1       1       0       8
       1       1       0       8       1       1       0       8       1       1
       0       8       1       1       0       8       1       1       0       8
       1       1       0       8       1       1       0       8       1       1
       0       8       1       1       0       8       1       1       0       8
       1       1       0       8       1       1       0       8       1       1
       0       8       1       1       0       8       1       1       0       8
       1       1       0       8       1       1       0       8       1       1
       0       8       1       1       0       8       1       1       0       8
       1       1       0       8       1       1       0       8       1       1
       0       8       1       1       0       8       1       1       0       8
       1       1       0       8       1       1       0       8       1       1
       0       8       1       1       0       8       1       1       0       8
       1       1       0       8       1       1       0       8       1       1
       0       8       1       1       0       8       1       1       0       8
       1       1       0       8       1       1       0       8       1       1
       0       8       1       1       0       8       1       1       0       8
       1       1       0       8       1       1       0       8       1       1
       0       8       1       1       0       8       1       1       0       8
       1       1       0       8       1       1       0       8       1       1
       0       8       1       1       0       8       1       1       0       8
       1       1       0       8       1       1       0       8       1       1
       0       8       1       1       0       8       1       1       0       8
       1       1       0       8       1       1       0       8       1       1
       0       8       1       1       0       8       1       1       0       8
       1       1       0       8       1       1       0       8       1       1
       0       8       1       1       0       8       1       1       0       8
       1       1       0       8       1       1       0       8       1       1
       0       8       1       1       0       8       1       1       0       8
       1       1       0       8       1       1       0       8       1       1
       0       8       1       1       0       8       1       1       0       8
       1       1       0       8       1       1       0       8       1       1
       0       8       1       1       0       8       1       1       0       8
       1       1       0       8       1       1       0       8       1       1
       0       8       1       1       0       8       1       1       0       8
       1       1       0       8       1       1       0       8       1       1
       0       8       1       1       0       8       1       1       0       8
       1       1       0       8       1       1       0       8       1       1
       0       8       1       1       0       8       1       1       0       8
       1       1       0       8       1       1       0       8       1       1
       0       8       1       1       0       8       1       1       0       8
       1       1       0       8       1       1       0       8       1       1
       0       8       1       1       0       8       1       1       0       8
       1       1       0       8       1       1       0       8       1       1
       0       8       1       1       0       8       1       1       0       8
       1       1       0       8       1       1       0       8       1       1
       0       8       1       1       0       8       1       1       0       8
       1       1       0       8       1       1       0       8       1       1
       0       8       1       1       0       8       1       1       0       8
       1       1       0       8       1       1       0       8       1       1
       0       8       1       1       0       8       1       1       0       8
       1       1       0       8       1       1       0       8       1       1
       0       8       1       1       0       8       1       1       0       8
       1       1       0       8       1       1       0       8       1       1
       0       8       1       1       0       8       1       1       0       8
       1       1       0       8       1       1       0       8       1       1
       0       8       1       1       0       8       1       1       0       8
       1       1       0       8       1       1       0       8       1       1
       0       8       1       1       0       8       1       1       0       8
       1       1       0       8       1       1       0       8       1       1
       0       8       1       1       0       8       1       1       0       8
       1       1       0       8       1       1       0       8       1       1
       0       8       1       1       0       8       1       1       0       8
       1       1       0       8       1       1       0       8       1       1
       0       8       1       1       0       8       1       1       0       8
       1       1       0       8       1       1       0       8       1       1
       0       8       1       1       0       8       1       1       0       8
       1       1       0       8       1       1       0       8       1       1
       0       8       1       1       0       8       1       1       0       8
       1       1       0       8       1       1       0       8       1       1
       0       8       1       1       0       8       1       1       0       8
       1       1       0       8       1       1       0       8       1       1
       0       8       1       1       0       8       1       1       0       8
       1       1       0       8       1       1       0       8       1       1
       0       8       1       1       0       8       1       1       0       8
       1       1       0       8       1       1       0       8       1       1
       0       8       1       1       0       8       1       1       0       8
       1       1       0       8       1       1       0       8       1       1
       0       8       1       1       0       8       1       1       0       8
       1       1       0       8       1       1       0       8       1       1
       0       8       1       1       0       8       1       1       0       8
       1       1       0       8       1       1       0       8       1       1
       0       8       1       1       0       8       1       1       0       8
       1       1       0       8       1       1       0       8       1       1
       0       8       1       1       0       8       1       1       0       8
       1       1       0       8       1       1       0       8       1       1
       0       8       1       1       0       8       1       1       0       8
       1       1       0       8       1       1       0       8       1       1
       0       8       1       1       0       8       1       1       0       8
       1       1       0       8       1       1       0       8       1       1
       0       8       1       1       0       8       1       1       0       8
       1       1       0       8       1       1       0       8       1       1
       0       8       1       1       0       8       1       1       0       8
       1       1       0       8       1       1       0       8       1       1
       0       8       1       1       0       8       1       1       0       8
       1       1       0       8       1       1       0       8       1       1
       0       8       1       1       0       8       1       1       0       8
       1       1       0       8       1       1       0       8       1       1
       0       8       1       1       0       8       1       1       0       8
       1       1       0       8       1       1       0       8       1       1
       0       8       1       1       0       8       1       1       0       8
       1       1       0       8       1       1       0       8       1       1
       0       8       1       1       0       8       1       1       0       8
       1       1       0       8       1       1       0       8       1       1
       0       8       1       1       0       8       1       1       0       8
       1       1       0       8       1       1       0       8       1       1
       0       8       1       1       0       8       1       1       0       8
       1       1       0       8       1       1       0       8       1       1
       0       8       1       1       0       8       1       1       0       8
       1       1       0       8       1       1       0       8       1       1
       0       8       1       1       0       8       1       1       0       8
       1       1       0       8       1       1       0       8       1       1
       0       8       1       1       0       8       1       1       0       8
       1       1       0       8       1       1       0       8       1       1
       0       8       1       1       0       8       1       1       0       8
       1       1       0       8       1       1       0       8       1       1
       0       8       1       1       0       8       1       1       0       8
       1       1       0       8       1       1       0       8       1       1
       0       8       1       1       0       8       1       1       0       8
       1       1       0       8       1       1       0       8       1       1
       0       8       1       1       0       8       1       1       0       8
       1       1       0       8       1       1       0       8       1       1
       0       8       1       1       0       8       1       1       0       8
       1       1       0       8       1       1       0       8       1       1
       0       8       1       1       0       8       1       1       0       8
       1       1       0       8       1       1       0       8       1       1
       0       8       1       1       0       8       1       1       0       8
       1       1       0       8       1       1       0       8       1       1
       0       8       1       1       0       8       1       1       0       8
       1       1       0       8       1       1       0       8       1       1
       0       8       1       1       0       8       1       1       0       8
       1       1       0       8       1       1       0       8       1       1
       0       8       1       1       0       8       1       1       0       8
       1       1       0       8       1       1       0       8       1       1
       0       8       1       1       0       8       1       1       0       8
       1       1       0       8       1       1       0       8       1       1
       0       8       1       1       0       8       1       1       0       8
       1       1       0       8       1       1       0       8       1       1
       0       8       1       1       0       8       1       1       0       8
       1       1       0       8       1       1       0       8       1       1
       0       8       1       1       0       8       1       1       0       8
       1       1       0       8       1       1       0       8       1       1
       0       8       1       1       0       8       1       1       0       8
       1       1       0       8       1       1       0       8       1       1
       0       8       1       1       0       8       1       1       0       8
       1       1       0       8       1       1       0       8       1       1
       0       8       1       1       0       8       1       1       0       8
       1       1       0       8       1       1       0       8       1       1
       0       8       1       1       0       8       1       1       0       8
       1       1       0       8       1       1       0       8       1       1
       0       8       1       1       0       8       1       1       0       8
       1       1       0       8       1       1       0       8       1       1
       0       8       1       1       0       8       1       1       0       8
       1       1       0       8       1       1       0       8       1       1
       0       8       1       1       0       8       1       1       0       8
       1       1       0       8       1       1       0       8       1       1
       0       8       1       1       0       8       1       1       0       8
       1       1       0       8       1       1       0       8       1       1
       0       8       1       1       0       8       1       1       0       8
       1       1       0       8       1       1       0       8       1       1
       0       8       1       1       0       8       1       1       0       8
       1       1       0       8       1       1       0       8       1       1
       0       8       1       1       0       8       1       1       0       8
       1       1       0       8       1       1       0       8       1       1
       0       8       1       1       0       8       1       1       0       8
       1       1       0       8       1       1       0       8       1       1
       0       8       1       1       0       8       1       1       0       8
       1       1       0       8       1       1       0       8       1       1
       0       8       1       1       0       8       1       1       0       8
       1       1       0       8       1       1       0       8       1       1
       0       8       1       1       0       8       1       1       0       8
       1       1       0       8       1       1       0       8       1       1
       0       8       1       1       0       8       1       1       0       8
       1       1       0       8       1       1       0       8       1       1
       0       8       1       1       0       8       1       1       0       8
       1       1       0       8       1       1       0       8       1       1
       0       8       1       1       0       8       1       1       0       8
       1       1       0       8       1       1       0       8       1       1
       0       8       1       1       0       8       1       1       0       8
       1       1       0       8       1       1       0       8       1       1
       0       8       1       1       0       8       1       1       0       8
       1       1       0       8       1       1       0       8       1       1
       0       8       1       1       0       8       1       1       0       8
       1       1       0       8       1       1       0       8       1       1
       0       8       1       1       0       8       1       1       0       8
       1       1       0       8       1       1       0       8       1       1
       0       8       1       1       0       8       1       1       0       8
       1       1       0       8       1       1       0       8       1       1
       0       8       1       1       0       8       1       1       0       8
       1       1       0       8       1       1       0       8       1       1
       0       8       1       1       0       8       1       1       0       8
       1       1       0       8       1       1       0       8       1       1
       0       8       1       1       0       8       1       1       0       8
       1       1       0       8       1       1       0       8       1       1
       0       8       1       1       0       8       1       1       0       8
       1       1       0       8       1       1       0       8       1       1
       0       8       1       1       0       8       1       1       0       8
       1       1       0       8       1       1       0       8       1       1
       0       8       1       1       0       8       1       1       0       8
       1       1       0       8       1       1       0       8       1       1
       0       8       1       1       0       8       1       1       0       8
       1       1       0       8       1       1       0       8       1       1
       0       8       1       1       0       8       1       1       0       8
       1       1       0       8       1       1       0       8       1       1
       0       8       1       1       0       8       1       1       0       8
       1       1       0       8       1       1       0       8       1       1
       0       8       1       1       0       8       1       1       0       8
       1       1       0       8       1       1       0       8       1       1
       0       8       1       1       0       8       1       1       0       8
       1       1       0       8       1       1       0       8       1       1
       0       8       1       1       0       8       1       1       0       8
       1       1       0       8       1       1       0       8       1       1
       0       8       1       1       0       8       1       1       0       8
       1       1       0       8       1       1       0       8       1       1
       0       8       1       1       0       8       1       1       0       8
       1       1       0       8       1       1       0       8       1       1
       0       8       1       1       0       8       1       1       0       8
       1       1       0       8       1       1       0       8       1       1
       0       8       1       1       0       8       1       1       0       8
       1       1       0       8       1       1       0       8       1       1
       0       8       1       1       0       8       1       1       0       8
       1       1       0       8       1       1       0       8       1       1
       0       8       1       1       0       8       1       1       0       8
       1       1       0       8       1       1       0       8       1       1
       0       8       1       1       0       8       1       1       0       8
       1       1       0       8       1       1       0       8       1       1
       0       8       1       1       0       8       1       1       0       8
       1       1       0       8       1       1       0       8       1       1
       0       8       1       1       0       8       1       1       0       8
       1       1       0       8       1       1       0       8       1       1
       0       8       1       1       0       8       1       1       0       8
       1       1       0       8       1       1       0       8       1       1
       0       8       1       1       0       8       1       1       0       8
       1       1       0       8       1       1       0       8       1       1
       0       8       1       1       0       8       1       1       0       8
       1       1       0       8       1       1       0       8       1       1
       0       8       1       1       0       8       1       1       0       8
       1       1       0       8       1       1       0       8       1       1
       0       8       1       1       0       8       1       1       0       8
       1       1       0       8       1       1       0       8       1       1
       0       8       1       1       0       8       1       1       0       8
       1       1       0       8       1       1       0       8       1       1
       0       8       1       1       0       8       1       1       0       8
       1       1       0       8       1       1       0       8       1       1
       0       8       1       1       0       8       1       1       0       8
       1       1       0       8       1       1       0       8       1       1
       0       8       1       1       0       8       1       1       0       8
       1       1       0       8       1       1       0       8       1       1
       0       8       1       1       0       8       1       1       0       8
       1       1       0       8       1       1       0       8       1       1
       0       8       1       1       0       8       1       1       0       8
       1       1       0       8       1       1       0       8       1       1
       0       8       1       1       0       8       1       1       0       8
       1       1       0       8       1       1       0       8       1       1
       0       8       1       1       0       8       1       1       0       8
       1       1       0       8       1       1       0       8       1       1
       0       8       1       1       0       8       1       1       0       8
       1       1       0       8       1       1       0       8       1       1
       0       8       1       1       0       8       1       1       0       8
       1       1       0       8       1       1       0       8       1       1
       0       8       1       1       0       8       1       1       0       8
       1       1       0       8       1       1       0       8       1       1
       0       8       1       1       0       8       1       1       0       8
       1       1       0       8       1       1       0       8       1       1
       0       8       1       1       0       8       1       1       0       8
       1       1       0       8       1       1       0       8       1       1
       0       8       1       1       0       8       1       1       0       8
       1       1       0       8       1       1       0       8       1       1
       0       8       1       1       0       8       1       1       0       8
       1       1       0       8       1       1       0       8       1       1
       0       8       1       1       0       8       1       1       0       8
       1       1       0       8       1       1       0       8       1       1
       0       8       1       1       0       8       1       1       0       8
       1       1       0       8       1       1       0       8       1       1
       0       8       1       1       0       8       1       1       0       8
       1       1       0       8       1       1       0       8       1       1
       0       8       1       1       0       8       1       1       0       8
       1       1       0       8       1       1       0       8       1       1
       0       8       1       1       0       8       1       1       0       8
       1       1       0       8       1       1       0       8       1       1
       0       8       1       1       0       8       1       1       0       8
       1       1       0       8       1       1       0       8       1       1
       0       8       1       1       0       8       1       1       0       8
       1       1       0       8       1       1       0       8       1       1
       0       8       1       1       0       8       1       1       0       8
       1       1       0       8       1       1       0       8       1       1
       0       8       1       1       0       8       1       1       0       8
       1       1       0       8       1       1       0       8       1       1
       0       8       1       1       0       8       1       1       0       8
       1       1       0       8       1       1       0       8       1       1
       0       8       1       1       0       8       1       1       0       8
       1       1       0       8       1       1       0       8       1       1
       0       8       1       1       0       8       1       1       0       8
       1       1       0       8       1       1       0       8       1       1
       0       8       1       1       0       8       1       1       0       8
       1       1       0       8       1       1       0       8       1       1
       0       8       1       1       0       8       1       1       0       8
       1       1       0       8       1       1       0       8       1       1
       0       8       1       1       0       8       1       1       0       8
       1       1       0       8       1       1       0       8       1       1
       0       8       1       1       0       8       1       1       0       8
       1       1       0       8       1       1       0       8       1       1
       0       8       1       1       0       8       1       1       0       8
       1       1       0       8       1       1       0       8       1       1
       0       8       1       1       0       8       1       1       0       8
       1       1       0       8       1       1       0       8       1       1
       0       8       1       1       0       8       1       1       0       8
       1       1       0       8       1       1       0       8       1       1
       0       8       1       1       0       8       1       1       0       8
       1       1       0       8       1       1       0       8       1       1
       0       8       1       1       0       8       1       1       0       8
       1       1       0       8       1       1       0       8       1       1
       0       8       1       1       0       8       1       1       0       8
       1       1       0       8       1       1       0       8       1       1
       0       8       1       1       0       8       1       1       0       8
       1       1       0       8       1       1       0       8       1       1
       0       8       1       1       0       8       1       1       0       8
       1       1       0       8       1       1       0       8       1       1
       0       8       1       1       0       8       1       1       0       8
       1       1       0       8       1       1       0       8       1       1
       0       8       1       1       0       8       1       1       0       8
       1       1       0       8       1       1       0       8       1       1
       0       8       1       1       0       8       1       1       0       8
       1       1       0       8       1       1       0       8       1       1
       0       8       1       1       0       8       1       1       0       8
       1       1       0       8       1       1       0       8       1       1
       0       8       1       1       0       8       1       1       0       8
       1       1       0       8       1       1       0       8       1       1
       0       8       1       1       0       8       1       1       0       8
       1       1       0       8       1       1       0       8       1       1
       0       8       1       1       0       8       1       1       0       8
       1       1       0       8       1       1       0       8       1       1
       0       8       1       1       0       8       1       1       0       8
       1       1       0       8       1       1       0       8       1       1
       0       8       1       1       0       8       1       1       0       8
       1       1       0       8       1       1       0       8       1       1
       0       8       1       1       0       8       1       1       0       8
       1       1       0       8       1       1       0       8       1       1
       0       8       1       1       0       8       1       1       0       8
       1       1       0       8       1       1       0       8       1       1
       0       8       1       1       0       8       1       1       0       8
       1       1       0       8       1       1       0       8       1       1
       0       8       1       1       0       8       1       1       0       8
       1       1       0       8       1       1       0       8       1       1
       0       8       1       1       0       8       1       1       0       8
       1       1       0       8       1       1       0       8       1       1
       0       8       1       1       0       8       1       1       0       8
       1       1       0       8       1       1       0       8       1       1
       0       8       1       1       0       8       1       1       0       8
       1       1       0       8       1       1       0       8       1       1
       0       8       1       1       0       8       1       1       0       8
       1       1       0       8       1       1       0       8       1       1
       0       8       1       1       0       8       1       1       0       8
       1       1       0       8       1       1       0       8       1       1
       0       8       1       1       0       8       1       1       0       8
       1       1       0       8       1       1       0       8       1       1
       0       8       1       1       0       8       1       1       0       8
       1       1       0       8       1       1       0       8       1       1
       0       8       1       1       0       8       1       1       0       8
       1       1       0       8       1       1       0       8       1       1
       0       8       1       1       0       8       1       1       0       8
       1       1       0       8       1       1       0       8       1       1
       0       8       1       1       0       8       1       1       0       8
       1       1       0       8       1       1       0       8       1       1
       0       8       1       1       0       8       1       1       0       8
       1       1       0       8       1       1       0       8       1       1
       0       8       1       1       0       8       1       1       0       8
       1       1       0       8       1       1       0       8       1       1
       0       8       1       1       0       8       1       1       0       8
       1       1       0       8       1       1       0       8       1       1
       0       8       1       1       0       8       1       1       0       8
       1       1       0       8       1       1       0       8       1       1
       0       8       1       1       0       8       1       1       0       8
       1       1       0       8       1       1       0       8       1       1
       0       8       1       1       0       8       1       1       0       8
       1       1       0       8       1       1       0       8       1       1
       0       8       1       1       0       8       1       1       0       8
       1       1       0       8       1       1       0       8       1       1
       0       8       1       1       0       8       1       1       0       8
       1       1       0       8       1       1       0       8       1       1
       0       8       1       1       0       8       1       1       0       8
       1       1       0       8       1       1       0       8       1       1
       0       8       1       1       0       8       1       1       0       8
       1       1       0       8       1       1       0       8       1       1
       0       8       1       1       0       8       1       1       0       8
       1       1       0       8       1       1       0       8       1       1
       0       8       1       1       0       8       1       1       0       8
       1       1       0       8       1       1       0       8       1       1
       0       8       1       1       0       8       1       1       0       8
       1       1       0       8       1       1       0       8       1       1
       0       8       1       1       0       8       1       1       0       8
       1       1       0       8       1       1       0       8       1       1
       0       8       1       1       0       8       1       1       0       8
       1       1       0       8       1       1       0       8       1       1
       0       8       1       1       0       8       1       1       0       8
       1       1       0       8       1       1       0       8       1       1
       0       8       1       1       0       8       1       1       0       8
       1       1       0       8       1       1       0       8       1       1
       0       8       1       1       0       8       1       1       0       8
       1       1       0       8       1       1       0       8       1       1
       0       8       1       1       0       8       1       1       0       8
       1       1       0       8       1       1       0       8       1       1
       0       8       1       1       0       8       1       1       0       8
       1       1       0       8       1       1       0       8       1       1
       0       8       1       1       0       8       1       1       0       8
       1       1       0       8       1       1       0       8       1       1
       0       8       1       1       0       8       1       1       0       8
       1       1       0       8       1       1       0       8       1       1
       0       8       1       1       0       8       1       1       0       8
       1       1       0       8       1       1       0       8       1       1
       0       8       1       1       0       8       1       1       0       8
       1       1       0       8       1       1       0       8       1       1
       0       8       1       1       0       8       1       1       0       8
       1       1       0       8       1       1       0       8       1       1
       0       8       1       1       0       8       1       1       0       8
       1       1       0       8       1       1       0       8       1       1
       0       8       1       1       0       8       1       1       0       8
       1       1       0       8       1       1       0       8       1       1
       0       8       1       1       0       8       1       1       0       8
       1       1       0       8       1       1       0       8       1       1
       0       8       1       1       0       8       1       1       0       8
       1       1       0       8       1       1       0       8       1       1
       0       8       1       1       0       8       1       1       0       8
       1       1       0       8       1       1       0       8       1       1
       0       8       1       1       0       8       1       1       0       8
       1       1       0       8       1       1       0       8       1       1
       0       8       1       1       0       8       1       1       0       8
       1       1       0       8       1       1       0       8       1       1
       0       8       1       1       0       8       1       1       0       8
       1       1       0       8       1       1       0       8       1       1
       0       8       1       1       0       8       1       1       0       8
       1       1       0       8       1       1       0       8       1       1
       0       8       1       1       0       8       1       1       0       8
       1       1       0       8       1       1       0       8       1       1
       0       8       1       1       0       8       1       1       0       8
       1       1       0       8       1       1       0       8       1       1
       0       8       1       1       0       8       1       1       0       8
       1       1       0       8       1       1       0       8       1       1
       0       8       1       1       0       8       1       1       0       8
       1       1       0       8       1       1       0       8       1       1
       0       8       1       1       0       8       1       1       0       8
       1       1       0       8       1       1       0       8       1       1
       0       8       1       1       0       8       1       1       0       8
       1       1       0       8       1       1       0       8       1       1
       0       8       1       1       0       8       1       1       0       8
       1       1       0       8       1       1       0       8       1       1
       0       8       1       1       0       8       1       1       0       8
       1       1       0       8       1       1       0       8       1       1
       0       8       1       1       0       8       1       1       0       8
       1       1       0       8       1       1       0       8       1       1
       0       8       1       1       0       8       1       1       0       8
       1       1       0       8       1       1       0       8       1       1
       0       8       1       1       0       8       1       1       0       8
       1       1       0       8       1       1       0       8       1       1
       0       8       1       1       0       8       1       1       0       8
       1       1       0       8       1       1       0       8       1       1
       0       8       1       1       0       8       1       1       0       8
       1       1       0       8       1       1       0       8       1       1
       0       8       1       1       0       8       1       1       0       8
       1       1       0       8       1       1       0       8       1       1
       0       8       1       1       0       8       1       1       0       8
       1       1       0       8       1       1       0       8       1       1
       0       8       1       1       0       8       1       1       0       8
       1       1       0       8       1       1       0       8       1       1
       0       8       1       1       0       8       1       1       0       8
       1       1       0       8       1       1       0       8       1       1
       0       8       1       1       0       8       1       1       0       8
       1       1       0       8       1       1       0       8       1       1
       0       8       1       1       0       8       1       1       0       8
       1       1       0       8       1       1       0       8       1       1
       0       8       1       1       0       8       1       1       0       8
       1       1       0       8       1       1       0       8       1       1
       0       8       1       1       0       8       1       1       0       8
       1       1       0       8       1       1       0       8       1       1
       0       8       1       1       0       8       1       1       0       8
       1       1       0       8       1       1       0       8       1       1
       0       8       1       1       0       8       1       1       0       8
       1       1       0       8       1       1       0       8       1       1
       0       8       1       1       0       8       1       1       0       8
       1       1       0       8       1       1       0       8       1       1
       0       8       1       1       0       8       1       1       0       8
       1       1       0       8       1       1       0       8       1       1
       0       8       1       1       0       8       1       1       0       8
       1       1       0       8       1       1       0       8       1       1
       0       8       1       1       0       8       1       1       0       8
       1       1       0       8       1       1       0       8       1       1
       0       8       1       1       0       8       1       1       0       8
       1       1       0       8       1       1       0       8       1       1
       0       8       1       1       0       8       1       1       0       8
       1       1       0       8       1       1       0       8       1       1
       0       8       1       1       0       8       1       1       0       8
       1       1       0       8       1       1       0       8       1       1
       0       8       1       1       0       8       1       1       0       8
       1       1       0       8       1       1       0       8       1       1
       0       8       1       1       0       8       1       1       0       8
       1       1       0       8       1       1       0       8       1       1
       0       8       1       1       0       8       1       1       0       8
       1       1       0       8       1       1       0       8       1       1
       0       8       1       1       0       8       1       1       0       8
       1       1       0       8       1       1       0       8       1       1
       0       8       1       1       0       8       1       1       0       8
       1       1       0       8       1       1       0       8       1       1
       0       8       1       1       0       8       1       1       0       8
       1       1       0       8       1       1       0       8       1       1
       0       8       1       1       0       8       1       1       0       8
       1       1       0       8       1       1       0       8       1       1
       0       8       1       1       0       8       1       1       0       8
       1       1       0       8       1       1       0       8       1       1
       0       8       1       1       0       8       1       1       0       8
       1       1       0       8       1       1       0       8       1       1
       0       8       1       1       0       8       1       1       0       8
       1       1       0       8       1       1       0       8       1       1
       0       8       1       1       0       8       1       1       0       8
       1       1       0       8       1       1       0       8       1       1
       0       8       1       1       0       8       1       1       0       8
       1       1       0       8       1       1       0       8       1       1
       0       8       1       1       0       8       1       1       0       8
       1       1       0       8       1       1       0       8       1       1
       0       8       1       1       0       8       1       1       0       8
       1       1       0       8       1       1       0       8       1       1
       0       8       1       1       0       8       1       1       0       8
       1       1       0       8       1       1       0       8       1       1
       0       8       1       1       0       8       1       1       0       8
       1       1       0       8       1       1       0       8       1       1
       0       8       1       1       0       8       1       1       0       8
       1       1       0       8       1       1       0       8       1       1
       0       8       1       1       0       8       1       1       0       8
       1       1       0       8       1       1       0       8       1       1
       0       8       1       1       0       8       1       1       0       8
       1       1       0       8       1       1       0       8       1       1
       0       8       1       1       0       8       1       1       0       8
       1       1       0       8       1       1       0       8       1       1
       0       8       1       1       0       8       1       1       0       8
       1       1       0       8       1       1       0       8       1       1
       0       8       1       1       0       8       1       1       0       8
       1       1       0       8       1       1       0       8       1       1
       0       8       1       1       0       8       1       1       0       8
       1       1       0       8       1       1       0       8       1       1
       0       8       1       1       0       8       1       1       0       8
       1       1       0       8       1       1       0       8       1       1
       0       8       1       1       0       8       1       1       0       8
       1       1       0       8       1       1       0       8       1       1
       0       8       1       1       0       8       1       1       0       8
       1       1       0       8       1       1       0       8       1       1
       0       8       1       1       0       8       1       1       0       8
       1       1       0       8       1       1       0       8       1       1
       0       8       1       1       0       8       1       1       0       8
       1       1       0       8       1       1       0       8       1       1
       0       8       1       1       0       8       1       1       0       8
       1       1       0       8       1       1       0       8       1       1
       0       8       1       1       0       8       1       1       0       8
       1       1       0       8       1       1       0       8       1       1
       0       8       1       1       0       8       1       1       0       8
       1       1       0       8       1       1       0       8       1       1
       0       8       1       1       0       8       1       1       0       8
       1       1       0       8       1       1       0       8       1       1
       0       8       1       1       0       8       1       1       0       8
       1       1       0       8       1       1       0       8       1       1
       0       8       1       1       0       8       1       1       0       8
       1       1       0       8       1       1       0       8       1       1
       0       8       1       1       0       8       1       1       0       8
       1       1       0       8       1       1       0       8       1       1
       0       8       1       1       0       8       1       1       0       8
       1       1       0       8       1       1       0       8       1       1
       0       8       1       1       0       8       1       1       0       8
       1       1       0       8       1       1       0       8       1       1
       0       8       1       1       0       8       1       1       0       8
       1       1       0       8       1       1       0       8       1       1
       0       8       1       1       0       8       1       1       0       8
       1       1       0       8       1       1       0       8       1       1
       0       8       1       1       0       8       1       1       0       8
       1       1       0       8       1       1       0       8       1       1
       0       8       1       1       0       8       1       1       0       8
       1       1       0       8       1       1       0       8       1       1
       0       8       1       1       0       8       1       1       0       8
       1       1       0       8       1       1       0       8       1       1
       0       8       1       1       0       8       1       1       0       8
       1       1       0       8       1       1       0       8       1       1
       0       8       1       1       0       8       1       1       0       8
       1       1       0       8       1       1       0       8       1       1
       0       8       1       1       0       8       1       1       0       8
       1       1       0       8       1       1       0       8       1       1
       0       8       1       1       0       8       1       1       0       8
       1       1       0       8       1       1       0       8       1       1
       0       8       1       1       0       8       1       1       0       8
       1       1       0       8       1       1       0       8       1       1
       0       8       1       1       0       8       1       1       0       8
       1       1       0       8       1       1       0       8       1       1
       0       8       1       1       0       8       1       1       0       8
       1       1       0       8       1       1       0       8       1       1
       0       8       1       1       0       8       1       1       0       8
       1       1       0       8       1       1       0       8       1       1
       0       8       1       1       0       8       1       1       0       8
       1       1       0       8       1       1       0       8       1       1
       0       8       1       1       0       8       1       1       0       8
       1       1       0       8       1       1       0       8       1       1
       0       8       1       1       0       8       1       1       0       8
       1       1       0       8       1       1       0       8       1       1
       0       8       1       1       0       8       1       1       0       8
       1       1       0       8       1       1       0       8       1       1
       0       8       1       1       0       8       1       1       0       8
       1       1       0       8       1       1       0       8       1       1
       0       8       1       1       0       8       1       1       0       8
       1       1       0       8       1       1       0       8       1       1
       0       8       1       1       0       8       1       1       0       8
       1       1       0       8       1       1       0       8       1       1
       0       8       1       1       0       8       1       1       0       8
       1       1       0       8       1       1       0       8       1       1
       0       8       1       1       0       8       1       1       0       8
       1       1       0       8       1       1       0       8       1       1
       0       8       1       1       0       8       1       1       0       8
       1       1       0       8       1       1       0       8       1       1
       0       8       1       1       0       8       1       1       0       8
       1       1       0       8       1       1       0       8       1       1
       0       8       1       1       0       8       1       1       0       8
       1       1       0       8       1       1       0       8       1       1
       0       8       1       1       0       8       1       1       0       8
       1       1       0       8       1       1       0       8       1       1
       0       8       1       1       0       8       1       1       0       8
       1       1       0       8       1       1       0       8       1       1
       0       8       1       1       0       8       1       1       0       8
       1       1       0       8       1       1       0       8       1       1
       0       8       1       1       0       8       1       1       0       8
       1       1       0       8       1       1       0       8       1       1
       0       8       1       1       0       8       1       1       0       8
       1       1       0       8       1       1       0       8       1       1
       0       8       1       1       0       8       1       1       0       8
       1       1       0       8       1       1       0       8       1       1
       0       8       1       1       0       8       1       1       0       8
       1       1       0       8       1       1       0       8       1       1
       0       8       1       1       0       8       1       1       0       8
       1       1       0       8       1       1       0       8       1       1
       0       8       1       1       0       8       1       1       0       8
       1       1       0       8       1       1       0       8       1       1
       0       8       1       1       0       8       1       1       0       8
       1       1       0       8       1       1       0       8       1       1
       0       8       1       1       0       8       1       1       0       8
       1       1       0       8       1       1       0       8       1       1
       0       8       1       1       0       8       1       1       0       8
       1       1       0       8       1       1       0       8       1       1
       0       8       1       1       0       8       1       1       0       8
       1       1       0       8       1       1       0       8       1       1
       0       8       1       1       0       8       1       1       0       8
       1       1       0       8       1       1       0       8       1       1
       0       8       1       1       0       8       1       1       0       8
       1       1       0       8       1       1       0       8       1       1
       0       8       1       1       0       8       1       1       0       8
       1       1       0       8       1       1       0       8       1       1
       0       8       1       1       0       8       1       1       0       8
       1       1       0       8       1       1       0       8       1       1
       0       8       1       1       0       8       1       1       0       8
       1       1       0       8       1       1       0       8       1       1
       0       8       1       1       0       8       1       1       0       8
       1       1       0       8       1       1       0       8       1       1
       0       8       1       1       0       8       1       1       0       8
       1       1       0       8       1       1       0       8       1       1
       0       8       1       1       0       8       1       1       0       8
       1       1       0       8       1       1       0       8       1       1
       0       8       1       1       0       8       1       1       0       8
       1       1       0       8       1       1       0       8       1       1
       0       8       1       1       0       8       1       1       0       8
       1       1       0       8       1       1       0       8       1       1
       0       8       1       1       0       8       1       1       0       8
       1       1       0       8       1       1       0       8       1       1
       0       8       1       1       0       8       1       1       0       8
       1       1       0       8       1       1       0       8       1       1
       0       8       1       1       0       8       1       1       0       8
       1       1       0       8       1       1       0       8       1       1
       0       8       1       1       0       8       1       1       0       8
       1       1       0       8       1       1       0       8       1       1
       0       8       1       1       0       8       1       1       0       8
       1       1       0       8       1       1       0       8       1       1
       0       8       1       1       0       8       1       1       0       8
       1       1       0       8       1       1       0       8       1       1
       0       8       1       1       0       8       1       1       0       8
       1       1       0       8       1       1       0       8       1       1
       0       8       1       1       0       8       1       1       0       8
       1       1       0       8       1       1       0       8       1       1
       0       8       1       1       0       8       1       1       0       8
       1       1       0       8       1       1       0       8       1       1
       0       8       1       1       0       8       1       1       0       8
       1       1       0       8       1       1       0       8       1       1
       0       8       1       1       0       8       1       1       0       8
       1       1       0       8       1       1       0       8       1       1
       0       8       1       1       0       8       1       1       0       8
       1       1       0       8       1       1       0       8       1       1
       0       8       1       1       0       8       1       1       0       8
       1       1       0       8       1       1       0       8       1       1
       0       8       1       1       0       8       1       1       0       8
       1       1       0       8       1       1       0       8       1       1
       0       8       1       1       0       8       1       1       0       8
       1       1       0       8       1       1       0       8       1       1
       0       8       1       1       0       8       1       1       0       8
       1       1       0       8       1       1       0       8       1       1
       0       8       1       1       0       8       1       1       0       8
       1       1       0       8       1       1       0       8       1       1
       0       8       1       1       0       8       1       1       0       8
       1       1       0       8       1       1       0       8       1       1
       0       8       1       1       0       8       1       1       0       8
       1       1       0       8       1       1       0       8       1       1
       0       8       1       1       0       8       1       1       0       8
       1       1       0       8       1       1       0       8       1       1
       0       8       1       1       0       8       1       1       0       8
       1       1       0       8       1       1       0       8       1       1
       0       8       1       1       0       8       1       1       0       8
       1       1       0       8       1       1       0       8       1       1
       0       8       1       1       0       8       1       1       0       8
       1       1       0       8       1       1       0       8       1       1
       0       8       1       1       0       8       1       1       0       8
       1       1       0       8       1       1       0       8       1       1
       0       8       1       1       0       8       1       1       0       8
       1       1       0       8       1       1       0       8       1       1
       0       8       1       1       0       8       1       1       0       8
       1       1       0       8       1       1       0       8       1       1
       0       8       1       1       0       8       1       1       0       8
       1       1       0       8       1       1       0       8       1       1
       0       8       1       1       0       8       1       1       0       8
       1       1       0       8       1       1       0       8       1       1
       0       8       1       1       0       8       1       1       0       8
       1       1       0       8       1       1       0       8       1       1
       0       8       1       1       0       8       1       1       0       8
       1       1       0       8       1       1       0       8       1       1
       0       8       1       1       0       8       1       1       0       8
       1       1       0       8       1       1       0       8       1       1
       0       8       1       1       0       8       1       1       0       8
       1       1       0       8       1       1       0       8       1       1
       0       8       1       1       0       8       1       1       0       8
       1       1       0       8       1       1       0       8       1       1
       0       8       1       1       0       8       1       1       0       8
       1       1       0       8       1       1       0       8       1       1
       0       8       1       1       0       8       1       1       0       8
       1       1       0       8       1       1       0       8       1       1
       0       8       1       1       0       8       1       1       0       8
       1       1       0       8       1       1       0       8       1       1
       0       8       1       1       0       8       1       1       0       8
       1       1       0       8       1       1       0       8       1       1
       0       8       1       1       0       8       1       1       0       8
       1       1       0       8       1       1       0       8       1       1
       0       8       1       1       0       8       1       1       0       8
       1       1       0       8       1       1       0       8       1       1
       0       8       1       1       0       8       1       1       0       8
       1       1       0       8       1       1       0       8       1       1
       0       8       1       1       0       8       1       1       0       8
       1       1       0       8       1       1       0       8       1       1
       0       8       1       1       0       8       1       1       0       8
       1       1       0       8       1       1       0       8       1       1
       0       8       1       1       0       8       1       1       0       8
       1       1       0       8       1       1       0       8       1       1
       0       8       1       1       0       8       1       1       0       8
       1       1       0       8       1       1       0       8       1       1
       0       8       1       1       0       8       1       1       0       8
       1       1       0       8       1       1       0       8       1       1
       0       8       1       1       0       8       1       1       0       8
       1       1       0       8       1       1       0       8       1       1
       0       8       1       1       0       8       1       1       0       8
       1       1       0       8       1       1       0       8       1       1
       0       8       1       1       0       8       1       1       0       8
       1       1       0       8       1       1       0       8       1       1
       0       8       1       1       0       8       1       1       0       8
       1       1       0       8       1       1       0       8       1       1
       0       8       1       1       0       8       1       1       0       8
       1       1       0       8       1       1       0       8       1       1
       0       8       1       1       0       8       1       1       0       8
       1       1       0       8       1       1       0       8       1       1
       0       8       1       1       0       8       1       1       0       8
       1       1       0       8       1       1       0       8       1       1
       0       8       1       1       0       8       1       1       0       8
       1       1       0       8       1       1       0       8       1       1
       0       8       1       1       0       8       1       1       0       8
       1       1       0       8       1       1       0       8       1       1
       0       8       1       1       0       8       1       1       0       8
       1       1       0       8       1       1       0       8       1       1
       0       8       1       1       0       8       1       1       0       8
       1       1       0       8       1       1       0       8       1       1
       0       8       1       1       0       8       1       1       0       8
       1       1       0       8       1       1       0       8       1       1
       0       8       1       1       0       8       1       1       0       8
       1       1       0       8       1       1       0       8       1       1
       0       8       1       1       0       8       1       1       0       8
       1       1       0       8       1       1       0       8       1       1
       0       8       1       1       0       8       1       1       0       8
       1       1       0       8       1       1       0       8       1       1
       0       8       1       1       0       8       1       1       0       8
       1       1       0       8       1       1       0       8       1       1
       0       8       1       1       0       8       1       1       0       8
       1       1       0       8       1       1       0       8       1       1
       0       8       1       1       0       8       1       1       0       8
       1       1       0       8       1       1       0       8       1       1
       0       8       1       1       0       8       1       1       0       8
       1       1       0       8       1       1       0       8       1       1
       0       8       1       1       0       8       1       1       0       8
       1       1       0       8       1       1       0       8       1       1
       0       8       1       1       0       8       1       1       0       8
       1       1       0       8       1       1       0       8       1       1
       0       8       1       1       0       8       1       1       0       8
       1       1       0       8       1       1       0       8       1       1
       0       8       1       1       0       8       1       1       0       8
       1       1       0       8       1       1       0       8       1       1
       0       8       1       1       0       8       1       1       0       8
       1       1       0       8       1       1       0       8       1       1
       0       8       1       1       0       8       1       1       0       8
       1       1       0       8       1       1       0       8       1       1
       0       8       1       1       0       8       1       1       0       8
       1       1       0       8       1       1       0       8       1       1
       0       8       1       1       0       8       1       1       0       8
       1       1       0       8       1       1       0       8       1       1
       0       8       1       1       0       8       1       1       0       8
       1       1       0       8       1       1       0       8       1       1
       0       8       1       1       0       8       1       1       0       8
       1       1       0       8       1       1       0       8       1       1
       0       8       1       1       0       8       1       1       0       8
       1       1       0       8       1       1       0       8       1       1
       0       8       1       1       0       8       1       1       0       8
       1       1       0       8       1       1       0       8       1       1
       0       8       1       1       0       8       1       1       0       8
       1       1       0       8       1       1       0       8       1       1
       0       8       1       1       0       8       1       1       0       8
       1       1       0       8       1       1       0       8       1       1
       0       8       1       1       0       8       1       1       0       8
       1       1       0       8       1       1       0       8       1       1
       0       8       1       1       0       8       1       1       0       8
       1       1       0       8       1       1       0       8       1       1
       0       8       1       1       0       8       1       1       0       8
       1       1       0       8       1       1       0       8       1       1
       0       8       1       1       0       8       1       1       0       8
       1       1       0       8       1       1       0       8       1       1
       0       8       1       1       0       8       1       1       0       8
       1       1       0       8       1       1       0       8       1       1
       0       8       1       1       0       8       1       1       0       8
       1       1       0       8       1       1       0       8       1       1
       0       8       1       1       0       8       1       1       0       8
       1       1       0       8       1       1       0       8       1       1
       0       8       1       1       0       8       1       1       0       8
       1       1       0       8       1       1       0       8       1       1
       0       8       1       1       0       8       1       1       0       8
       1       1       0       8       1       1       0       8       1       1
       0       8       1       1       0       8       1       1       0       8
       1       1       0       8       1       1       0       8       1       1
       0       8       1       1       0       8       1       1       0       8
       1       1       0       8       1       1       0       8       1       1
       0       8       1       1       0       8       1       1       0       8
       1       1       0       8       1       1       0       8       1       1
       0       8       1       1       0       8       1       1       0       8
       1       1       0       8       1       1       0       8       1       1
       0       8       1       1       0       8       1       1       0       8
       1       1       0       8       1       1       0       8       1       1
       0       8       1       1       0       8       1       1       0       8
       1       1       0       8       1       1       0       8       1       1
       0       8       1       1       0       8       1       1       0       8
       1       1       0       8       1       1       0       8       1       1
       0       8       1       1       0       8       1       1       0       8
       1       1       0       8       1       1       0       8       1       1
       0       8       1       1       0       8       1       1       0       8
       1       1       0       8       1       1       0       8       1       1
       0       8       1       1       0       8       1       1       0       8
       1       1       0       8       1       1       0       8       1       1
       0       8       1       1       0       8       1       1       0       8
       1       1       0       8       1       1       0       8       1       1
       0       8       1       1       0       8       1       1       0       8
       1       1       0       8       1       1       0       8       1       1
       0       8       1       1       0       8       1       1       0       8
       1       1       0       8       1       1       0       8       1       1
       0       8       1       1       0       8       1       1       0       8
       1       1       0       8       1       1       0       8       1       1
       0       8       1       1       0       8       1       1       0       8
       1       1       0       8       1       1       0       8       1       1
       0       8       1       1       0       8       1       1       0       8
       1       1       0       8       1       1       0       8       1       1
       0       8       1       1       0       8       1       1       0       8
       1       1       0       8       1       1       0       8       1       1
       0       8       1       1       0       8       1       1       0       8
       1       1       0       8       1       1       0       8       1       1
       0       8       1       1       0       8       1       1       0       8
       1       1       0       8       1       1       0       8       1       1
       0       8       1       1       0       8       1       1       0       8
       1       1       0       8       1       1       0       8       1       1
       0       8       1       1       0       8       1       1       0       8
       1       1       0       8       1       1       0       8       1       1
       0       8       1       1       0       8       1       1       0       8
       1       1       0       8       1       1       0       8       1       1
       0       8       1       1       0       8       1       1       0       8
       1       1       0       8       1       1       0       8       1       1
       0       8       1       1       0       8       1       1       0       8
       1       1       0       8       1       1       0       8       1       1
       0       8       1       1       0       8       1       1       0       8
       1       1       0       8       1       1       0       8       1       1
       0       8       1       1       0       8       1       1       0       8
       1       1       0       8       1       1       0       8       1       1
       0       8       1       1       0       8       1       1       0       8
       1       1       0       8       1       1       0       8       1       1
       0       8       1       1       0       8       1       1       0       8
       1       1       0       8       1       1       0       8       1       1
       0       8       1       1       0       8       1       1       0       8
       1       1       0       8       1       1       0       8       1       1
       0       8       1       1       0       8       1       1       0       8
       1       1       0       8       1       1       0       8       1       1
       0       8       1       1       0       8       1       1       0       8
       1       1       0       8       1       1       0       8       1       1
       0       8       1       1       0       8       1       1       0       8
       1       1       0       8       1       1       0       8       1       1
       0       8       1       1       0       8       1       1       0       8
       1       1       0       8       1       1       0       8       1       1
       0       8       1       1       0       8       1       1       0       8
       1       1       0       8       1       1       0       8       1       1
       0       8       1       1       0       8       1       1       0       8
       1       1       0       8       1       1       0       8       1       1
       0       8       1       1       0       8       1       1       0       8
       1       1       0       8       1       1       0       8       1       1
       0       8       1       1       0       8       1       1       0       8
       1       1       0       8       1       1       0       8       1       1
       0       8       1       1       0       8       1       1       0       8
       1       1       0       8       1       1       0       8       1       1
       0       8       1       1       0       8       1       1       0       8
       1       1       0       8       1       1       0       8       1       1
       0       8       1       1       0       8       1       1       0       8
       1       1       0       8       1       1       0       8       1       1
       0       8       1       1       0       8       1       1       0       8
       1       1       0       8       1       1       0       8       1       1
       0       8       1       1       0       8       1       1       0       8
       1       1       0       8       1       1       0       8       1       1
       0       8       1       1       0       8       1       1       0       8
       1       1       0       8       1       1       0       8       1       1
       0       8       1       1       0       8       1       1       0       8
       1       1       0       8       1       1       0       8       1       1
       0       8       1       1       0       8       1       1       0       8
       1       1       0       8       1       1       0       8       1       1
       0       8       1       1       0       8       1       1       0       8
       1       1       0       8       1       1       0       8       1       1
       0       8       1       1       0       8       1       1       0       8
       1       1       0       8       1       1       0       8       1       1
       0       8       1       1       0       8       1       1       0       8
       1       1       0       8       1       1       0       8       1       1
       0       8       1       1       0       8       1       1       0       8
       1       1       0       8       1       1       0       8       1       1
       0       8       1       1       0       8       1       1       0       8
       1       1       0       8       1       1       0       8       1       1
       0       8       1       1       0       8       1       1       0       8
       1       1       0       8       1       1       0       8       1       1
       0       8       1       1       0       8       1       1       0       8
       1       1       0       8       1       1       0       8       1       1
       0       8       1       1       0       8       1       1       0       8
       1       1       0       8       1       1       0       8       1       1
       0       8       1       1       0       8       1       1       0       8
       1       1       0       8       1       1       0       8       1       1
       0       8       1       1       0       8       1       1       0       8
       1       1       0       8       1       1       0       8       1       1
       0       8       1       1       0       8       1       1       0       8
       1       1       0       8       1       1       0       8       1       1
       0       8       1       1       0       8       1       1       0       8
       1       1       0       8       1       1       0       8       1       1
       0       8       1       1       0       8       1       1       0       8
       1       1       0       8       1       1       0       8       1       1
       0       8       1       1       0       8       1       1       0       8
       1       1       0       8       1       1       0       8       1       1
       0       8       1       1       0       8       1       1       0       8
       1       1       0       8       1       1       0       8       1       1
       0       8       1       1       0       8       1       1       0       8
       1       1       0       8       1       1       0       8       1       1
       0       8       1       1       0       8       1       1       0       8
       1       1       0       8       1       1       0       8       1       1
       0       8       1       1       0       8       1       1       0       8
       1       1       0       8       1       1       0       8       1       1
       0       8       1       1       0       8       1       1       0       8
       1       1       0       8       1       1       0       8       1       1
       0       8       1       1       0       8       1       1       0       8
       1       1       0       8       1       1       0       8       1       1
       0       8       1       1       0       8       1       1       0       8
       1       1       0       8       1       1       0       8       1       1
       0       8       1       1       0       8       1       1       0       8
       1       1       0       8       1       1       0       8       1       1
       0       8       1       1       0       8       1       1       0       8
       1       1       0       8       1       1       0       8       1       1
       0       8       1       1       0       8       1       1       0       8
       1       1       0       8       1       1       0       8       1       1
       0       8       1       1       0       8       1       1       0       8
       1       1       0       8       1       1       0       8       1       1
       0       8       1       1       0       8       1       1       0       8
       1       1       0       8       1       1       0       8       1       1
       0       8       1       1       0       8       1       1       0       8
       1       1       0       8       1       1       0       8       1       1
       0       8       1       1       0       8       1       1       0       8
       1       1       0       8       1       1       0       8       1       1
       0       8       1       1       0       8       1       1       0       8
       1       1       0       8       1       1       0       8       1       1
       0       8       1       1       0       8       1       1       0       8
       1       1       0       8       1       1       0       8       1       1
       0       8       1       1       0       8       1       1       0       8
       1       1       0       8       1       1       0       8       1       1
       0       8       1       1       0       8       1       1       0       8
       1       1       0       8       1       1       0       8       1       1
       0       8       1       1       0       8       1       1       0       8
       1       1       0       8       1       1       0       8       1       1
       0       8       1       1       0       8       1       1       0       8
       1       1       0       8       1       1       0       8       1       1
       0       8       1       1       0       8       1       1       0       8
       1       1       0       8       1       1       0       8       1       1
       0       8       1       1       0       8       1       1       0       8
       1       1       0       8       1       1       0       8       1       1
       0       8       1       1       0       8       1       1       0       8
       1       1       0       8       1       1       0       8       1       1
       0       8       1       1       0       8       1       1       0       8
       1       1       0       8       1       1       0       8       1       1
       0       8       1       1       0       8       1       1       0       8
       1       1       0       8       1       1       0       8       1       1
       0       8       1       1       0       8       1       1       0       8
       1       1       0       8       1       1       0       8       1       1
       0       8       1       1       0       8       1       1       0       8
       1       1       0       8       1       1       0       8       1       1
       0       8       1       1       0       8       1       1       0       8
       1       1       0       8       1       1       0       8       1       1
       0       8       1       1       0       8       1       1       0       8
       1       1       0       8       1       1       0       8       1       1
       0       8       1       1       0       8       1       1       0       8
       1       1       0       8       1       1       0       8       1       1
       0       8       1       1       0       8       1       1       0       8
       1       1       0       8       1       1       0       8       1       1
       0       8       1       1       0       8       1       1       0       8
       1       1       0       8       1       1       0       8       1       1
       0       8       1       1       0       8       1       1       0       8
       1       1       0       8       1       1       0       8       1       1
       0       8       1       1       0       8       1       1       0       8
       1       1       0       8       1       1       0       8       1       1
       0       8       1       1       0       8       1       1       0       8
       1       1       0       8       1       1       0       8       1       1
       0       8       1       1       0       8       1       1       0       8
       1       1       0       8       1       1       0       8       1       1
       0       8       1       1       0       8       1       1       0       8
       1       1       0       8       1       1       0       8       1       1
       0       8       1       1       0       8       1       1       0       8
       1       1       0       8       1       1       0       8       1       1
       0       8       1       1       0       8       1       1       0       8
       1       1       0       8       1       1       0       8       1       1
       0       8       1       1       0       8       1       1       0       8
       1       1       0       8       1       1       0       8       1       1
       0       8       1       1       0       8       1       1       0       8
       1       1       0       8       1       1       0       8       1       1
       0       8       1       1       0       8       1       1       0       8
       1       1       0       8       1       1       0       8       1       1
       0       8       1       1       0       8       1       1       0       8
       1       1       0       8       1       1       0       8       1       1
       0       8       1       1       0       8       1       1       0       8
       1       1       0       8       1       1       0       8       1       1
       0       8       1       1       0       8       1       1       0       8
       1       1       0       8       1       1       0       8       1       1
       0       8       1       1       0       8       1       1       0       8
       1       1       0       8       1       1       0       8       1       1
       0       8       1       1       0       8       1       1       0       8
       1       1       0       8       1       1       0       8       1       1
       0       8       1       1       0       8       1       1       0       8
       1       1       0       8       1       1       0       8       1       1
       0       8       1       1       0       8       1       1       0       8
       1       1       0       8       1       1       0       8       1       1
       0       8       1       1       0       8       1       1       0       8
       1       1       0       8       1       1       0       8       1       1
       0       8       1       1       0       8       1       1       0       8
       1       1       0       8       1       1       0       8       1       1
       0       8       1       1       0       8       1       1       0       8
       1       1       0       8       1       1       0       8       1       1
       0       8       1       1       0       8       1       1       0       8
       1       1       0       8       1       1       0       8       1       1
       0       8       1       1       0       8       1       1       0       8
       1       1       0       8       1       1       0       8       1       1
       0       8       1       1       0       8       1       1       0       8
       1       1       0       8       1       1       0       8       1       1
       0       8       1       1       0       8       1       1       0       8
       1       1       0       8       1       1       0       8       1       1
       0       8       1       1       0       8       1       1       0       8
       1       1       0       8       1       1       0       8       1       1
       0       8       1       1       0       8       1       1       0       8
       1       1       0       8       1       1       0       8       1       1
       0       8       1       1       0       8       1       1       0       8
       1       1       0       8       1       1       0       8       1       1
       0       8       1       1       0       8       1       1       0       8
       1       1       0       8       1       1       0       8       1       1
       0       8       1       1       0       8       1       1       0       8
       1       1       0       8       1       1       0       8       1       1
       0       8       1       1       0       8       1       1       0       8
       1       1       0       8       1       1       0       8       1       1
       0       8       1       1       0       8       1       1       0       8
       1       1       0       8       1       1       0       8       1       1
       0       8       1       1       0       8       1       1       0       8
       1       1       0       8       1       1       0       8       1       1
       0       8       1       1       0       8       1       1       0       8
       1       1       0       8       1       1       0       8       1       1
       0       8       1       1       0       8       1       1       0       8
       1       1       0       8       1       1       0       8       1       1
       0       8       1       1       0       8       1       1       0       8
       1       1       0       8       1       1       0       8       1       1
       0       8       1       1       0       8       1       1       0       8
       1       1       0       8       1       1       0       8       1       1
       0       8       1       1       0       8       1       1       0       8
       1       1       0       8       1       1       0       8       1       1
       0       8       1       1       0       8       1       1       0       8
       1       1       0       8       1       1       0       8       1       1
       0       8       1       1       0       8       1       1       0       8
       1       1       0       8       1       1       0       8       1       1
       0       8       1       1       0       8       1       1       0       8
       1       1       0       8       1       1       0       8       1       1
       0       8       1       1       0       8       1       1       0       8
       1       1       0       8       1       1       0       8       1       1
       0       8       1       1       0       8       1       1       0       8
       1       1       0       8       1       1       0       8       1       1
       0       8       1       1       0       8       1       1       0       8
       1       1       0       8       1       1       0       8       1       1
       0       8       1       1       0       8       1       1       0       8
       1       1       0       8       1       1       0       8       1       1
       0       8       1       1       0       8       1       1       0       8
       1       1       0       8       1       1       0       8       1       1
       0       8       1       1       0       8       1       1       0       8
       1       1       0       8       1       1       0       8       1       1
       0       8       1       1       0       8       1       1       0       8
       1       1       0       8       1       1       0       8       1       1
       0       8       1       1       0       8       1       1       0       8
       1       1       0       8       1       1       0       8       1       1
       0       8       1       1       0       8       1       1       0       8
       1       1       0       8       1       1       0       8       1       1
       0       8       1       1       0       8       1       1       0       8
       1       1       0       8       1       1       0       8       1       1
       0       8       1       1       0       8       1       1       0       8
       1       1       0       8       1       1       0       8       1       1
       0       8       1       1       0       8       1       1       0       8
       1       1       0       8       1       1       0       8       1       1
       0       8       1       1       0       8       1       1       0       8
       1       1       0       8       1       1       0       8       1       1
       0       8       1       1       0       8       1       1       0       8
       1       1       0       8       1       1       0       8       1       1
       0       8       1       1       0       8       1       1       0       8
       1       1       0       8       1       1       0       8       1       1
       0       8       1       1       0       8       1       1       0       8
       1       1       0       8       1       1       0       8       1       1
       0       8       1       1       0       8       1       1       0       8
       1       1       0       8       1       1       0       8       1       1
       0       8       1       1       0       8       1       1       0       8
       1       1       0       8       1       1       0       8       1       1
       0       8       1       1       0       8       1       1       0       8
       1       1       0       8       1       1       0       8       1       1
       0       8       1       1       0       8       1       1       0       8
       1       1       0       8       1       1       0       8       1       1
       0       8       1       1       0       8       1       1       0       8
       1       1       0       8       1       1       0       8       1       1
       0       8       1       1       0       8       1       1       0       8
       1       1       0       8       1       1       0       8       1       1
       0       8       1       1       0       8       1       1       0       8
       1       1       0       8       1       1       0       8       1       1
       0       8       1       1       0       8       1       1       0       8
       1       1       0       8       1       1       0       8       1       1
       0       8       1       1       0       8       1       1       0       8
       1       1       0       8       1       1       0       8       1       1
       0       8       1       1       0       8       1       1       0       8
       1       1       0       8       1       1       0       8       1       1
       0       8       1       1       0       8       1       1       0       8
       1       1       0       8       1       1       0       8       1       1
       0       8       1       1       0       8       1       1       0       8
       1       1       0       8       1       1       0       8       1       1
       0       8       1       1       0       8       1       1       0       8
       1       1       0       8       1       1       0       8       1       1
       0       8       1       1       0       8       1       1       0       8
       1       1       0       8       1       1       0       8       1       1
       0       8       1       1       0       8       1       1       0       8
       1       1       0       8       1       1       0       8       1       1
       0       8       1       1       0       8       1       1       0       8
       1       1       0       8       1       1       0       8       1       1
       0       8       1       1       0       8       1       1       0       8
       1       1       0       8       1       1       0       8       1       1
       0       8       1       1       0       8       1       1       0       8
       1       1       0       8       1       1       0       8       1       1
       0       8       1       1       0       8       1       1       0       8
       1       1       0       8       1       1       0       8       1       1
       0       8       1       1       0       8       1       1       0       8
       1       1       0       8       1       1       0       8       1       1
       0       8       1       1       0       8       1       1       0       8
       1       1       0       8       1       1       0       8       1       1
       0       8       1       1       0       8       1       1       0       8
       1       1       0       8       1       1       0       8       1       1
       0       8       1       1       0       8       1       1       0       8
       1       1       0       8       1       1       0       8       1       1
       0       8       1       1       0       8       1       1       0       8
       1       1       0       8       1       1       0       8       1       1
       0       8       1       1       0       8       1       1       0       8
       1       1       0       8       1       1       0       8       1       1
       0       8       1       1       0       8       1       1       0       8
       1       1       0       8       1       1       0       8       1       1
       0       8       1       1       0       8       1       1       0       8
       1       1       0       8       1       1       0       8       1       1
       0       8       1       1       0       8       1       1       0       8
       1       1       0       8       1       1       0       8       1       1
       0       8       1       1       0       8       1       1       0       8
       1       1       0       8       1       1       0       8       1       1
       0       8       1       1       0       8       1       1       0       8
       1       1       0       8       1       1       0       8       1       1
       0       8       1       1       0       8       1       1       0       8
       1       1       0       8       1       1       0       8       1       1
       0       8       1       1       0       8       1       1       0       8
       1       1       0       8       1       1       0       8       1       1
       0       8       1       1       0       8       1       1       0       8
       1       1       0       8       1       1       0       8       1       1
       0       8       1       1       0       8       1       1       0       8
       1       1       0       8       1       1       0       8       1       1
       0       8       1       1       0       8       1       1       0       8
       1       1       0       8       1       1       0       8       1       1
       0       8       1       1       0       8       1       1       0       8
       1       1       0       8       1       1       0       8       1       1
       0       8       1       1       0       8       1       1       0       8
       1       1       0       8       1       1       0       8       1       1
       0       8       1       1       0       8       1       1       0       8
       1       1       0       8       1       1       0       8       1       1
       0       8       1       1       0       8       1       1       0       8
       1       1       0       8       1       1       0       8       1       1
       0       8       1       1       0       8       1       1       0       8
       1       1       0       8       1       1       0       8       1       1
       0       8       1       1       0       8       1       1       0       8
       1       1       0       8       1       1       0       8       1       1
       0       8       1       1       0       8       1       1       0       8
       1       1       0       8       1       1       0       8       1       1
       0       8       1       1       0       8       1       1       0       8
       1       1       0       8       1       1       0       8       1       1
       0       8       1       1       0       8       1       1       0       8
       1       1       0       8       1       1       0       8       1       1
       0       8       1       1       0       8       1       1       0       8
       1       1       0       8       1       1       0       8       1       1
       0       8       1       1       0       8       1       1       0       8
       1       1       0       8       1       1       0       8       1       1
       0       8       1       1       0       8       1       1       0       8
       1       1       0       8       1       1       0       8       1       1
       0       8       1       1       0       8       1       1       0       8
       1       1       0       8       1       1       0       8       1       1
       0       8       1       1       0       8       1       1       0       8
       1       1       0       8       1       1       0       8       1       1
       0       8       1       1       0       8       1       1       0       8
       1       1       0       8       1       1       0       8       1       1
       0       8       1       1       0       8       1       1       0       8
       1       1       0       8       1       1       0       8       1       1
       0       8       1       1       0       8       1       1       0       8
       1       1       0       8       1       1       0       8       1       1
       0       8       1       1       0       8       1       1       0       8
       1       1       0       8       1       1       0       8       1       1
       0       8       1       1       0       8       1       1       0       8
       1       1       0       8       1       1       0       8       1       1
       0       8       1       1       0       8       1       1       0       8
       1       1       0       8       1       1       0       8       1       1
       0       8       1       1       0       8       1       1       0       8
       1       1       0       8       1       1       0       8       1       1
       0       8       1       1       0       8       1       1       0       8
       1       1       0       8       1       1       0       8       1       1
       0       8       1       1       0       8       1       1       0       8
       1       1       0       8       1       1       0       8       1       1
       0       8       1       1       0       8       1       1       0       8
       1       1       0       8       1       1       0       8       1       1
       0       8       1       1       0       8       1       1       0       8
       1       1       0       8       1       1       0       8       1       1
       0       8       1       1       0       8       1       1       0       8
       1       1       0       8       1       1       0       8       1       1
       0       8       1       1       0       8       1       1       0       8
       1       1       0       8       1       1       0       8       1       1
       0       8       1       1       0       8       1       1       0       8
       1       1       0       8       1       1       0       8       1       1
       0       8       1       1       0       8       1       1       0       8
       1       1       0       8       1       1       0       8       1       1
       0       8       1       1       0       8       1       1       0       8
       1       1       0       8       1       1       0       8       1       1
       0       8       1       1       0       8       1       1       0       8
       1       1       0       8       1       1       0       8       1       1
       0       8       1       1       0       8       1       1       0       8
       1       1       0       8       1       1       0       8       1       1
       0       8       1       1       0       8       1       1       0       8
       1       1       0       8       1       1       0       8       1       1
       0       8       1       1       0       8       1       1       0       8
       1       1       0       8       1       1       0       8       1       1
       0       8       1       1       0       8       1       1       0       8
       1       1       0       8       1       1       0       8       1       1
       0       8       1       1       0       8       1       1       0       8
       1       1       0       8       1       1       0       8       1       1
       0       8       1       1       0       8       1       1       0       8
       1       1       0       8       1       1       0       8       1       1
       0       8       1       1       0       8       1       1       0       8
       1       1       0       8       1       1       0       8       1       1
       0       8       1       1       0       8       1       1       0       8
       1       1       0       8       1       1       0       8       1       1
       0       8       1       1       0       8       1       1       0       8
       1       1       0       8       1       1       0       8       1       1
       0       8       1       1       0       8       1       1       0       8
       1       1       0       8       1       1       0       8       1       1
       0       8       1       1       0       8       1       1       0       8
       1       1       0       8       1       1       0       8       1       1
       0       8       1       1       0       8       1       1       0       8
       1       1       0       8       1       1       0       8       1       1
       0       8       1       1       0       8       1       1       0       8
       1       1       0       8       1       1       0       8       1       1
       0       8       1       1       0       8       1       1       0       8
       1       1       0       8       1       1       0       8       1       1
       0       8       1       1       0       8       1       1       0       8
       1       1       0       8       1       1       0       8       1       1
       0       8       1       1       0       8       1       1       0       8
       1       1       0       8       1       1       0       8       1       1
       0       8       1       1       0       8       1       1       0       8
       1       1       0       8       1       1       0       8       1       1
       0       8       1       1       0       8       1       1       0       8
       1       1       0       8       1       1       0       8       1       1
       0       8       1       1       0       8       1       1       0       8
       1       1       0       8       1       1       0       8       1       1
       0       8       1       1       0       8       1       1       0       8
       1       1       0       8       1       1       0       8       1       1
       0       8       1       1       0       8       1       1       0       8
       1       1       0       8       1       1       0       8       1       1
       0       8       1       1       0       8       1       1       0       8
       1       1       0       8       1       1       0       8       1       1
       0       8       1       1       0       8       1       1       0       8
       1       1       0       8       1       1       0       8       1       1
       0       8       1       1       0       8       1       1       0       8
       1       1       0       8       1       1       0       8       1       1
       0       8       1       1       0       8       1       1       0       8
       1       1       0       8       1       1       0       8       1       1
       0       8       1       1       0       8       1       1       0       8
       1       1       0       8       1       1       0       8       1       1
       0       8       1       1       0       8       1       1       0       8
       1       1       0       8       1       1       0       8       1       1
       0       8       1       1       0       8       1       1       0       8
       1       1       0       8       1       1       0       8       1       1
       0       8       1       1       0       8       1       1       0       8
       1       1       0       8       1       1       0       8       1       1
       0       8       1       1       0       8       1       1       0       8
       1       1       0       8       1       1       0       8       1       1
       0       8       1       1       0       8       1       1       0       8
       1       1       0       8       1       1       0       8       1       1
       0       8       1       1       0       8       1       1       0       8
       1       1       0       8       1       1       0       8       1       1
       0       8       1       1       0       8       1       1       0       8
       1       1       0       8       1       1       0       8       1       1
       0       8       1       1       0       8       1       1       0       8
       1       1       0       8       1       1       0       8       1       1
       0       8       1       1       0       8       1       1       0       8
       1       1       0       8       1       1       0       8       1       1
       0       8       1       1       0       8       1       1       0       8
       1       1       0       8       1       1       0       8       1       1
       0       8       1       1       0       8       1       1       0       8
       1       1       0       8       1       1       0       8       1       1
       0       8       1       1       0       8       1       1       0       8
       1       1       0       8       1       1       0       8       1       1
       0       8       1       1       0       8       1       1       0       8
       1       1       0       8       1       1       0       8       1       1
       0       8       1       1       0       8       1       1       0       8
       1       1       0       8       1       1       0       8       1       1
       0       8       1       1       0       8       1       1       0       8
       1       1       0       8       1       1       0       8       1       1
       0       8       1       1       0       8       1       1       0       8
       1       1       0       8       1       1       0       8       1       1
       0       8       1       1       0       8       1       1       0       8
       1       1       0       8       1       1       0       8       1       1
       0       8       1       1       0       8       1       1       0       8
       1       1       0       8       1       1       0       8       1       1
       0       8       1       1       0       8       1       1       0       8
       1       1       0       8       1       1       0       8       1       1
       0       8       1       1       0       8       1       1       0       8
       1       1       0       8       1       1       0       8       1       1
       0       8       1       1       0       8       1       1       0       8
       1       1       0       8       1       1       0       8       1       1
       0       8       1       1       0       8       1       1       0       8
       1       1       0       8       1       1       0       8       1       1
       0       8       1       1       0       8       1       1       0       8
       1       1       0       8       1       1       0       8       1       1
       0       8       1       1       0       8       1       1       0       8
       1       1       0       8       1       1       0       8       1       1
       0       8       1       1       0       8       1       1       0       8
       1       1       0       8       1       1       0       8       1       1
       0       8       1       1       0       8       1       1       0       8
       1       1       0       8       1       1       0       8       1       1
       0       8       1       1       0       8       1       1       0       8
       1       1       0       8       1       1       0       8       1       1
       0       8       1       1       0       8       1       1       0       8
       1       1       0       8       1       1       0       8       1       1
       0       8       1       1       0       8       1       1       0       8
       1       1       0       8       1       1       0       8       1       1
       0       8       1       1       0       8       1       1       0       8
       1       1       0       8       1       1       0       8       1       1
       0       8       1       1       0       8       1       1       0       8
       1       1       0       8       1       1       0       8       1       1
       0       8       1       1       0       8       1       1       0       8
       1       1       0       8       1       1       0       8       1       1
       0       8       1       1       0       8       1       1       0       8
       1       1       0       8       1       1       0       8       1       1
       0       8       1       1       0       8       1       1       0       8
       1       1       0       8       1       1       0       8       1       1
       0       8       1       1       0       8       1       1       0       8
       1       1       0       8       1       1       0       8       1       1
       0       8       1       1       0       8       1       1       0       8
       1       1       0       8       1       1       0       8       1       1
       0       8       1       1       0       8       1       1       0       8
       1       1       0       8       1       1       0       8       1       1
       0       8       1       1       0       8       1       1       0       8
       1       1       0       8       1       1       0       8       1       1
       0       8       1       1       0       8       1       1       0       8
       1       1       0       8       1       1       0       8       1       1
       0       8       1       1       0       8       1       1       0       8
       1       1       0       8       1       1       0       8       1       1
       0       8       1       1       0       8       1       1       0       8
       1       1       0       8       1       1       0       8       1       1
       0       8       1       1       0       8       1       1       0       8
       1       1       0       8       1       1       0       8       1       1
       0       8       1       1       0       8       1       1       0       8
       1       1       0       8       1       1       0       8       1       1
       0       8       1       1       0       8       1       1       0       8
       1       1       0       8       1       1       0       8       1       1
       0       8       1       1       0       8       1       1       0       8
       1       1       0       8       1       1       0       8       1       1
       0       8       1       1       0       8       1       1       0       8
       1       1       0       8       1       1       0       8       1       1
       0       8       1       1       0       8       1       1       0       8
       1       1       0       8       1       1       0       8       1       1
       0       8       1       1       0       8       1       1       0       8
       1       1       0       8       1       1       0       8       1       1
       0       8       1       1       0       8       1       1       0       8
       1       1       0       8       1       1       0       8       1       1
       0       8       1       1       0       8       1       1       0       8
       1       1       0       8       1       1       0       8       1       1
       0       8       1       1       0       8       1       1       0       8
       1       1       0       8       1       1       0       8       1       1
       0       8       1       1       0       8       1       1       0       8
       1       1       0       8       1       1       0       8       1       1
       0       8       1       1       0       8       1       1       0       8
       1       1       0       8       1       1       0       8       1       1
       0       8       1       1       0       8       1       1       0       8
       1       1       0       8       1       1       0       8       1       1
       0       8       1       1       0       8       1       1       0       8
       1       1       0       8       1       1       0       8       1       1
       0       8       1       1       0       8       1       1       0       8
       1       1       0       8       1       1       0       8       1       1
       0       8       1       1       0       8       1       1       0       8
       1       1       0       8       1       1       0       8       1       1
       0       8       1       1       0       8       1       1       0       8
       1       1       0       8       1       1       0       8       1       1
       0       8       1       1       0       8       1       1       0       8
       1       1       0       8       1       1       0       8       1       1
       0       8       1       1       0       8       1       1       0       8
       1       1       0       8       1       1       0       8       1       1
       0       8       1       1       0       8       1       1       0       8
       1       1       0       8       1       1       0       8       1       1
       0       8       1       1       0       8       1       1       0       8
       1       1       0       8       1       1       0       8       1       1
       0       8       1       1       0       8       1       1       0       8
       1       1       0       8       1       1       0       8       1       1
       0       8       1       1       0       8       1       1       0       8
       1       1       0       8       1       1       0       8       1       1
       0       8       1       1       0       8       1       1       0       8
       1       1       0       8       1       1       0       8       1       1
       0       8       1       1       0       8       1       1       0       8
       1       1       0       8       1       1       0       8       1       1
       0       8       1       1       0       8       1       1       0       8
       1       1       0       8       1       1       0       8       1       1
       0       8       1       1       0       8       1       1       0       8
       1       1       0       8       1       1       0       8       1       1
       0       8       1       1       0       8       1       1       0       8
       1       1       0       8       1       1       0       8       1       1
       0       8       1       1       0       8       1       1       0       8
       1       1       0       8       1       1       0       8       1       1
       0       8       1       1       0       8       1       1       0       8
       1       1       0       8       1       1       0       8       1       1
       0       8       1       1       0       8       1       1       0       8
       1       1       0       8       1       1       0       8       1       1
       0       8       1       1       0       8       1       1       0       8
       1       1       0       8       1       1       0       8       1       1
       0       8       1       1       0       8       1       1       0       8
       1       1       0       8       1       1       0       8       1       1
       0       8       1       1       0       8       1       1       0       8
       1       1       0       8       1       1       0       8       1       1
       0       8       1       1       0       8       1       1       0       8
       1       1       0       8       1       1       0       8       1       1
       0       8       1       1       0       8       1       1       0       8
       1       1       0       8       1       1       0       8       1       1
       0       8       1       1       0       8       1       1       0       8
       1       1       0       8       1       1       0       8       1       1
       0       8       1       1       0       8       1       1       0       8
       1       1       0       8       1       1       0       8       1       1
       0       8       1       1       0       8       1       1       0       8
       1       1       0       8       1       1       0       8       1       1
       0       8       1       1       0       8       1       1       0       8
       1       1       0       8       1       1       0       8       1       1
       0       8       1       1       0       8       1       1       0       8
       1       1       0       8       1       1       0       8       1       1
       0       8       1       1       0       8       1       1       0       8
       1       1       0       8       1       1       0       8       1       1
       0       8       1       1       0       8       1       1       0       8
       1       1       0       8       1       1       0       8       1       1
       0       8       1       1       0       8       1       1       0       8
       1       1       0       8       1       1       0       8       1       1
       0       8       1       1       0       8       1       1       0       8
       1       1       0       8       1       1       0       8       1       1
       0       8       1       1       0       8       1       1       0       8
       1       1       0       8       1       1       0       8       1       1
       0       8       1       1       0       8       1       1       0       8
       1       1       0       8       1       1       0       8       1       1
       0       8       1       1       0       8       1       1       0       8
       1       1       0       8       1       1       0       8       1       1
       0       8       1       1       0       8       1       1       0       8
       1       1       0       8       1       1       0       8       1       1
       0       8       1       1       0       8       1       1       0       8
       1       1       0       8       1       1       0       8       1       1
       0       8       1       1       0       8       1       1       0       8
       1       1       0       8       1       1       0       8       1       1
       0       8       1       1       0       8       1       1       0       8
       1       1       0       8       1       1       0       8       1       1
       0       8       1       1       0       8       1       1       0       8
       1       1       0       8       1       1       0       8       1       1
       0       8       1       1       0       8       1       1       0       8
       1       1       0       8       1       1       0       8       1       1
       0       8       1       1       0       8       1       1       0       8
       1       1       0       8       1       1       0       8       1       1
       0       8       1       1       0       8       1       1       0       8
       1       1       0       8       1       1       0       8       1       1
       0       8       1       1       0       8       1       1       0       8
       1       1       0       8       1       1       0       8       1       1
       0       8       1       1       0       8       1       1       0       8
       1       1       0       8       1       1       0       8       1       1
       0       8       1       1       0       8       1       1       0       8
       1       1       0       8       1       1       0       8       1       1
       0       8       1       1       0       8       1       1       0       8
       1       1       0       8       1       1       0       8       1       1
       0       8       1       1       0       8       1       1       0       8
       1       1       0       8       1       1       0       8       1       1
       0       8       1       1       0       8       1       1       0       8
       1       1       0       8       1       1       0       8       1       1
       0       8       1       1       0       8       1       1       0       8
       1       1       0       8       1       1       0       8       1       1
       0       8       1       1       0       8       1       1       0       8
       1       1       0       8       1       1       0       8       1       1
       0       8       1       1       0       8       1       1       0       8
       1       1       0       8       1       1       0       8       1       1
       0       8       1       1       0       8       1       1       0       8
       1       1       0       8       1       1       0       8       1       1
       0       8       1       1       0       8       1       1       0       8
       1       1       0       8       1       1       0       8       1       1
       0       8       1       1       0       8       1       1       0       8
       1       1       0       8       1       1       0       8       1       1
       0       8       1       1       0       8       1       1       0       8
       1       1       0       8       1       1       0       8       1       1
       0       8       1       1       0       8       1       1       0       8
       1       1       0       8       1       1       0       8       1       1
       0       8       1       1       0       8       1       1       0       8
       1       1       0       8       1       1       0       8       1       1
       0       8       1       1       0       8       1       1       0       8
       1       1       0       8       1       1       0       8       1       1
       0       8       1       1       0       8       1       1       0       8
       1       1       0       8       1       1       0       8       1       1
       0       8       1       1       0       8       1       1       0       8
       1       1       0       8       1       1       0       8       1       1
       0       8       1       1       0       8       1       1       0       8
       1       1       0       8       1       1       0       8       1       1
       0       8       1       1       0       8       1       1       0       8
       1       1       0       8       1       1       0       8       1       1
       0       8       1       1       0       8       1       1       0       8
       1       1       0       8       1       1       0       8       1       1
       0       8       1       1       0       8       1       1       0       8
       1       1       0       8       1       1       0       8       1       1
       0       8       1       1       0       8       1       1       0       8
       1       1       0       8       1       1       0       8       1       1
       0       8       1       1       0       8       1       1       0       8
       1       1       0       8       1       1       0       8       1       1
       0       8       1       1       0       8       1       1       0       8
       1       1       0       8       1       1       0       8       1       1
       0       8       1       1       0       8       1       1       0       8
       1       1       0       8       1       1       0       8       1       1
       0       8       1       1       0       8       1       1       0       8
       1       1       0       8       1       1       0       8       1       1
       0       8       1       1       0       8       1       1       0       8
       1       1       0       8       1       1       0       8       1       1
       0       8       1       1       0       8       1       1       0       8
       1       1       0       8       1       1       0       8       1       1
       0       8       1       1       0       8       1       1       0       8
       1       1       0       8       1       1       0       8       1       1
       0       8       1       1       0       8       1       1       0       8
       1       1       0       8       1       1       0       8       1       1
       0       8       1       1       0       8       1       1       0       8
       1       1       0       8       1       1       0       8       1       1
       0       8       1       1       0       8       1       1       0       8
       1       1       0       8       1       1       0       8       1       1
       0       8       1       1       0       8       1       1       0       8
       1       1       0       8       1       1       0       8       1       1
       0       8       1       1       0       8       1       1       0       8
       1       1       0       8       1       1       0       8       1       1
       0       8       1       1       0       8       1       1       0       8
       1       1       0       8       1       1       0       8       1       1
       0       8       1       1       0       8       1       1       0       8
       1       1       0       8       1       1       0       8       1       1
       0       8       1       1       0       8       1       1       0       8
       1       1       0       8       1       1       0       8       1       1
       0       8       1       1       0       8       1       1       0       8
       1       1       0       8       1       1       0       8       1       1
       0       8       1       1       0       8       1       1       0       8
       1       1       0       8       1       1       0       8       1       1
       0       8       1       1       0       8       1       1       0       8
       1       1       0       8       1       1       0       8       1       1
       0       8       1       1       0       8       1       1       0       8
       1       1       0       8       1       1       0       8       1       1
       0       8       1       1       0       8       1       1       0       8
       1       1       0       8       1       1       0       8       1       1
       0       8       1       1       0       8       1       1       0       8
       1       1       0       8       1       1       0       8       1       1
       0       8       1       1       0       8       1       1       0       8
       1       1       0       8       1       1       0       8       1       1
       0       8       1       1       0       8       1       1       0       8
       1       1       0       8       1       1       0       8       1       1
       0       8       1       1       0       8       1       1       0       8
       1       1       0       8       1       1       0       8       1       1
       0       8       1       1       0       8       1       1       0       8
       1       1       0       8       1       1       0       8       1       1
       0       8       1       1       0       8       1       1       0       8
       1       1       0       8       1       1       0       8       1       1
       0       8       1       1       0       8       1       1       0       8
       1       1       0       8       1       1       0       8       1       1
       0       8       1       1       0       8       1       1       0       8
       1       1       0       8       1       1       0       8       1       1
       0       8       1       1       0       8       1       1       0       8
       1       1       0       8       1       1       0       8       1       1
       0       8       1       1       0       8       1       1       0       8
       1       1       0       8       1       1       0       8       1       1
       0       8       1       1       0       8       1       1       0       8
       1       1       0       8       1       1       0       8       1       1
       0       8       1       1       0       8       1       1       0       8
       1       1       0       8       1       1       0       8       1       1
       0       8       1       1       0       8       1       1       0       8
       1       1       0       8       1       1       0       8       1       1
       0       8       1       1       0       8       1       1       0       8
       1       1       0       8       1       1       0       8       1       1
       0       8       1       1       0       8       1       1       0       8
       1       1       0       8       1       1       0       8       1       1
       0       8       1       1       0       8       1       1       0       8
       1       1       0       8       1       1       0       8       1       1
       0       8       1       1       0       8       1       1       0       8
       1       1       0       8       1       1       0       8       1       1
       0       8       1       1       0       8       1       1       0       8
       1       1       0       8       1       1       0       8       1       1
       0       8       1       1       0       8       1       1       0       8
       1       1       0       8       1       1       0       8       1       1
       0       8       1       1       0       8       1       1       0       8
       1       1       0       8       1       1       0       8       1       1
       0       8       1       1       0       8       1       1       0       8
       1       1       0       8       1       1       0       8       1       1
       0       8       1       1       0       8       1       1       0       8
       1       1       0       8       1       1       0       8       1       1
       0       8       1       1       0       8       1       1       0       8
       1       1       0       8       1       1       0       8       1       1
       0       8       1       1       0       8       1       1       0       8
       1       1       0       8       1       1       0       8       1       1
       0       8       1       1       0       8       1       1       0       8
       1       1       0       8       1       1       0       8       1       1
       0       8       1       1       0       8       1       1       0       8
       1       1       0       8       1       1       0       8       1       1
       0       8       1       1       0       8       1       1       0       8
       1       1       0       8       1       1       0       8       1       1
       0       8       1       1       0       8       1       1       0       8
       1       1       0       8       1       1       0       8       1       1
       0       8       1       1       0       8       1       1       0       8
       1       1       0       8       1       1       0       8       1       1
       0       8       1       1       0       8       1       1       0       8
       1       1       0       8       1       1       0       8       1       1
       0       8       1       1       0       8       1       1       0       8
       1       1       0       8       1       1       0       8       1       1
       0       8       1       1       0       8       1       1       0       8
       1       1       0       8       1       1       0       8       1       1
       0       8       1       1       0       8       1       1       0       8
       1       1       0       8       1       1       0       8       1       1
       0       8       1       1       0       8       1       1       0       8
       1       1       0       8       1       1       0       8       1       1
       0       8       1       1       0       8       1       1       0       8
       1       1       0       8       1       1       0       8       1       1
       0       8       1       1       0       8       1       1       0       8
       1       1       0       8       1       1       0       8       1       1
       0       8       1       1       0       8       1       1       0       8
       1       1       0       8       1       1       0       8       1       1
       0       8       1       1       0       8       1       1       0       8
       1       1       0       8       1       1       0       8       1       1
       0       8       1       1       0       8       1       1       0       8
       1       1       0       8       1       1       0       8       1       1
       0       8       1       1       0       8       1       1       0       8
       1       1       0       8       1       1       0       8       1       1
       0       8       1       1       0       8       1       1       0       8
       1       1       0       8       1       1       0       8       1       1
       0       8       1       1       0       8       1       1       0       8
       1       1       0       8       1       1       0       8       1       1
       0       8       1       1       0       8       1       1       0       8
       1       1       0       8       1       1       0       8       1       1
       0       8       1       1       0       8       1       1       0       8
       1       1       0       8       1       1       0       8       1       1
       0       8       1       1       0       8       1       1       0       8
       1       1       0       8       1       1       0       8       1       1
       0       8       1       1       0       8       1       1       0       8
       1       1       0       8       1       1       0       8       1       1
       0       8       1       1       0       8       1       1       0       8
       1       1       0       8       1       1       0       8       1       1
       0       8       1       1       0       8       1       1       0       8
       1       1       0       8       1       1       0       8       1       1
       0       8       1       1       0       8       1       1       0       8
       1       1       0       8       1       1       0       8       1       1
       0       8       1       1       0       8       1       1       0       8
       1       1       0       8       1       1       0       8       1       1
       0       8       1       1       0       8       1       1       0       8
       1       1       0       8       1       1       0       8       1       1
       0       8       1       1       0       8       1       1       0       8
       1       1       0       8       1       1       0       8       1       1
       0       8       1       1       0       8       1       1       0       8
       1       1       0       8       1       1       0       8       1       1
       0       8       1       1       0       8       1       1       0       8
       1       1       0       8       1       1       0       8       1       1
       0       8       1       1       0       8       1       1       0       8
       1       1       0       8       1       1       0       8       1       1
       0       8       1       1       0       8       1       1       0       8
       1       1       0       8       1       1       0       8       1       1
       0       8       1       1       0       8       1       1       0       8
       1       1       0       8       1       1       0       8       1       1
       0       8       1       1       0       8       1       1       0       8
       1       1       0       8       1       1       0       8       1       1
       0       8       1       1       0       8       1       1       0       8
       1       1       0       8       1       1       0       8       1       1
       0       8       1       1       0       8       1       1       0       8
       1       1       0       8       1       1       0       8       1       1
       0       8       1       1       0       8       1       1       0       8
       1       1       0       8       1       1       0       8       1       1
       0       8       1       1       0       8       1       1       0       8
       1       1       0       8       1       1       0       8       1       1
       0       8       1       1       0       8       1       1       0       8
       1       1       0       8       1       1       0       8       1       1
       0       8       1       1       0       8       1       1       0       8
       1       1       0       8       1       1       0       8       1       1
       0       8       1       1       0       8       1       1       0       8
       1       1       0       8       1       1       0       8       1       1
       0       8       1       1       0       8       1       1       0       8
       1       1       0       8       1       1       0       8       1       1
       0       8       1       1       0       8       1       1       0       8
       1       1       0       8       1       1       0       8       1       1
       0       8       1       1       0       8       1       1       0       8
       1       1       0       8       1       1       0       8       1       1
       0       8       1       1       0       8       1       1       0       8
       1       1       0       8       1       1       0       8       1       1
       0       8       1       1       0       8       1       1       0       8
       1       1       0       8       1       1       0       8       1       1
       0       8       1       1       0       8       1       1       0       8
       1       1       0       8       1       1       0       8       1       1
       0       8       1       1       0       8       1       1       0       8
       1       1       0       8       1       1       0       8       1       1
       0       8       1       1       0       8       1       1       0       8
       1       1       0       8       1       1       0       8       1       1
       0       8       1       1       0       8       1       1       0       8
       1       1       0       8       1       1       0       8       1       1
       0       8       1       1       0       8       1       1       0       8
       1       1       0       8       1       1       0       8       1       1
       0       8       1       1       0       8       1       1       0       8
       1       1       0       8       1       1       0       8       1       1
       0       8       1       1       0       8       1       1       0       8
       1       1       0       8       1       1       0       8       1       1
       0       8       1       1       0       8       1       1       0       8
       1       1       0       8       1       1       0       8       1       1
       0       8       1       1       0       8       1       1       0       8
       1       1       0       8       1       1       0       8       1       1
       0       8       1       1       0       8       1       1       0       8
       1       1       0       8       1       1       0       8       1       1
       0       8       1       1       0       8       1       1       0       8
       1       1       0       8       1       1       0       8       1       1
       0       8       1       1       0       8       1       1       0       8
       1       1       0       8       1       1       0       8       1       1
       0       8       1       1       0       8       1       1       0       8
       1       1       0       8       1       1       0       8       1       1
       0       8       1       1       0       8       1       1       0       8
       1       1       0       8       1       1       0       8       1       1
       0       8       1       1       0       8       1       1       0       8
       1       1       0       8       1       1       0       8       1       1
       0       8       1       1       0       8       1       1       0       8
       1       1       0       8       1       1       0       8       1       1
       0       8       1       1       0       8       1       1       0       8
       1       1       0       8       1       1       0       8       1       1
       0       8       1       1       0       8       1       1       0       8
       1       1       0       8       1       1       0       8       1       1
       0       8       1       1       0       8       1       1       0       8
       1       1       0       8       1       1       0       8       1       1
       0       8       1       1       0       8       1       1       0       8
       1       1       0       8       1       1       0       8       1       1
       0       8       1       1       0       8       1       1       0       8
       1       1       0       8       1       1       0       8       1       1
       0       8       1       1       0       8       1       1       0       8
       1       1       0       8       1       1       0       8       1       1
       0       8       1       1       0       8       1       1       0       8
       1       1       0       8       1       1       0       8       1       1
       0       8       1       1       0       8       1       1       0       8
       1       1       0       8       1       1       0       8       1       1
       0       8       1       1       0       8       1       1       0       8
       1       1       0       8       1       1       0       8       1       1
       0       8       1       1       0       8       1       1       0       8
       1       1       0       8       1       1       0       8       1       1
       0       8       1       1       0       8       1       1       0       8
       1       1       0       8       1       1       0       8       1       1
       0       8       1       1       0       8       1       1       0       8
       1       1       0       8       1       1       0       8       1       1
       0       8       1       1       0       8       1       1       0       8
       1       1       0       8       1       1       0       8       1       1
       0       8       1       1       0       8       1       1       0       8
       1       1       0       8       1       1       0       8       1       1
       0       8       1       1       0       8       1       1       0       8
       1       1       0       8       1       1       0       8       1       1
       0       8       1       1       0       8       1       1       0       8
       1       1       0       8       1       1       0       8       1       1
       0       8       1       1       0       8       1       1       0       8
       1       1       0       8       1       1       0       8       1       1
       0       8       1       1       0       8       1       1       0       8
       1       1       0       8       1       1       0       8       1       1
       0       8       1       1       0       8       1       1       0       8
       1       1       0       8       1       1       0       8       1       1
       0       8       1       1       0       8       1       1       0       8
       1       1       0       8       1       1       0       8       1       1
       0       8       1       1       0       8       1       1       0       8
       1       1       0       8       1       1       0       8       1       1
       0       8       1       1       0       8       1       1       0       8
       1       1       0       8       1       1       0       8       1       1
       0       8       1       1       0       8       1       1       0       8
       1       1       0       8       1       1       0       8       1       1
       0       8       1       1       0       8       1       1       0       8
       1       1       0       8       1       1       0       8       1       1
       0       8       1       1       0       8       1       1       0       8
       1       1       0       8       1       1       0       8       1       1
       0       8       1       1       0       8       1       1       0       8
       1       1       0       8       1       1       0       8       1       1
       0       8       1       1       0       8       1       1       0       8
       1       1       0       8       1       1       0       8       1       1
       0       8       1       1       0       8       1       1       0       8
       1       1       0       8       1       1       0       8       1       1
       0       8       1       1       0       8       1       1       0       8
       1       1       0       8       1       1       0       8       1       1
       0       8       1       1       0       8       1       1       0       8
       1       1       0       8       1       1       0       8       1       1
       0       8       1       1       0       8       1       1       0       8
       1       1       0       8       1       1       0       8       1       1
       0       8       1       1       0       8       1       1       0       8
       1       1       0       8       1       1       0       8       1       1
       0       8       1       1       0       8       1       1       0       8
       1       1       0       8       1       1       0       8       1       1
       0       8       1       1       0       8       1       1       0       8
       1       1       0       8       1       1       0       8       1       1
       0       8       1       1       0       8       1       1       0       8
       1       1       0       8       1       1       0       8       1       1
       0       8       1       1       0       8       1       1       0       8
       1       1       0       8       1       1       0       8       1       1
       0       8       1       1       0       8       1       1       0       8
       1       1       0       8       1       1       0       8       1       1
       0       8       1       1       0       8       1       1       0       8
       1       1       0       8       1       1       0       8       1       1
       0       8       1       1       0       8       1       1       0       8
       1       1       0       8       1       1       0       8       1       1
       0       8       1       1       0       8       1       1       0       8
       1       1       0       8       1       1       0       8       1       1
       0       8       1       1       0       8       1       1       0       8
       1       1       0       8       1       1       0       8       1       1
       0       8       1       1       0       8       1       1       0       8
       1       1       0       8       1       1       0       8       1       1
       0       8       1       1       0       8       1       1       0       8
       1       1       0       8       1       1       0       8       1       1
       0       8       1       1       0       8       1       1       0       8
       1       1       0       8       1       1       0       8       1       1
       0       8       1       1       0       8       1       1       0       8
       1       1       0       8       1       1       0       8       1       1
       0       8       1       1       0       8       1       1       0       8
       1       1       0       8       1       1       0       8       1       1
       0       8       1       1       0       8       1       1       0       8
       1       1       0       8       1       1       0       8       1       1
       0       8       1       1       0       8       1       1       0       8
       1       1       0       8       1       1       0       8       1       1
       0       8       1       1       0       8       1       1       0       8
       1       1       0       8       1       1       0       8       1       1
       0       8       1       1       0       8       1       1       0       8
       1       1       0       8       1       1       0       8       1       1
       0       8       1       1       0       8       1       1       0       8
       1       1       0       8       1       1       0       8       1       1
       0       8       1       1       0       8       1       1       0       8
       1       1       0       8       1       1       0       8       1       1
       0       8       1       1       0       8       1       1       0       8
       1       1       0       8       1       1       0       8       1       1
       0       8       1       1       0       8       1       1       0       8
       1       1       0       8       1       1       0       8       1       1
       0       8       1       1       0       8       1       1       0       8
       1       1       0       8       1       1       0       8       1       1
       0       8       1       1       0       8       1       1       0       8
       1       1       0       8       1       1       0       8       1       1
       0       8       1       1       0       8       1       1       0       8
       1       1       0       8       1       1       0       8       1       1
       0       8       1       1       0       8       1       1       0       8
       1       1       0       8       1       1       0       8       1       1
       0       8       1       1       0       8       1       1       0       8
       1       1       0       8       1       1       0       8       1       1
       0       8       1       1       0       8       1       1       0       8
       1       1       0       8       1       1       0       8       1       1
       0       8       1       1       0       8       1       1       0       8
       1       1       0       8       1       1       0       8       1       1
       0       8       1       1       0       8       1       1       0       8
       1       1       0       8       1       1       0       8       1       1
       0       8       1       1       0       8       1       1       0       8
       1       1       0       8       1       1       0       8       1       1
       0       8       1       1       0       8       1       1       0       8
       1       1       0       8       1       1       0       8       1       1
       0       8       1       1       0       8       1       1       0       8
       1       1       0       8       1       1       0       8       1       1
       0       8       1       1       0       8       1       1       0       8
       1       1       0       8       1       1       0       8       1       1
       0       8       1       1       0       8       1       1       0       8
       1       1       0       8       1       1       0       8       1       1
       0       8       1       1       0       8       1       1       0       8
       1       1       0       8       1       1       0       8       1       1
       0       8       1       1       0       8       1       1       0       8
       1       1       0       8       1       1       0       8       1       1
       0       8       1       1       0       8       1       1       0       8
       1       1       0       8       1       1       0       8       1       1
       0       8       1       1       0       8       1       1       0       8
       1       1       0       8       1       1       0       8       1       1
       0       8       1       1       0       8       1       1       0       8
       1       1       0       8       1       1       0       8       1       1
       0       8       1       1       0       8       1       1       0       8
       1       1       0       8       1       1       0       8       1       1
       0       8       1       1       0       8       1       1       0       8
       1       1       0       8       1       1       0       8       1       1
       0       8       1       1       0       8       1       1       0       8
       1       1       0       8       1       1       0       8       1       1
       0       8       1       1       0       8       1       1       0       8
       1       1       0       8       1       1       0       8       1       1
       0       8       1       1       0       8       1       1       0       8
       1       1       0       8       1       1       0       8       1       1
       0       8       1       1       0       8       1       1       0       8
       1       1       0       8       1       1       0       8       1       1
       0       8       1       1       0       8       1       1       0       8
       1       1       0       8       1       1       0       8       1       1
       0       8       1       1       0       8       1       1       0       8
       1       1       0       8       1       1       0       8       1       1
       0       8       1       1       0       8       1       1       0       8
       1       1       0       8       1       1       0       8       1       1
       0       8       1       1       0       8       1       1       0       8
       1       1       0       8       1       1       0       8       1       1
       0       8       1       1       0       8       1       1       0       8
       1       1       0       8       1       1       0       8       1       1
       0       8       1       1       0       8       1       1       0       8
       1       1       0       8       1       1       0       8       1       1
       0       8       1       1       0       8       1       1       0       8
       1       1       0       8       1       1       0       8       1       1
       0       8       1       1       0       8       1       1       0       8
       1       1       0       8       1       1       0       8       1       1
       0       8       1       1       0       8       1       1       0       8
       1       1       0       8       1       1       0       8       1       1
       0       8       1       1       0       8       1       1       0       8
       1       1       0       8       1       1       0       8       1       1
       0       8       1       1       0       8       1       1       0       8
       1       1       0       8       1       1       0       8       1       1
       0       8       1       1       0       8       1       1       0       8
       1       1       0       8       1       1       0       8       1       1
       0       8       1       1       0       8       1       1       0       8
       1       1       0       8       1       1       0       8       1       1
       0       8       1       1       0       8       1       1       0       8
       1       1       0       8       1       1       0       8       1       1
       0       8       1       1       0       8       1       1       0       8
       1       1       0       8       1       1       0       8       1       1
       0       8       1       1       0       8       1       1       0       8
       1       1       0       8       1       1       0       8       1       1
       0       8       1       1       0       8       1       1       0       8
       1       1       0       8       1       1       0       8       1       1
       0       8       1       1       0       8       1       1       0       8
       1       1       0       8       1       1       0       8       1       1
       0       8       1       1       0       8       1       1       0       8
       1       1       0       8       1       1       0       8       1       1
       0       8       1       1       0       8       1       1       0       8
       1       1       0       8       1       1       0       8       1       1
       0       8       1       1       0       8       1       1       0       8
       1       1       0       8       1       1       0       8       1       1
       0       8       1       1       0       8       1       1       0       8
       1       1       0       8       1       1       0       8       1       1
       0       8       1       1       0       8       1       1       0       8
       1       1       0       8       1       1       0       8       1       1
       0       8       1       1       0       8       1       1       0       8
       1       1       0       8       1       1       0       8       1       1
       0       8       1       1       0       8       1       1       0       8
       1       1       0       8       1       1       0       8       1       1
       0       8       1       1       0       8       1       1       0       8
       1       1       0       8       1       1       0       8       1       1
       0       8       1       1       0       8       1       1       0       8
       1       1       0       8       1       1       0       8       1       1
       0       8       1       1       0       8       1       1       0       8
       1       1       0       8       1       1       0       8       1       1
       0       8       1       1       0       8       1       1       0       8
       1       1       0       8       1       1       0       8       1       1
       0       8       1       1       0       8       1       1       0       8
       1       1       0       8       1       1       0       8       1       1
       0       8       1       1       0       8       1       1       0       8
       1       1       0       8       1       1       0       8       1       1
       0       8       1       1       0       8       1       1       0       8
       1       1       0       8       1       1       0       8       1       1
       0       8       1       1       0       8       1       1       0       8
       1       1       0       8       1       1       0       8       1       1
       0       8       1       1       0       8       1       1       0       8
       1       1       0       8       1       1       0       8       1       1
       0       8       1       1       0       8       1       1       0       8
       1       1       0       8       1       1       0       8       1       1
       0       8       1       1       0       8       1       1       0       8
       1       1       0       8       1       1       0       8       1       1
       0       8       1       1       0       8       1       1       0       8
       1       1       0       8       1       1       0       8       1       1
       0       8       1       1       0       8       1       1       0       8
       1       1       0       8       1       1       0       8       1       1
       0       8       1       1       0       8       1       1       0       8
       1       1       0       8       1       1       0       8       1       1
       0       8       1       1       0       8       1       1       0       8
       1       1       0       8       1       1       0       8       1       1
       0       8       1       1       0       8       1       1       0       8
       1       1       0       8       1       1       0       8       1       1
       0       8       1       1       0       8       1       1       0       8
       1       1       0       8       1       1       0       8       1       1
       0       8       1       1       0       8       1       1       0       8
       1       1       0       8       1       1       0       8       1       1
       0       8       1       1       0       8       1       1       0       8
       1       1       0       8       1       1       0       8       1       1
       0       8       1       1       0       8       1       1       0       8
       1       1       0       8       1       1       0       8       1       1
       0       8       1       1       0       8       1       1       0       8
       1       1       0       8       1       1       0       8       1       1
       0       8       1       1       0       8       1       1       0       8
       1       1       0       8       1       1       0       8       1       1
       0       8       1       1       0       8       1       1       0       8
       1       1       0       8       1       1       0       8       1       1
       0       8       1       1       0       8       1       1       0       8
       1       1       0       8       1       1       0       8       1       1
       0       8       1       1       0       8       1       1       0       8
       1       1       0       8       1       1       0       8       1       1
       0       8       1       1       0       8       1       1       0       8
       1       1       0       8       1       1       0       8       1       1
       0       8       1       1       0       8       1       1       0       8
       1       1       0       8       1       1       0       8       1       1
       0       8       1       1       0       8       1       1       0       8
       1       1       0       8       1       1       0       8       1       1
       0       8       1       1       0       8       1       1       0       8
       1       1       0       8       1       1       0       8       1       1
       0       8       1       1       0       8       1       1       0       8
       1       1       0       8       1       1       0       8       1       1
       0       8       1       1       0       8       1       1       0       8
       1       1       0       8       1       1       0       8       1       1
       0       8       1       1       0       8       1       1       0       8
       1       1       0       8       1       1       0       8       1       1
       0       8       1       1       0       8       1       1       0       8
       1       1       0       8       1       1       0       8       1       1
       0       8       1       1       0       8       1       1       0       8
       1       1       0       8       1       1       0       8       1       1
       0       8       1       1       0       8       1       1       0       8
       1       1       0       8       1       1       0       8       1       1
       0       8       1       1       0       8       1       1       0       8
       1       1       0       8       1       1       0       8       1       1
       0       8       1       1       0       8       1       1       0       8
       1       1       0       8       1       1       0       8       1       1
       0       8       1       1       0       8       1       1       0       8
       1       1       0       8       1       1       0       8       1       1
       0       8       1       1       0       8       1       1       0       8
       1       1       0       8       1       1       0       8       1       1
       0       8       1       1       0       8       1       1       0       8
       1       1       0       8       1       1       0       8       1       1
       0       8       1       1       0       8       1       1       0       8
       1       1       0       8       1       1       0       8       1       1
       0       8       1       1       0       8       1       1       0       8
       1       1       0       8       1       1       0       8       1       1
       0       8       1       1       0       8       1       1       0       8
       1       1       0       8       1       1       0       8       1       1
       0       8       1       1       0       8       1       1       0       8
       1       1       0       8       1       1       0       8       1       1
       0       8       1       1       0       8       1       1       0       8
       1       1       0       8       1       1       0       8       1       1
       0       8       1       1       0       8       1       1       0       8
       1       1       0       8       1       1       0       8       1       1
       0       8       1       1       0       8       1       1       0       8
       1       1       0       8       1       1       0       8       1       1
       0       8       1       1       0       8       1       1       0       8
       1       1       0       8       1       1       0       8       1       1
       0       8       1       1       0       8       1       1       0       8
       1       1       0       8       1       1       0       8       1       1
       0       8       1       1       0       8       1       1       0       8
       1       1       0       8       1       1       0       8       1       1
       0       8       1       1       0       8       1       1       0       8
       1       1       0       8       1       1       0       8       1       1
       0       8       1       1       0       8       1       1       0       8
       1       1       0       8       1       1       0       8       1       1
       0       8       1       1       0       8       1       1       0       8
       1       1       0       8       1       1       0       8       1       1
       0       8       1       1       0       8       1       1       0       8
       1       1       0       8       1       1       0       8       1       1
       0       8       1       1       0       8       1       1       0       8
       1       1       0       8       1       1       0       8       1       1
       0       8       1       1       0       8       1       1       0       8
       1       1       0       8       1       1       0       8       1       1
       0       8       1       1       0       8       1       1       0       8
       1       1       0       8       1       1       0       8       1       1
       0       8       1       1       0       8       1       1       0       8
       1       1       0       8       1       1       0       8       1       1
       0       8       1       1       0       8       1       1       0       8
       1       1       0       8       1       1       0       8       1       1
       0       8       1       1       0       8       1       1       0       8
       1       1       0       8       1       1       0       8       1       1
       0       8       1       1       0       8       1       1       0       8
       1       1       0       8       1       1       0       8       1       1
       0       8       1       1       0       8       1       1       0       8
       1       1       0       8       1       1       0       8       1       1
       0       8       1       1       0       8       1       1       0       8
       1       1       0       8       1       1       0       8       1       1
       0       8       1       1       0       8       1       1       0       8
       1       1       0       8       1       1       0       8       1       1
       0       8       1       1       0       8       1       1       0       8
       1       1       0       8       1       1       0       8       1       1
       0       8       1       1       0       8       1       1       0       8
       1       1       0       8       1       1       0       8       1       1
       0       8       1       1       0       8       1       1       0       8
       1       1       0       8       1       1       0       8       1       1
       0       8       1       1       0       8       1       1       0       8
       1       1       0       8       1       1       0       8       1       1
       0       8       1       1       0       8       1       1       0       8
       1       1       0       8       1       1       0       8       1       1
       0       8       1       1       0       8       1       1       0       8
       1       1       0       8       1       1       0       8       1       1
       0       8       1       1       0       8       1       1       0       8
       1       1       0       8       1       1       0       8       1       1
       0       8       1       1       0       8       1       1       0       8
       1       1       0       8       1       1       0       8       1       1
       0       8       1       1       0       8       1       1       0       8
       1       1       0       8       1       1       0       8       1       1
       0       8       1       1       0       8       1       1       0       8
       1       1       0       8       1       1       0       8       1       1
       0       8       1       1       0       8       1       1       0       8
       1       1       0       8       1       1       0       8       1       1
       0       8       1       1       0       8       1       1       0       8
       1       1       0       8       1       1       0       8       1       1
       0       8       1       1       0       8       1       1       0       8
       1       1       0       8       1       1       0       8       1       1
       0       8       1       1       0       8       1       1       0       8
       1       1       0       8       1       1       0       8       1       1
       0       8       1       1       0       8       1       1       0       8
       1       1       0       8       1       1       0       8       1       1
       0       8       1       1       0       8       1       1       0       8
       1       1       0       8       1       1       0       8       1       1
       0       8       1       1       0       8       1       1       0       8
       1       1       0       8       1       1       0       8       1       1
       0       8       1       1       0       8       1       1       0       8
       1       1       0       8       1       1       0       8       1       1
       0       8       1       1       0       8       1       1       0       8
       1       1       0       8       1       1       0       8       1       1
       0       8       1       1       0       8       1       1       0       8
       1       1       0       8       1       1       0       8       1       1
       0       8       1       1       0       8       1       1       0       8
       1       1       0       8       1       1       0       8       1       1
       0       8       1       1       0       8       1       1       0       8
       1       1       0       8       1       1       0       8       1       1
       0       8       1       1       0       8       1       1       0       8
       1       1       0       8       1       1       0       8       1       1
       0       8       1       1       0       8       1       1       0       8
       1       1       0       8       1       1       0       8       1       1
       0       8       1       1       0       8       1       1       0       8
       1       1       0       8       1       1       0       8       1       1
       0       8       1       1       0       8       1       1       0       8
       1       1       0       8       1       1       0       8       1       1
       0       8       1       1       0       8       1       1       0       8
       1       1       0       8       1       1       0       8       1       1
       0       8       1       1       0       8       1       1       0       8
       1       1       0       8       1       1       0       8       1       1
       0       8       1       1       0       8       1       1       0       8
       1       1       0       8       1       1       0       8       1       1
       0       8       1       1       0       8       1       1       0       8
       1       1       0       8       1       1       0       8       1       1
       0       8       1       1       0       8       1       1       0       8
       1       1       0       8       1       1       0       8       1       1
       0       8       1       1       0       8       1       1       0       8
       1       1       0       8       1       1       0       8       1       1
       0       8       1       1       0       8       1       1       0       8
       1       1       0       8       1       1       0       8       1       1
       0       8       1       1       0       8       1       1       0       8
       1       1       0       8       1       1       0       8       1       1
       0       8       1       1       0       8       1       1       0       8
       1       1       0       8       1       1       0       8       1       1
       0       8       1       1       0       8       1       1       0       8
       1       1       0       8       1       1       0       8       1       1
       0       8       1       1       0       8       1       1       0       8
       1       1       0       8       1       1       0       8       1       1
       0       8       1       1       0       8       1       1       0       8
       1       1       0       8       1       1       0       8       1       1
       0       8       1       1       0       8       1       1       0       8
       1       1       0       8       1       1       0       8       1       1
       0       8       1       1       0       8       1       1       0       8
       1       1       0       8       1       1       0       8       1       1
       0       8       1       1       0       8       1       1       0       8
       1       1       0       8       1       1       0       8       1       1
       0       8       1       1       0       8       1       1       0       8
       1       1       0       8       1       1       0       8       1       1
       0       8       1       1       0       8       1       1       0       8
       1       1       0       8       1       1       0       8       1       1
       0       8       1       1       0       8       1       1       0       8
       1       1       0       8       1       1       0       8       1       1
       0       8       1       1       0       8       1       1       0       8
       1       1       0       8       1       1       0       8       1       1
       0       8       1       1       0       8       1       1       0       8
       1       1       0       8       1       1       0       8       1       1
       0       8       1       1       0       8       1       1       0       8
       1       1       0       8       1       1       0       8       1       1
       0       8       1       1       0       8       1       1       0       8
       1       1       0       8       1       1       0       8       1       1
       0       8       1       1       0       8       1       1       0       8
       1       1       0       8       1       1       0       8       1       1
       0       8       1       1       0       8       1       1       0       8
       1       1       0       8       1       1       0       8       1       1
       0       8       1       1       0       8       1       1       0       8
       1       1       0       8       1       1       0       8       1       1
       0       8       1       1       0       8       1       1       0       8
       1       1       0       8       1       1       0       8       1       1
       0       8       1       1       0       8       1       1       0       8
       1       1       0       8       1       1       0       8       1       1
       0       8       1       1       0       8       1       1       0       8
       1       1       0       8       1       1       0       8       1       1
       0       8       1       1       0       8       1       1       0       8
       1       1       0       8       1       1       0       8       1       1
       0       8       1       1       0       8       1       1       0       8
       1       1       0       8       1       1       0       8       1       1
       0       8       1       1       0       8       1       1       0       8
       1       1       0       8       1       1       0       8       1       1
       0       8       1       1       0       8       1       1       0       8
       1       1       0       8       1       1       0       8       1       1
       0       8       1       1       0       8       1       1       0       8
       1       1       0       8       1       1       0       8       1       1
       0       8       1       1       0       8       1       1       0       8
       1       1       0       8       1       1       0       8       1       1
       0       8       1       1       0       8       1       1       0       8
       1       1       0       8       1       1       0       8       1       1
       0       8       1       1       0       8       1       1       0       8
       1       1       0       8       1       1       0       8       1       1
       0       8       1       1       0       8       1       1       0       8
       1       1       0       8       1       1       0       8       1       1
       0       8       1       1       0       8       1       1       0       8
       1       1       0       8       1       1       0       8       1       1
       0       8       1       1       0       8       1       1       0       8
       1       1       0       8       1       1       0       8       1       1
       0       8       1       1       0       8       1       1       0       8
       1       1       0       8       1       1       0       8       1       1
       0       8       1       1       0       8       1       1       0       8
       1       1       0       8       1       1       0       8       1       1
       0       8       1       1       0       8       1       1       0       8
       1       1       0       8       1       1       0       8       1       1
       0       8       1       1       0       8       1       1       0       8
       1       1       0       8       1       1       0       8       1       1
       0       8       1       1       0       8       1       1       0       8
       1       1       0       8       1       1       0       8       1       1
       0       8       1       1       0       8       1       1       0       8
       1       1       0       8       1       1       0       8       1       1
       0       8       1       1       0       8       1       1       0       8
       1       1       0       8       1       1       0       8       1       1
       0       8       1       1       0       8       1       1       0       8
       1       1       0       8       1       1       0       8       1       1
       0       8       1       1       0       8       1       1       0       8
       1       1       0       8       1       1       0       8       1       1
       0       8       1       1       0       8       1       1       0       8
       1       1       0       8       1       1       0       8       1       1
       0       8       1       1       0       8       1       1       0       8
       1       1       0       8       1       1       0       8       1       1
       0       8       1       1       0       8       1       1       0       8
       1       1       0       8       1       1       0       8       1       1
       0       8       1       1       0       8       1       1       0       8
       1       1       0       8       1       1       0       8       1       1
       0       8       1       1       0       8       1       1       0       8
       1       1       0       8       1       1       0       8       1       1
       0       8       1       1       0       8       1       1       0       8
       1       1       0       8       1       1       0       8       1       1
       0       8       1       1       0       8       1       1       0       8
       1       1       0       8       1       1       0       8       1       1
       0       8       1       1       0       8       1       1       0       8
       1       1       0       8       1       1       0       8       1       1
       0       8       1       1       0       8       1       1       0       8
       1       1       0       8       1       1       0       8       1       1
       0       8       1       1       0       8       1       1       0       8
       1       1       0       8       1       1       0       8       1       1
       0       8       1       1       0       8       1       1       0       8
       1       1       0       8       1       1       0       8       1       1
       0       8       1       1       0       8       1       1       0       8
       1       1       0       8       1       1       0       8       1       1
       0       8       1       1       0       8       1       1       0       8
       1       1       0       8       1       1       0       8       1       1
       0       8       1       1       0       8       1       1       0       8
       1       1       0       8       1       1       0       8       1       1
       0       8       1       1       0       8       1       1       0       8
       1       1       0       8       1       1       0       8       1       1
       0       8       1       1       0       8       1       1       0       8
       1       1       0       8       1       1       0       8       1       1
       0       8       1       1       0       8       1       1       0       8
       1       1       0       8       1       1       0       8       1       1
       0       8       1       1       0       8       1       1       0       8
       1       1       0       8       1       1       0       8       1       1
       0       8       1       1       0       8       1       1       0       8
       1       1       0       8       1       1       0       8       1       1
       0       8       1       1       0       8       1       1       0       8
       1       1       0       8       1       1       0       8       1       1
       0       8       1       1       0       8       1       1       0       8
       1       1       0       8       1       1       0       8       1       1
       0       8       1       1       0       8       1       1       0       8
       1       1       0       8       1       1       0       8       1       1
       0       8       1       1       0       8       1       1       0       8
       1       1       0       8       1       1       0       8       1       1
       0       8       1       1       0       8       1       1       0       8
       1       1       0       8       1       1       0       8       1       1
       0       8       1       1       0       8       1       1       0       8
       1       1       0       8       1       1       0       8       1       1
       0       8       1       1       0       8       1       1       0       8
       1       1       0       8       1       1       0       8       1       1
       0       8       1       1       0       8       1       1       0       8
       1       1       0       8       1       1       0       8       1       1
       0       8       1       1       0       8       1       1       0       8
       1       1       0       8       1       1       0       8       1       1
       0       8       1       1       0       8       1       1       0       8
       1       1       0       8       1       1       0       8       1       1
       0       8       1       1       0       8       1       1       0       8
       1       1       0       8       1       1       0       8       1       1
       0       8       1       1       0       8       1       1       0       8
       1       1       0       8       1       1       0       8       1       1
       0       8       1       1       0       8       1       1       0       8
       1       1       0       8       1       1       0       8       1       1
       0       8       1       1       0       8       1       1       0       8
       1       1       0       8       1       1       0       8       1       1
       0       8       1       1       0       8       1       1       0       8
       1       1       0       8       1       1       0       8       1       1
       0       8       1       1       0       8       1       1       0       8
       1       1       0       8       1       1       0       8       1       1
       0       8       1       1       0       8       1       1       0       8
       1       1       0       8       1       1       0       8       1       1
       0       8       1       1       0       8       1       1       0       8
       1       1       0       8       1       1       0       8       1       1
       0       8       1       1       0       8       1       1       0       8
       1       1       0       8       1       1       0       8       1       1
       0       8       1       1       0       8       1       1       0       8
       1       1       0       8       1       1       0       8       1       1
       0       8       1       1       0       8       1       1       0       8
       1       1       0       8       1       1       0       8       1       1
       0       8       1       1       0       8       1       1       0       8
       1       1       0       8       1       1       0       8       1       1
       0       8       1       1       0       8       1       1       0       8
       1       1       0       8       1       1       0       8       1       1
       0       8       1       1       0       8       1       1       0       8
       1       1       0       8       1       1       0       8       1       1
       0       8       1       1       0       8       1       1       0       8
       1       1       0       8       1       1       0       8       1       1
       0       8       1       1       0       8       1       1       0       8
       1       1       0       8       1       1       0       8       1       1
       0       8       1       1       0       8       1       1       0       8
       1       1       0       8       1       1       0       8       1       1
       0       8       1       1       0       8       1       1       0       8
       1       1       0       8       1       1       0       8       1       1
       0       8       1       1       0       8       1       1       0       8
       1       1       0       8       1       1       0       8       1       1
       0       8       1       1       0       8       1       1       0       8
       1       1       0       8       1       1       0       8       1       1
       0       8       1       1       0       8       1       1       0       8
       1       1       0       8       1       1       0       8       1       1
       0       8       1       1       0       8       1       1       0       8
       1       1       0       8       1       1       0       8       1       1
       0       8       1       1       0       8       1       1       0       8
       1       1       0       8       1       1       0       8       1       1
       0       8       1       1       0       8       1       1       0       8
       1       1       0       8       1       1       0       8       1       1
       0       8       1       1       0       8       1       1       0       8
       1       1       0       8       1       1       0       8       1       1
       0       8       1       1       0       8       1       1       0       8
       1       1       0       8       1       1       0       8       1       1
       0       8       1       1       0       8       1       1       0       8
       1       1       0       8       1       1       0       8       1       1
       0       8       1       1       0       8       1       1       0       8
       1       1       0       8       1       1       0       8       1       1
       0       8       1       1       0       8       1       1       0       8
       1       1       0       8       1       1       0       8       1       1
       0       8       1       1       0       8       1       1       0       8
       1       1       0       8       1       1       0       8       1       1
       0       8       1       1       0       8       1       1       0       8
       1       1       0       8       1       1       0       8       1       1
       0       8       1       1       0       8       1       1       0       8
       1       1       0       8       1       1       0       8       1       1
       0       8       1       1       0       8       1       1       0       8
       1       1       0       8       1       1       0       8       1       1
       0       8       1       1       0       8       1       1       0       8
       1       1       0       8       1       1       0       8       1       1
       0       8       1       1       0       8       1       1       0       8
       1       1       0       8       1       1       0       8       1       1
       0       8       1       1       0       8       1       1       0       8
       1       1       0       8       1       1       0       8       1       1
       0       8       1       1       0       8       1       1       0       8
       1       1       0       8       1       1       0       8       1       1
       0       8       1       1       0       8       1       1       0       8
       1       1       0       8       1       1       0       8       1       1
       0       8       1       1       0       8       1       1       0       8
       1       1       0       8       1       1       0       8       1       1
       0       8       1       1       0       8       1       1       0       8
       1       1       0       8       1       1       0       8       1       1
       0       8       1       1       0       8       1       1       0       8
       1       1       0       8       1       1       0       8       1       1
       0       8       1       1       0       8       1       1       0       8
       1       1       0       8       1       1       0       8       1       1
       0       8       1       1       0       8       1       1       0       8
       1       1       0       8       1       1       0       8       1       1
       0       8       1       1       0       8       1       1       0       8
       1       1       0       8       1       1       0       8       1       1
       0       8       1       1       0       8       1       1       0       8
       1       1       0       8       1       1       0       8       1       1
       0       8       1       1       0       8       1       1       0       8
       1       1       0       8       1       1       0       8       1       1
       0       8       1       1       0       8       1       1       0       8
       1       1       0       8       1       1       0       8       1       1
       0       8       1       1       0       8       1       1       0       8
       1       1       0       8       1       1       0       8       1       1
       0       8       1       1       0       8       1       1       0       8
       1       1       0       8       1       1       0       8       1       1
       0       8       1       1       0       8       1       1       0       8
       1       1       0       8       1       1       0       8       1       1
       0       8       1       1       0       8       1       1       0       8
       1       1       0       8       1       1       0       8       1       1
       0       8       1       1       0       8       1       1       0       8
       1       1       0       8       1       1       0       8       1       1
       0       8       1       1       0       8       1       1       0       8
       1       1       0       8       1       1       0       8       1       1
       0       8       1       1       0       8       1       1       0       8
       1       1       0       8       1       1       0       8       1       1
       0       8       1       1       0       8       1       1       0       8
       1       1       0       8       1       1       0       8       1       1
       0       8       1       1       0       8       1       1       0       8
       1       1       0       8       1       1       0       8       1       1
       0       8       1       1       0       8       1       1       0       8
       1       1       0       8       1       1       0       8       1       1
       0       8       1       1       0       8       1       1       0       8
       1       1       0       8       1       1       0       8       1       1
       0       8       1       1       0       8       1       1       0       8
       1       1       0       8       1       1       0       8       1       1
       0       8       1       1       0       8       1       1       0       8
       1       1       0       8       1       1       0       8       1       1
       0       8       1       1       0       8       1       1       0       8
       1       1       0       8       1       1       0       8       1       1
       0       8       1       1       0       8       1       1       0       8
       1       1       0       8       1       1       0       8       1       1
       0       8       1       1       0       8       1       1       0       8
       1       1       0       8       1       1       0       8       1       1
       0       8       1       1       0       8       1       1       0       8
       1       1       0       8       1       1       0       8       1       1
       0       8       1       1       0       8       1       1       0       8
       1       1       0       8       1       1       0       8       1       1
       0       8       1       1       0       8       1       1       0       8
       1       1       0       8       1       1       0       8       1       1
       0       8       1       1       0       8       1       1       0       8
       1       1       0       8       1       1       0       8       1       1
       0       8       1       1       0       8       1       1       0       8
       1       1       0       8       1       1       0       8       1       1
       0       8       1       1       0       8       1       1       0       8
       1       1       0       8       1       1       0       8       1       1
       0       8       1       1       0       8       1       1       0       8
       1       1       0       8       1       1       0       8       1       1
       0       8       1       1       0       8       1       1       0       8
       1       1       0       8       1       1       0       8       1       1
       0       8       1       1       0       8       1       1       0       8
       1       1       0       8       1       1       0       8       1       1
       0       8       1       1       0       8       1       1       0       8
       1       1       0       8       1       1       0       8       1       1
       0       8       1       1       0       8       1       1       0       8
       1       1       0       8       1       1       0       8       1       1
       0       8       1       1       0       8       1       1       0       8
       1       1       0       8       1       1       0       8       1       1
       0       8       1       1       0       8       1       1       0       8
       1       1       0       8       1       1       0       8       1       1
       0       8       1       1       0       8       1       1       0       8
       1       1       0       8       1       1       0       8       1       1
       0       8       1       1       0       8       1       1       0       8
       1       1       0       8       1       1       0       8       1       1
       0       8       1       1       0       8       1       1       0       8
       1       1       0       8       1       1       0       8       1       1
       0       8       1       1       0       8       1       1       0       8
       1       1       0       8       1       1       0       8       1       1
       0       8       1       1       0       8       1       1       0       8
       1       1       0       8       1       1       0       8       1       1
       0       8       1       1       0       8       1       1       0       8
       1       1       0       8       1       1       0       8       1       1
       0       8       1       1       0       8       1       1       0       8
       1       1       0       8       1       1       0       8       1       1
       0       8       1       1       0       8       1       1       0       8
       1       1       0       8       1       1       0       8       1       1
       0       8       1       1       0       8       1       1       0       8
       1       1       0       8       1       1       0       8       1       1
       0       8       1       1       0       8       1       1       0       8
       1       1       0       8       1       1       0       8       1       1
       0       8       1       1       0       8       1       1       0       8
       1       1       0       8       1       1       0       8       1       1
       0       8       1       1       0       8       1       1       0       8
       1       1       0       8       1       1       0       8       1       1
       0       8       1       1       0       8       1       1       0       8
       1       1       0       8       1       1       0       8       1       1
       0       8       1       1       0       8       1       1       0       8
       1       1       0       8       1       1       0       8       1       1
       0       8       1       1       0       8       1       1       0       8
       1       1       0       8       1       1       0       8       1       1
       0       8       1       1       0       8       1       1       0       8
       1       1       0       8       1       1       0       8       1       1
       0       8       1       1       0       8       1       1       0       8
       1       1       0       8       1       1       0       8       1       1
       0       8       1       1       0       8       1       1       0       8
       1       1       0       8       1       1       0       8       1       1
       0       8       1       1       0       8       1       1       0       8
       1       1       0       8       1       1       0       8       1       1
       0       8       1       1       0       8       1       1       0       8
       1       1       0       8       1       1       0       8       1       1
       0       8       1       1       0       8       1       1       0       8
       1       1       0       8       1       1       0       8       1       1
       0       8       1       1       0       8       1       1       0       8
       1       1       0       8       1       1       0       8       1       1
       0       8       1       1       0       8       1       1       0       8
       1       1       0       8       1       1       0       8       1       1
       0       8       1       1       0       8       1       1       0       8
       1       1       0       8       1       1       0       8       1       1
       0       8       1       1       0       8       1       1       0       8
       1       1       0       8       1       1       0       8       1       1
       0       8       1       1       0       8       1       1       0       8
       1       1       0       8       1       1       0       8       1       1
       0       8       1       1       0       8       1       1       0       8
       1       1       0       8       1       1       0       8       1       1
       0       8       1       1       0       8       1       1       0       8
       1       1       0       8       1       1       0       8       1       1
       0       8       1       1       0       8       1       1       0       8
       1       1       0       8       1       1       0       8       1       1
       0       8       1       1       0       8       1       1       0       8
       1       1       0       8       1       1       0       8       1       1
       0       8       1       1       0       8       1       1       0       8
       1       1       0       8       1       1       0       8       1       1
       0       8       1       1       0       8       1       1       0       8
       1       1       0       8       1       1       0       8       1       1
       0       8       1       1       0       8       1       1       0       8
       1       1       0       8       1       1       0       8       1       1
       0       8       1       1       0       8       1       1       0       8
       1       1       0       8       1       1       0       8       1       1
       0       8       1       1       0       8       1       1       0       8
       1       1       0       8       1       1       0       8       1       1
       0       8       1       1       0       8       1       1       0       8
       1       1       0       8       1       1       0       8       1       1
       0       8       1       1       0       8       1       1       0       8
       1       1       0       8       1       1       0       8       1       1
       0       8       1       1       0       8       1       1       0       8
       1       1       0       8       1       1       0       8       1       1
       0       8       1       1       0       8       1       1       0       8
       1       1       0       8       1       1       0       8       1       1
       0       8       1       1       0       8       1       1       0       8
       1       1       0       8       1       1       0       8       1       1
       0       8       1       1       0       8       1       1       0       8
       1       1       0       8       1       1       0       8       1       1
       0       8       1       1       0       8       1       1       0       8
       1       1       0       8       1       1       0       8       1       1
       0       8       1       1       0       8       1       1       0       8
       1       1       0       8       1       1       0       8       1       1
       0       8       1       1       0       8       1       1       0       8
       1       1       0       8       1       1       0       8       1       1
       0       8       1       1       0       8       1       1       0       8
       1       1       0       8       1       1       0       8       1       1
       0       8       1       1       0       8       1       1       0       8
       1       1       0       8       1       1       0       8       1       1
       0       8       1       1       0       8       1       1       0       8
       1       1       0       8       1       1       0       8       1       1
       0       8       1       1       0       8       1       1       0       8
       1       1       0       8       1       1       0       8       1       1
       0       8       1       1       0       8       1       1       0       8
       1       1       0       8       1       1       0       8       1       1
       0       8       1       1       0       8       1       1       0       8
       1       1       0       8       1       1       0       8       1       1
       0       8       1       1       0       8       1       1       0       8
       1       1       0       8       1       1       0       8       1       1
       0       8       1       1       0       8       1       1       0       8
       1       1       0       8       1       1       0       8       1       1
       0       8       1       1       0       8       1       1       0       8
       1       1       0       8       1       1       0       8       1       1
       0       8       1       1       0       8       1       1       0       8
       1       1       0       8       1       1       0       8       1       1
       0       8       1       1       0       8       1       1       0       8
       1       1       0       8       1       1       0       8       1       1
       0       8       1       1       0       8       1       1       0       8
       1       1       0       8       1       1       0       8       1       1
       0       8       1       1       0       8       1       1       0       8
       1       1       0       8       1       1       0       8       1       1
       0       8       1       1       0       8       1       1       0       8
       1       1       0       8       1       1       0       8       1       1
       0       8       1       1       0       8       1       1       0       8
       1       1       0       8       1       1       0       8       1       1
       0       8       1       1       0       8       1       1       0       8
       1       1       0       8       1       1       0       8       1       1
       0       8       1       1       0       8       1       1       0       8
       1       1       0       8       1       1       0       8       1       1
       0       8       1       1       0       8       1       1       0       8
       1       1       0       8       1       1       0       8       1       1
       0       8       1       1       0       8       1       1       0       8
       1       1       0       8       1       1       0       8       1       1
       0       8       1       1       0       8       1       1       0       8
       1       1       0       8       1       1       0       8       1       1
       0       8       1       1       0       8       1       1       0       8
       1       1       0       8       1       1       0       8       1       1
       0       8       1       1       0       8       1       1       0       8
       1       1       0       8       1       1       0       8       1       1
       0       8       1       1       0       8       1       1       0       8
       1       1       0       8       1       1       0       8       1       1
       0       8       1       1       0       8       1       1       0       8
       1       1       0       8       1       1       0       8       1       1
       0       8       1       1       0       8       1       1       0       8
       1       1       0       8       1       1       0       8       1       1
       0       8       1       1       0       8       1       1       0       8
       1       1       0       8       1       1       0       8       1       1
       0       8       1       1       0       8       1       1       0       8
       1       1       0       8       1       1       0       8       1       1
       0       8       1       1       0       8       1       1       0       8
       1       1       0       8       1       1       0       8       1       1
       0       8       1       1       0       8       1       1       0       8
       1       1       0       8       1       1       0       8       1       1
       0       8       1       1       0       8       1       1       0       8
       1       1       0       8       1       1       0       8       1       1
       0       8       1       1       0       8       1       1       0       8
       1       1       0       8       1       1       0       8       1       1
       0       8       1       1       0       8       1       1       0       8
       1       1       0       8       1       1       0       8       1       1
       0       8       1       1       0       8       1       1       0       8
       1       1       0       8       1       1       0       8       1       1
       0       8       1       1       0       8       1       1       0       8
       1       1       0       8       1       1       0       8       1       1
       0       8       1       1       0       8       1       1       0       8
       1       1       0       8       1       1       0       8       1       1
       0       8       1       1       0       8       1       1       0       8
       1       1       0       8       1       1       0       8       1       1
       0       8       1       1       0       8       1       1       0       8
       1       1       0       8       1       1       0       8       1       1
       0       8       1       1       0       8       1       1       0       8
       1       1       0       8       1       1       0       8       1       1
       0       8       1       1       0       8       1       1       0       8
       1       1       0       8       1       1       0       8       1       1
       0       8       1       1       0       8       1       1       0       8
       1       1       0       8       1       1       0       8       1       1
       0       8       1       1       0       8       1       1       0       8
       1       1       0       8       1       1       0       8       1       1
       0       8       1       1       0       8       1       1       0       8
       1       1       0       8       1       1       0       8       1       1
       0       8       1       1       0       8       1       1       0       8
       1       1       0       8       1       1       0       8       1       1
       0       8       1       1       0       8       1       1       0       8
       1       1       0       8       1       1       0       8       1       1
       0       8       1       1       0       8       1       1       0       8
       1       1       0       8       1       1       0       8       1       1
       0       8       1       1       0       8       1       1       0       8
       1       1       0       8       1       1       0       8       1       1
       0       8       1       1       0       8       1       1       0       8
       1       1       0       8       1       1       0       8       1       1
       0       8       1       1       0       8       1       1       0       8
       1       1       0       8       1       1       0       8       1       1
       0       8       1       1       0       8       1       1       0       8
       1       1       0       8       1       1       0       8       1       1
       0       8       1       1       0       8       1       1       0       8
       1       1       0       8       1       1       0       8       1       1
       0       8       1       1       0       8       1       1       0       8
       1       1       0       8       1       1       0       8       1       1
       0       8       1       1       0       8       1       1       0       8
       1       1       0       8       1       1       0       8       1       1
       0       8       1       1       0       8       1       1       0       8
       1       1       0       8       1       1       0       8       1       1
       0       8       1       1       0       8       1       1       0       8
       1       1       0       8       1       1       0       8       1       1
       0       8       1       1       0       8       1       1       0       8
       1       1       0       8       1       1       0       8       1       1
       0       8       1       1       0       8       1       1       0       8
       1       1       0       8       1       1       0       8       1       1
       0       8       1       1       0       8       1       1       0       8
       1       1       0       8       1       1       0       8       1       1
       0       8       1       1       0       8       1       1       0       8
       1       1       0       8       1       1       0       8       1       1
       0       8       1       1       0       8       1       1       0       8
       1       1       0       8       1       1       0       8       1       1
       0       8       1       1       0       8       1       1       0       8
       1       1       0       8       1       1       0       8       1       1
       0       8       1       1       0       8       1       1       0       8
       1       1       0       8       1       1       0       8       1       1
       0       8       1       1       0       8       1       1       0       8
       1       1       0       8       1       1       0       8       1       1
       0       8       1       1       0       8       1       1       0       8
       1       1       0       8       1       1       0       8       1       1
       0       8       1       1       0       8       1       1       0       8
       1       1       0       8       1       1       0       8       1       1
       0       8       1       1       0       8       1       1       0       8
       1       1       0       8       1       1       0       8       1       1
       0       8       1       1       0       8       1       1       0       8
       1       1       0       8       1       1       0       8       1       1
       0       8       1       1       0       8       1       1       0       8
       1       1       0       8       1       1       0       8       1       1
       0       8       1       1       0       8       1       1       0       8
       1       1       0       8       1       1       0       8       1       1
       0       8       1       1       0       8       1       1       0       8
       1       1       0       8       1       1       0       8       1       1
       0       8       1       1       0       8       1       1       0       8
       1       1       0       8       1       1       0       8       1       1
       0       8       1       1       0       8       1       1       0       8
       1       1       0       8       1       1       0       8       1       1
       0       8       1       1       0       8       1       1       0       8
       1       1       0       8       1       1       0       8       1       1
       0       8       1       1       0       8       1       1       0       8
       1       1       0       8       1       1       0       8       1       1
       0       8       1       1       0       8       1       1       0       8
       1       1       0       8       1       1       0       8       1       1
       0       8       1       1       0       8       1       1       0       8
       1       1       0       8       1       1       0       8       1       1
       0       8       1       1       0       8       1       1       0       8
       1       1       0       8       1       1       0       8       1       1
       0       8       1       1       0       8       1       1       0       8
       1       1       0       8       1       1       0       8       1       1
       0       8       1       1       0       8       1       1       0       8
       1       1       0       8       1       1       0       8       1       1
       0       8       1       1       0       8       1       1       0       8
       1       1       0       8       1       1       0       8       1       1
       0       8       1       1       0       8       1       1       0       8
       1       1       0       8       1       1       0       8       1       1
       0       8       1       1       0       8       1       1       0       8
       1       1       0       8       1       1       0       8       1       1
       0       8       1       1       0       8       1       1       0       8
       1       1       0       8       1       1       0       8       1       1
       0       8       1       1       0       8       1       1       0       8
       1       1       0       8       1       1       0       8       1       1
       0       8       1       1       0       8       1       1       0       8
       1       1       0       8       1       1       0       8       1       1
       0       8       1       1       0       8       1       1       0       8
       1       1       0       8       1       1       0       8       1       1
       0       8       1       1       0       8       1       1       0       8
       1       1       0       8       1       1       0       8       1       1
       0       8       1       1       0       8       1       1       0       8
       1       1       0       8       1       1       0       8       1       1
       0       8       1       1       0       8       1       1       0       8
       1       1       0       8       1       1       0       8       1       1
       0       8       1       1       0       8       1       1       0       8
       1       1       0       8       1       1       0       8       1       1
       0       8       1       1       0       8       1       1       0       8
       1       1       0       8       1       1       0       8       1       1
       0       8       1       1       0       8       1       1       0       8
       1       1       0       8       1       1       0       8       1       1
       0       8       1       1       0       8       1       1       0       8
       1       1       0       8       1       1       0       8       1       1
       0       8       1       1       0       8       1       1       0       8
       1       1       0       8       1       1       0       8       1       1
       0       8       1       1       0       8       1       1       0       8
       1       1       0       8       1       1       0       8       1       1
       0       8       1       1       0       8       1       1       0       8
       1       1       0       8       1       1       0       8       1       1
       0       8       1       1       0       8       1       1       0       8
       1       1       0       8       1       1       0       8       1       1
       0       8       1       1       0       8       1       1       0       8
       1       1       0       8       1       1       0       8       1       1
       0       8       1       1       0       8       1       1       0       8
       1       1       0       8       1       1       0       8       1       1
       0       8       1       1       0       8       1       1       0       8
       1       1       0       8       1       1       0       8       1       1
       0       8       1       1       0       8       1       1       0       8
       1       1       0       8       1       1       0       8       1       1
       0       8       1       1       0       8       1       1       0       8
       1       1       0       8       1       1       0       8       1       1
       0       8       1       1       0       8       1       1       0       8
       1       1       0       8       1       1       0       8       1       1
       0       8       1       1       0       8       1       1       0       8
       1       1       0       8       1       1       0       8       1       1
       0       8       1       1       0       8       1       1       0       8
       1       1       0       8       1       1       0       8       1       1
       0       8       1       1       0       8       1       1       0       8
       1       1       0       8       1       1       0       8       1       1
       0       8       1       1       0       8       1       1       0       8
       1       1       0       8       1       1       0       8       1       1
       0       8       1       1       0       8       1       1       0       8
       1       1       0       8       1       1       0       8       1       1
       0       8       1       1       0       8       1       1       0       8
       1       1       0       8       1       1       0       8       1       1
       0       8       1       1       0       8       1       1       0       8
       1       1       0       8       1       1       0       8       1       1
       0       8       1       1       0       8       1       1       0       8
       1       1       0       8       1       1       0       8       1       1
       0       8       1       1       0       8       1       1       0       8
       1       1       0       8       1       1       0       8       1       1
       0       8       1       1       0       8       1       1       0       8
       1       1       0       8       1       1       0       8       1       1
       0       8       1       1       0       8       1       1       0       8
       1       1       0       8       1       1       0       8       1       1
       0       8       1       1       0       8       1       1       0       8
       1       1       0       8       1       1       0       8       1       1
       0       8       1       1       0       8       1       1       0       8
       1       1       0       8       1       1       0       8       1       1
       0       8       1       1       0       8       1       1       0       8
       1       1       0       8       1       1       0       8       1       1
       0       8       1       1       0       8       1       1       0       8
       1       1       0       8       1       1       0       8       1       1
       0       8       1       1       0       8       1       1       0       8
       1       1       0       8       1       1       0       8       1       1
       0       8       1       1       0       8       1       1       0       8
       1       1       0       8       1       1       0       8       1       1
       0       8       1       1       0       8       1       1       0       8
       1       1       0       8       1       1       0       8       1       1
       0       8       1       1       0       8       1       1       0       8
       1       1       0       8       1       1       0       8       1       1
       0       8       1       1       0       8       1       1       0       8
       1       1       0       8       1       1       0       8       1       1
       0       8       1       1       0       8       1       1       0       8
       1       1       0       8       1       1       0       8       1       1
       0       8       1       1       0       8       1       1       0       8
       1       1       0       8       1       1       0       8       1       1
       0       8       1       1       0       8       1       1       0       8
       1       1       0       8       1       1       0       8       1       1
       0       8       1       1       0       8       1       1       0       8
       1       1       0       8       1       1       0       8       1       1
       0       8       1       1       0       8       1       1       0       8
       1       1       0       8       1       1       0       8       1       1
       0       8       1       1       0       8       1       1       0       8
       1       1       0       8       1       1       0       8       1       1
       0       8       1       1       0       8       1       1       0       8
       1       1       0       8       1       1       0       8       1       1
       0       8       1       1       0       8       1       1       0       8
       1       1       0       8       1       1       0       8       1       1
       0       8       1       1       0       8       1       1       0       8
       1       1       0       8       1       1       0       8       1       1
       0       8       1       1       0       8       1       1       0       8
       1       1       0       8       1       1       0       8       1       1
       0       8       1       1       0       8       1       1       0       8
       1       1       0       8       1       1       0       8       1       1
       0       8       1       1       0       8       1       1       0       8
       1       1       0       8       1       1       0       8       1       1
       0       8       1       1       0       8       1       1       0       8
       1       1       0       8       1       1       0       8       1       1
       0       8       1       1       0       8       1       1       0       8
       1       1       0       8       1       1       0       8       1       1
       0       8       1       1       0       8       1       1       0       8
       1       1       0       8       1       1       0       8       1       1
       0       8       1       1       0       8       1       1       0       8
       1       1       0       8       1       1       0       8       1       1
       0       8       1       1       0       8       1       1       0       8
       1       1       0       8       1       1       0       8       1       1
       0       8       1       1       0       8       1       1       0       8
       1       1       0       8       1       1       0       8       1       1
       0       8       1       1       0       8       1       1       0       8
       1       1       0       8       1       1       0       8       1       1
       0       8       1       1       0       8       1       1       0       8
       1       1       0       8       1       1       0       8       1       1
       0       8       1       1       0       8       1       1       0       8
       1       1       0       8       1       1       0       8       1       1
       0       8       1       1       0       8       1       1       0       8
       1       1       0       8       1       1       0       8       1       1
       0       8       1       1       0       8       1       1       0       8
       1       1       0       8       1       1       0       8       1       1
       0       8       1       1       0       8       1       1       0       8
       1       1       0       8       1       1       0       8       1       1
       0       8       1       1       0       8       1       1       0       8
       1       1       0       8       1       1       0       8       1       1
       0       8       1       1       0       8       1       1       0       8
       1       1       0       8       1       1       0       8       1       1
       0       8       1       1       0       8       1       1       0       8
       1       1       0       8       1       1       0       8       1       1
       0       8       1       1       0       8       1       1       0       8
       1       1       0       8       1       1       0       8       1       1
       0       8       1       1       0       8       1       1       0       8
       1       1       0       8       1       1       0       8       1       1
       0       8       1       1       0       8       1       1       0       8
       1       1       0       8       1       1       0       8       1       1
       0       8       1       1       0       8       1       1       0       8
       1       1       0       8       1       1       0       8       1       1
       0       8       1       1       0       8       1       1       0       8
       1       1       0       8       1       1       0       8       1       1
       0       8       1       1       0       8       1       1       0       8
       1       1       0       8       1       1       0       8       1       1
       0       8       1       1       0       8       1       1       0       8
       1       1       0       8       1       1       0       8       1       1
       0       8       1       1       0       8       1       1       0       8
       1       1       0       8       1       1       0       8       1       1
       0       8       1       1       0       8       1       1       0       8
       1       1       0       8       1       1       0       8       1       1
       0       8       1       1       0       8       1       1       0       8
       1       1       0       8       1       1       0       8       1       1
       0       8       1       1       0       8       1       1       0       8
       1       1       0       8       1       1       0       8       1       1
       0       8       1       1       0       8       1       1       0       8
       1       1       0       8       1       1       0       8       1       1
       0       8       1       1       0       8       1       1       0       8
       1       1       0       8       1       1       0       8       1       1
       0       8       1       1       0       8       1       1       0       8
       1       1       0       8       1       1       0       8       1       1
       0       8       1       1       0       8       1       1       0       8
       1       1       0       8       1       1       0       8       1       1
       0       8       1       1       0       8       1       1       0       8
       1       1       0       8       1       1       0       8       1       1
       0       8       1       1       0       8       1       1       0       8
       1       1       0       8       1       1       0       8       1       1
       0       8       1       1       0       8       1       1       0       8
       1       1       0       8       1       1       0       8       1       1
       0       8       1       1       0       8       1       1       0       8
       1       1       0       8       1       1       0       8       1       1
       0       8       1       1       0       8       1       1       0       8
       1       1       0       8       1       1       0       8       1       1
       0       8       1       1       0       8       1       1       0       8
       1       1       0       8       1       1       0       8       1       1
       0       8       1       1       0       8       1       1       0       8
       1       1       0       8       1       1       0       8       1       1
       0       8       1       1       0       8       1       1       0       8
       1       1       0       8       1       1       0       8       1       1
       0       8       1       1       0       8       1       1       0       8
       1       1       0       8       1       1       0       8       1       1
       0       8       1       1       0       8       1       1       0       8
       1       1       0       8       1       1       0       8       1       1
       0       8       1       1       0       8       1       1       0       8
       1       1       0       8       1       1       0       8       1       1
       0       8       1       1       0       8       1       1       0       8
       1       1       0       8       1       1       0       8       1       1
       0       8       1       1       0       8       1       1       0       8
       1       1       0       8       1       1       0       8       1       1
       0       8       1       1       0       8       1       1       0       8
       1       1       0       8       1       1       0       8       1       1
       0       8       1       1       0       8       1       1       0       8
       1       1       0       8       1       1       0       8       1       1
       0       8       1       1       0       8       1       1       0       8
       1       1       0       8       1       1       0       8       1       1
       0       8       1       1       0       8       1       1       0       8
       1       1       0       8       1       1       0       8       1       1
       0       8       1       1       0       8       1       1       0       8
       1       1       0       8       1       1       0       8       1       1
       0       8       1       1       0       8       1       1       0       8
       1       1       0       8       1       1       0       8       1       1
       0       8       1       1       0       8       1       1       0       8
       1       1       0       8       1       1       0       8       1       1
       0       8       1       1       0       8       1       1       0       8
       1       1       0       8       1       1       0       8       1       1
       0       8       1       1       0       8       1       1       0       8
       1       1       0       8       1       1       0       8       1       1
       0       8       1       1       0       8       1       1       0       8
       1       1       0       8       1       1       0       8       1       1
       0       8       1       1       0       8       1       1       0       8
       1       1       0       8       1       1       0       8       1       1
       0       8       1       1       0       8       1       1       0       8
       1       1       0       8       1       1       0       8       1       1
       0       8       1       1       0       8       1       1       0       8
       1       1       0       8       1       1       0       8       1       1
       0       8       1       1       0       8       1       1       0       8
       1       1       0       8       1       1       0       8       1       1
       0       8       1       1       0       8       1       1       0       8
       1       1       0       8       1       1       0       8       1       1
       0       8       1       1       0       8       1       1       0       8
       1       1       0       8       1       1       0       8       1       1
       0       8       1       1       0       8       1       1       0       8
       1       1       0       8       1       1       0       8       1       1
       0       8       1       1       0       8       1       1       0       8
       1       1       0       8       1       1       0       8       1       1
       0       8       1       1       0       8       1       1       0       8
       1       1       0       8       1       1       0       8       1       1
       0       8       1       1       0       8       1       1       0       8
       1       1       0       8       1       1       0       8       1       1
       0       8       1       1       0       8       1       1       0       8
       1       1       0       8       1       1       0       8       1       1
       0       8       1       1       0       8       1       1       0       8
       1       1       0       8       1       1       0       8       1       1
       0       8       1       1       0       8       1       1       0       8
       1       1       0       8       1       1       0       8       1       1
       0       8       1       1       0       8       1       1       0       8
       1       1       0       8       1       1       0       8       1       1
       0       8       1       1       0       8       1       1       0       8
       1       1       0       8       1       1       0       8       1       1
       0       8       1       1       0       8       1       1       0       8
       1       1       0       8       1       1       0       8       1       1
       0       8       1       1       0       8       1       1       0       8
       1       1       0       8       1       1       0       8       1       1
       0       8       1       1       0       8       1       1       0       8
       1       1       0       8       1       1       0       8       1       1
       0       8       1       1       0       8       1       1       0       8
       1       1       0       8       1       1       0       8       1       1
       0       8       1       1       0       8       1       1       0       8
       1       1       0       8       1       1       0       8       1       1
       0       8       1       1       0       8       1       1       0       8
       1       1       0       8       1       1       0       8       1       1
       0       8       1       1       0       8       1       1       0       8
       1       1       0       8       1       1       0       8       1       1
       0       8       1       1       0       8       1       1       0       8
       1       1       0       8       1       1       0       8       1       1
       0       8       1       1       0       8       1       1       0       8
       1       1       0       8       1       1       0       8       1       1
       0       8       1       1       0       8       1       1       0       8
       1       1       0       8       1       1       0       8       1       1
       0       8       1       1       0       8       1       1       0       8
       1       1       0       8       1       1       0       8       1       1
       0       8       1       1       0       8       1       1       0       8
       1       1       0       8       1       1       0       8       1       1
       0       8       1       1       0       8       1       1       0       8
       1       1       0       8       1       1       0       8       1       1
       0       8       1       1       0       8       1       1       0       8
       1       1       0       8       1       1       0       8       1       1
       0       8       1       1       0       8       1       1       0       8
       1       1       0       8       1       1       0       8       1       1
       0       8       1       1       0       8       1       1       0       8
       1       1       0       8       1       1       0       8       1       1
       0       8       1       1       0       8       1       1       0       8
       1       1       0       8       1       1       0       8       1       1
       0       8       1       1       0       8       1       1       0       8
       1       1       0       8       1       1       0       8       1       1
       0       8       1       1       0       8       1       1       0       8
       1       1       0       8       1       1       0       8       1       1
       0       8       1       1       0       8       1       1       0       8
       1       1       0       8       1       1       0       8       1       1
       0       8       1       1       0       8       1       1       0       8
       1       1       0       8       1       1       0       8       1       1
       0       8       1       1       0       8       1       1       0       8
       1       1       0       8       1       1       0       8       1       1
       0       8       1       1       0       8       1       1       0       8
       1       1       0       8       1       1       0       8       1       1
       0       8       1       1       0       8       1       1       0       8
       1       1       0       8       1       1       0       8       1       1
       0       8       1       1       0       8       1       1       0       8
       1       1       0       8       1       1       0       8       1       1
       0       8       1       1       0       8       1       1       0       8
       1       1       0       8       1       1       0       8       1       1
       0       8       1       1       0       8       1       1       0       8
       1       1       0       8       1       1       0       8       1       1
       0       8       1       1       0       8       1       1       0       8
       1       1       0       8       1       1       0       8       1       1
       0       8       1       1       0       8       1       1       0       8
       1       1       0       8       1       1       0       8       1       1
       0       8       1       1       0       8       1       1       0       8
       1       1       0       8       1       1       0       8       1       1
       0       8       1       1       0       8       1       1       0       8
       1       1       0       8       1       1       0       8       1       1
       0       8       1       1       0       8       1       1       0       8
       1       1       0       8       1       1       0       8       1       1
       0       8       1       1       0       8       1       1       0       8
       1       1       0       8       1       1       0       8       1       1
       0       8       1       1       0       8       1       1       0       8
       1       1       0       8       1       1       0       8       1       1
       0       8       1       1       0       8       1       1       0       8
       1       1       0       8       1       1       0       8       1       1
       0       8       1       1       0       8       1       1       0       8
       1       1       0       8       1       1       0       8       1       1
       0       8       1       1       0       8       1       1       0       8
       1       1       0       8       1       1       0       8       1       1
       0       8       1       1       0       8       1       1       0       8
       1       1       0       8       1       1       0       8       1       1
       0       8       1       1       0       8       1       1       0       8
       1       1       0       8       1       1       0       8       1       1
       0       8       1       1       0       8       1       1       0       8
       1       1       0       8       1       1       0       8       1       1
       0       8       1       1       0       8       1       1       0       8
       1       1       0       8       1       1       0       8       1       1
       0       8       1       1       0       8       1       1       0       8
       1       1       0       8       1       1       0       8       1       1
       0       8       1       1       0       8       1       1       0       8
       1       1       0       8       1       1       0       8       1       1
       0       8       1       1       0       8       1       1       0       8
       1       1       0       8       1       1       0       8       1       1
       0       8       1       1       0       8       1       1       0       8
       1       1       0       8       1       1       0       8       1       1
       0       8       1       1       0       8       1       1       0       8
       1       1       0       8       1       1       0       8       1       1
       0       8       1       1       0       8       1       1       0       8
       1       1       0       8       1       1       0       8       1       1
       0       8       1       1       0       8       1       1       0       8
       1       1       0       8       1       1       0       8       1       1
       0       8       1       1       0       8       1       1       0       8
       1       1       0       8       1       1       0       8       1       1
       0       8       1       1       0       8       1       1       0       8
       1       1       0       8       1       1       0       8       1       1
       0       8       1       1       0       8       1       1       0       8
       1       1       0       8       1       1       0       8       1       1
       0       8       1       1       0       8       1       1       0       8
       1       1       0       8       1       1       0       8       1       1
       0       8       1       1       0       8       1       1       0       8
       1       1       0       8       1       1       0       8       1       1
       0       8       1       1       0       8       1       1       0       8
       1       1       0       8       1       1       0       8       1       1
       0       8       1       1       0       8       1       1       0       8
       1       1       0       8       1       1       0       8       1       1
       0       8       1       1       0       8       1       1       0       8
       1       1       0       8       1       1       0       8       1       1
       0       8       1       1       0       8       1       1       0       8
       1       1       0       8       1       1       0       8       1       1
       0       8       1       1       0       8       1       1       0       8
       1       1       0       8       1       1       0       8       1       1
       0       8       1       1       0       8       1       1       0       8
       1       1       0       8       1       1       0       8       1       1
       0       8       1       1       0       8       1       1       0       8
       1       1       0       8       1       1       0       8       1       1
       0       8       1       1       0       8       1       1       0       8
       1       1       0       8       1       1       0       8       1       1
       0       8       1       1       0       8       1       1       0       8
       1       1       0       8       1       1       0       8       1       1
       0       8       1       1       0       8       1       1       0       8
       1       1       0       8       1       1       0       8       1       1
       0       8       1       1       0       8       1       1       0       8
       1       1       0       8       1       1       0       8       1       1
       0       8       1       1       0       8       1       1       0       8
       1       1       0       8       1       1       0       8       1       1
       0       8       1       1       0       8       1       1       0       8
       1       1       0       8       1       1       0       8       1       1
       0       8       1       1       0       8       1       1       0       8
       1       1       0       8       1       1       0       8       1       1
       0       8       1       1       0       8       1       1       0       8
       1       1       0       8       1       1       0       8       1       1
       0       8       1       1       0       8       1       1       0       8
       1       1       0       8       1       1       0       8       1       1
       0       8       1       1       0       8       1       1       0       8
       1       1       0       8       1       1       0       8       1       1
       0       8       1       1       0       8       1       1       0       8
       1       1       0       8       1       1       0       8       1       1
       0       8       1       1       0       8       1       1       0       8
       1       1       0       8       1       1       0       8       1       1
       0       8       1       1       0       8       1       1       0       8
       1       1       0       8       1       1       0       8       1       1
       0       8       1       1       0       8       1       1       0       8
       1       1       0       8       1       1       0       8       1       1
       0       8       1       1       0       8       1       1       0       8
       1       1       0       8       1       1       0       8       1       1
       0       8       1       1       0       8       1       1       0       8
       1       1       0       8       1       1       0       8       1       1
       0       8       1       1       0       8       1       1       0       8
       1       1       0       8       1       1       0       8       1       1
       0       8       1       1       0       8       1       1       0       8
       1       1       0       8       1       1       0       8       1       1
       0       8       1       1       0       8       1       1       0       8
       1       1       0       8       1       1       0       8       1       1
       0       8       1       1       0       8       1       1       0       8
       1       1       0       8       1       1       0       8       1       1
       0       8       1       1       0       8       1       1       0       8
       1       1       0       8       1       1       0       8       1       1
       0       8       1       1       0       8       1       1       0       8
       1       1       0       8       1       1       0       8       1       1
       0       8       1       1       0       8       1       1       0       8
       1       1       0       8       1       1       0       8       1       1
       0       8       1       1       0       8       1       1       0       8
       1       1       0       8       1       1       0       8       1       1
       0       8       1       1       0       8       1       1       0       8
       1       1       0       8       1       1       0       8       1       1
       0       8       1       1       0       8       1       1       0       8
       1       1       0       8       1       1       0       8       1       1
       0       8       1       1       0       8       1       1       0       8
       1       1       0       8       1       1       0       8       1       1
       0       8       1       1       0       8       1       1       0       8
       1       1       0       8       1       1       0       8       1       1
       0       8       1       1       0       8       1       1       0       8
       1       1       0       8       1       1       0       8       1       1
       0       8       1       1       0       8       1       1       0       8
       1       1       0       8       1       1       0       8       1       1
       0       8       1       1       0       8       1       1       0       8
       1       1       0       8       1       1       0       8       1       1
       0       8       1       1       0       8       1       1       0       8
       1       1       0       8       1       1       0       8       1       1
       0       8       1       1       0       8       1       1       0       8
       1       1       0       8       1       1       0       8       1       1
       0       8       1       1       0       8       1       1       0       8
       1       1       0       8       1       1       0       8       1       1
       0       8       1       1       0       8       1       1       0       8
       1       1       0       8       1       1       0       8       1       1
       0       8       1       1       0       8       1       1       0       8
       1       1       0       8       1       1       0       8       1       1
       0       8       1       1       0       8       1       1       0       8
       1       1       0       8       1       1       0       8       1       1
       0       8       1       1       0       8       1       1       0       8
       1       1       0       8       1       1       0       8       1       1
       0       8       1       1       0       8       1       1       0       8
       1       1       0       8       1       1       0       8       1       1
       0       8       1       1       0       8       1       1       0       8
       1       1       0       8       1       1       0       8       1       1
       0       8       1       1       0       8       1       1       0       8
       1       1       0       8       1       1       0       8       1       1
       0       8       1       1       0       8       1       1       0       8
       1       1       0       8       1       1       0       8       1       1
       0       8       1       1       0       8       1       1       0       8
       1       1       0       8       1       1       0       8       1       1
       0       8       1       1       0       8       1       1       0       8
       1       1       0       8       1       1       0       8       1       1
       0       8       1       1       0       8       1       1       0       8
       1       1       0       8       1       1       0       8       1       1
       0       8       1       1       0       8       1       1       0       8
       1       1       0       8       1       1       0       8       1       1
       0       8       1       1       0       8       1       1       0       8
       1       1       0       8       1       1       0       8       1       1
       0       8       1       1       0       8       1       1       0       8
       1       1       0       8       1       1       0       8       1       1
       0       8       1       1       0       8       1       1       0       8
       1       1       0       8       1       1       0       8       1       1
       0       8       1       1       0       8       1       1       0       8
       1       1       0       8       1       1       0       8       1       1
       0       8       1       1       0       8       1       1       0       8
       1       1       0       8       1       1       0       8       1       1
       0       8       1       1       0       8       1       1       0       8
       1       1       0       8       1       1       0       8       1       1
       0       8       1       1       0       8       1       1       0       8
       1       1       0       8       1       1       0       8       1       1
       0       8       1       1       0       8       1       1       0       8
       1       1       0       8       1       1       0       8       1       1
       0       8       1       1       0       8       1       1       0       8
       1       1       0       8       1       1       0       8       1       1
       0       8       1       1       0       8       1       1       0       8
       1       1       0       8       1       1       0       8       1       1
       0       8       1       1       0       8       1       1       0       8
       1       1       0       8       1       1       0       8       1       1
       0       8       1       1       0       8       1       1       0       8
       1       1       0       8       1       1       0       8       1       1
       0       8       1       1       0       8       1       1       0       8
       1       1       0       8       1       1       0       8       1       1
       0       8       1       1       0       8       1       1       0       8
       1       1       0       8       1       1       0       8       1       1
       0       8       1       1       0       8       1       1       0       8
       1       1       0       8       1       1       0       8       1       1
       0       8       1       1       0       8       1       1       0       8
       1       1       0       8       1       1       0       8       1       1
       0       8       1       1       0       8       1       1       0       8
       1       1       0       8       1       1       0       8       1       1
       0       8       1       1       0       8       1       1       0       8
       1       1       0       8       1       1       0       8       1       1
       0       8       1       1       0       8       1       1       0       8
       1       1       0       8       1       1       0       8       1       1
       0       8       1       1       0       8       1       1       0       8
       1       1       0       8       1       1       0       8       1       1
       0       8       1       1       0       8       1       1       0       8
       1       1       0       8       1       1       0       8       1       1
       0       8       1       1       0       8       1       1       0       8
       1       1       0       8       1       1       0       8       1       1
       0       8       1       1       0       8       1       1       0       8
       1       1       0       8       1       1       0       8       1       1
       0       8       1       1       0       8       1       1       0       8
       1       1       0       8       1       1       0       8       1       1
       0       8       1       1       0       8       1       1       0       8
       1       1       0       8       1       1       0       8       1       1
       0       8       1       1       0       8       1       1       0       8
       1       1       0       8       1       1       0       8       1       1
       0       8       1       1       0       8       1       1       0       8
       1       1       0       8       1       1       0       8       1       1
       0       8       1       1       0       8       1       1       0       8
       1       1       0       8       1       1       0       8       1       1
       0       8       1       1       0       8       1       1       0       8
       1       1       0       8       1       1       0       8       1       1
       0       8       1       1       0       8       1       1       0       8
       1       1       0       8       1       1       0       8       1       1
       0       8       1       1       0       8       1       1       0       8
       1       1       0       8       1       1       0       8       1       1
       0       8       1       1       0       8       1       1       0       8
       1       1       0       8       1       1       0       8       1       1
       0       8       1       1       0       8       1       1       0       8
       1       1       0       8       1       1       0       8       1       1
       0       8       1       1       0       8       1       1       0       8
       1       1       0       8       1       1       0       8       1       1
       0       8       1       1       0       8       1       1       0       8
       1       1       0       8       1       1       0       8       1       1
       0       8       1       1       0       8       1       1       0       8
       1       1       0       8       1       1       0       8       1       1
       0       8       1       1       0       8       1       1       0       8
       1       1       0       8       1       1       0       8       1       1
       0       8       1       1       0       8       1       1       0       8
       1       1       0       8       1       1       0       8       1       1
       0       8       1       1       0       8       1       1       0       8
       1       1       0       8       1       1       0       8       1       1
       0       8       1       1       0       8       1       1       0       8
       1       1       0       8       1       1       0       8       1       1
       0       8       1       1       0       8       1       1       0       8
       1       1       0       8       1       1       0       8       1       1
       0       8       1       1       0       8       1       1       0       8
       1       1       0       8       1       1       0       8       1       1
       0       8       1       1       0       8       1       1       0       8
       1       1       0       8       1       1       0       8       1       1
       0       8       1       1       0       8       1       1       0       8
       1       1       0       8       1       1       0       8       1       1
       0       8       1       1       0       8       1       1       0       8
       1       1       0       8       1       1       0       8       1       1
       0       8       1       1       0       8       1       1       0       8
       1       1       0       8       1       1       0       8       1       1
       0       8       1       1       0       8       1       1       0       8
       1       1       0       8       1       1       0       8       1       1
       0       8       1       1       0       8       1       1       0       8
       1       1       0       8       1       1       0       8       1       1
       0       8       1       1       0       8       1       1       0       8
       1       1       0       8       1       1       0       8       1       1
       0       8       1       1       0       8       1       1       0       8
       1       1       0       8       1       1       0       8       1       1
       0       8       1       1       0       8       1       1       0       8
       1       1       0       8       1       1       0       8       1       1
       0       8       1       1       0       8       1       1       0       8
       1       1       0       8       1       1       0       8       1       1
       0       8       1       1       0       8       1       1       0       8
       1       1       0       8       1       1       0       8       1       1
       0       8       1       1       0       8       1       1       0       8
       1       1       0       8       1       1       0       8       1       1
       0       8       1       1       0       8       1       1       0       8
       1       1       0       8       1       1       0       8       1       1
       0       8       1       1       0       8       1       1       0       8
       1       1       0       8       1       1       0       8       1       1
       0       8       1       1       0       8       1       1       0       8
       1       1       0       8       1       1       0       8       1       1
       0       8       1       1       0       8       1       1       0       8
       1       1       0       8       1       1       0       8       1       1
       0       8       1       1       0       8       1       1       0       8
       1       1       0       8       1       1       0       8       1       1
       0       8       1       1       0       8       1       1       0       8
       1       1       0       8       1       1       0       8       1       1
       0       8       1       1       0       8       1       1       0       8
       1       1       0       8       1       1       0       8       1       1
       0       8       1       1       0       8       1       1       0       8
       1       1       0       8       1       1       0       8       1       1
       0       8       1       1       0       8       1       1       0       8
       1       1       0       8       1       1       0       8       1       1
       0       8       1       1       0       8       1       1       0       8
       1       1       0       8       1       1       0       8       1       1
       0       8       1       1       0       8       1       1       0       8
       1       1       0       8       1       1       0       8       1       1
       0       8       1       1       0       8       1       1       0       8
       1       1       0       8       1       1       0       8       1       1
       0       8       1       1       0       8       1       1       0       8
       1       1       0       8       1       1       0       8       1       1
       0       8       1       1       0       8       1       1       0       8
       1       1       0       8       1       1       0       8       1       1
       0       8       1       1       0       8       1       1       0       8
       1       1       0       8       1       1       0       8       1       1
       0       8       1       1       0       8       1       1       0       8
       1       1       0       8       1       1       0       8       1       1
       0       8       1       1       0       8       1       1       0       8
       1       1       0       8       1       1       0       8       1       1
       0       8       1       1       0       8       1       1       0       8
       1       1       0       8       1       1       0       8       1       1
       0       8       1       1       0       8       1       1       0       8
       1       1       0       8       1       1       0       8       1       1
       0       8       1       1       0       8       1       1       0       8
       1       1       0       8       1       1       0       8       1       1
       0       8       1       1       0       8       1       1       0       8
       1       1       0       8       1       1       0       8       1       1
       0       8       1       1       0       8       1       1       0       8
       1       1       0       8       1       1       0       8       1       1
       0       8       1       1       0       8       1       1       0       8
       1       1       0       8       1       1       0       8       1       1
       0       8       1       1       0       8       1       1       0       8
       1       1       0       8       1       1       0       8       1       1
       0       8       1       1       0       8       1       1       0       8
       1       1       0       8       1       1       0       8       1       1
       0       8       1       1       0       8       1       1       0       8
       1       1       0       8       1       1       0       8       1       1
       0       8       1       1       0       8       1       1       0       8
       1       1       0       8       1       1       0       8       1       1
       0       8       1       1       0       8       1       1       0       8
       1       1       0       8       1       1       0       8       1       1
       0       8       1       1       0       8       1       1       0       8
       1       1       0       8       1       1       0       8       1       1
       0       8       1       1       0       8       1       1       0       8
       1       1       0       8       1       1       0       8       1       1
       0       8       1       1       0       8       1       1       0       8
       1       1       0       8       1       1       0       8       1       1
       0       8       1       1       0       8       1       1       0       8
       1       1       0       8       1       1       0       8       1       1
       0       8       1       1       0       8       1       1       0       8
       1       1       0       8       1       1       0       8       1       1
       0       8       1       1       0       8       1       1       0       8
       1       1       0       8       1       1       0       8       1       1
       0       8       1       1       0       8       1       1       0       8
       1       1       0       8       1       1       0       8       1       1
       0       8       1       1       0       8       1       1       0       8
       1       1       0       8       1       1       0       8       1       1
       0       8       1       1       0       8       1       1       0       8
       1       1       0       8       1       1       0       8       1       1
       0       8       1       1       0       8       1       1       0       8
       1       1       0       8       1       1       0       8       1       1
       0       8       1       1       0       8       1       1       0       8
       1       1       0       8       1       1       0       8       1       1
       0       8       1       1       0       8       1       1       0       8
       1       1       0       8       1       1       0       8       1       1
       0       8       1       1       0       8       1       1       0       8
       1       1       0       8       1       1       0       8       1       1
       0       8       1       1       0       8       1       1       0       8
       1       1       0       8       1       1       0       8       1       1
       0       8       1       1       0       8       1       1       0       8
       1       1       0       8       1       1       0       8       1       1
       0       8       1       1       0       8       1       1       0       8
       1       1       0       8       1       1       0       8       1       1
       0       8       1       1       0       8       1       1       0       8
       1       1       0       8       1       1       0       8       1       1
       0       8       1       1       0       8       1       1       0       8
       1       1       0       8       1       1       0       8       1       1
       0       8       1       1       0       8       1       1       0       8
       1       1       0       8       1       1       0       8       1       1
       0       8       1       1       0       8       1       1       0       8
       1       1       0       8       1       1       0       8       1       1
       0       8       1       1       0       8       1       1       0       8
       1       1       0       8       1       1       0       8       1       1
       0       8       1       1       0       8       1       1       0       8
       1       1       0       8       1       1       0       8       1       1
       0       8       1       1       0       8       1       1       0       8
       1       1       0       8       1       1       0       8       1       1
       0       8       1       1       0       8       1       1       0       8
       1       1       0       8       1       1       0       8       1       1
       0       8       1       1       0       8       1       1       0       8
       1       1       0       8       1       1       0       8       1       1
       0       8       1       1       0       8       1       1       0       8
       1       1       0       8       1       1       0       8       1       1
       0       8       1       1       0       8       1       1       0       8
       1       1       0       8       1       1       0       8       1       1
       0       8       1       1       0       8       1       1       0       8
       1       1       0       8       1       1       0       8       1       1
       0       8       1       1       0       8       1       1       0       8
       1       1       0       8       1       1       0       8       1       1
       0       8       1       1       0       8       1       1       0       8
       1       1       0       8       1       1       0       8       1       1
       0       8       1       1       0       8       1       1       0       8
       1       1       0       8       1       1       0       8       1       1
       0       8       1       1       0       8       1       1       0       8
       1       1       0       8       1       1       0       8       1       1
       0       8       1       1       0       8       1       1       0       8
       1       1       0       8       1       1       0       8       1       1
       0       8       1       1       0       8       1       1       0       8
       1       1       0       8       1       1       0       8       1       1
       0       8       1       1       0       8       1       1       0       8
       1       1       0       8       1       1       0       8       1       1
       0       8       1       1       0       8       1       1       0       8
       1       1       0       8       1       1       0       8       1       1
       0       8       1       1       0       8       1       1       0       8
       1       1       0       8       1       1       0       8       1       1
       0       8       1       1       0       8       1       1       0       8
       1       1       0       8       1       1       0       8       1       1
       0       8       1       1       0       8       1       1       0       8
       1       1       0       8       1       1       0       8       1       1
       0       8       1       1       0       8       1       1       0       8
       1       1       0       8       1       1       0       8       1       1
       0       8       1       1       0       8       1       1       0       8
       1       1       0       8       1       1       0       8       1       1
       0       8       1       1       0       8       1       1       0       8
       1       1       0       8       1       1       0       8       1       1
       0       8       1       1       0       8       1       1       0       8
       1       1       0       8       1       1       0       8       1       1
       0       8       1       1       0       8       1       1       0       8
       1       1       0       8       1       1       0       8       1       1
       0       8       1       1       0       8       1       1       0       8
       1       1       0       8       1       1       0       8       1       1
       0       8       1       1       0       8       1       1       0       8
       1       1       0       8       1       1       0       8       1       1
       0       8       1       1       0       8       1       1       0       8
       1       1       0       8       1       1       0       8       1       1
       0       8       1       1       0       8       1       1       0       8
       1       1       0       8       1       1       0       8       1       1
       0       8       1       1       0       8       1       1       0       8
       1       1       0       8       1       1       0       8       1       1
       0       8       1       1       0       8       1       1       0       8
       1       1       0       8       1       1       0       8       1       1
       0       8       1       1       0       8       1       1       0       8
       1       1       0       8       1       1       0       8       1       1
       0       8       1       1       0       8       1       1       0       8
       1       1       0       8       1       1       0       8       1       1
       0       8       1       1       0       8       1       1       0       8
       1       1       0       8       1       1       0       8       1       1
       0       8       1       1       0       8       1       1       0       8
       1       1       0       8       1       1       0       8       1       1
       0       8       1       1       0       8       1       1       0       8
       1       1       0       8       1       1       0       8       1       1
       0       8       1       1       0       8       1       1       0       8
       1       1       0       8       1       1       0       8       1       1
       0       8       1       1       0       8       1       1       0       8
       1       1       0       8       1       1       0       8       1       1
       0       8       1       1       0       8       1       1       0       8
       1       1       0       8       1       1       0       8       1       1
       0       8       1       1       0       8       1       1       0       8
       1       1       0       8       1       1       0       8       1       1
       0       8       1       1       0       8       1       1       0       8
       1       1       0       8       1       1       0       8       1       1
       0       8       1       1       0       8       1       1       0       8
       1       1       0       8       1       1       0       8       1       1
       0       8       1       1       0       8       1       1       0       8
       1       1       0       8       1       1       0       8       1       1
       0       8       1       1       0       8       1       1       0       8
       1       1       0       8       1       1       0       8       1       1
       0       8       1       1       0       8       1       1       0       8
       1       1       0       8       1       1       0       8       1       1
       0       8       1       1       0       8       1       1       0       8
       1       1       0       8       1       1       0       8       1       1
       0       8       1       1       0       8       1       1       0       8
       1       1       0       8       1       1       0       8       1       1
       0       8       1       1       0       8       1       1       0       8
       1       1       0       8       1       1       0       8       1       1
       0       8       1       1       0       8       1       1       0       8
       1       1       0       8       1       1       0       8       1       1
       0       8       1       1       0       8       1       1       0       8
       1       1       0       8       1       1       0       8       1       1
       0       8       1       1       0       8       1       1       0       8
       1       1       0       8       1       1       0       8       1       1
       0       8       1       1       0       8       1       1       0       8
       1       1       0       8       1       1       0       8       1       1
       0       8       1       1       0       8       1       1       0       8
       1       1       0       8       1       1       0       8       1       1
       0       8       1       1       0       8       1       1       0       8
       1       1       0       8       1       1       0       8       1       1
       0       8       1       1       0       8       1       1       0       8
       1       1       0       8       1       1       0       8       1       1
       0       8       1       1       0       8       1       1       0       8
       1       1       0       8       1       1       0       8       1       1
       0       8       1       1       0       8       1       1       0       8
       1       1       0       8       1       1       0       8       1       1
       0       8       1       1       0       8       1       1       0       8
       1       1       0       8       1       1       0       8       1       1
       0       8       1       1       0       8       1       1       0       8
       1       1       0       8       1       1       0       8       1       1
       0       8       1       1       0       8       1       1       0       8
       1       1       0       8       1       1       0       8       1       1
       0       8       1       1       0       8       1       1       0       8
       1       1       0       8       1       1       0       8       1       1
       0       8       1       1       0       8       1       1       0       8
       1       1       0       8       1       1       0       8       1       1
       0       8       1       1       0       8       1       1       0       8
       1       1       0       8       1       1       0       8       1       1
       0       8       1       1       0       8       1       1       0       8
       1       1       0       8       1       1       0       8       1       1
       0       8       1       1       0       8       1       1       0       8
       1       1       0       8       1       1       0       8       1       1
       0       8       1       1       0       8       1       1       0       8
       1       1       0       8       1       1       0       8       1       1
       0       8       1       1       0       8       1       1       0       8
       1       1       0       8       1       1       0       8       1       1
       0       8       1       1       0       8       1       1       0       8
       1       1       0       8       1       1       0       8       1       1
       0       8       1       1       0       8       1       1       0
%FLAG MASS                                                                      
%FORMAT(5E16.8)                                                                 
  1.00800000E+00  1.60000000E+01  1.20100000E+01  1.00800000E+00  1.00800000E+00
  1.20100000E+01  1.00800000E+00  1.60000000E+01  1.20100000E+01  1.00800000E+00
  1.40100000E+01  1.20100000E+01  1.00800000E+00  1.40100000E+01  1.20100000E+01
  1.20100000E+01  1.60000000E+01  1.40100000E+01  1.00800000E+00  1.20100000E+01
  1.40100000E+01  1.00800000E+00  1.00800000E+00  1.40100000E+01  1.20100000E+01
  1.20100000E+01  1.00800000E+00  1.20100000E+01  1.00800000E+00  1.60000000E+01
  1.00800000E+00  1.60000000E+01  3.09700000E+01  1.60000000E+01  1.60000000E+01
  1.60000000E+01  1.20100000E+01  1.00800000E+00  1.00800000E+00  1.20100000E+01
  1.00800000E+00  1.60000000E+01  1.20100000E+01  1.00800000E+00  1.40100000E+01
  1.20100000E+01  1.00800000E+00  1.40100000E+01  1.20100000E+01  1.20100000E+01
  1.60000000E+01  1.40100000E+01  1.00800000E+00  1.20100000E+01  1.40100000E+01
  1.00800000E+00  1.00800000E+00  1.40100000E+01  1.20100000E+01  1.20100000E+01
  1.00800000E+00  1.20100000E+01  1.00800000E+00  1.60000000E+01  1.00800000E+00
  1.60000000E+01  3.09700000E+01  1.60000000E+01  1.60000000E+01  1.60000000E+01
  1.20100000E+01  1.00800000E+00  1.00800000E+00  1.20100000E+01  1.00800000E+00
  1.60000000E+01  1.20100000E+01  1.00800000E+00  1.40100000E+01  1.20100000E+01
  1.00800000E+00  1.40100000E+01  1.20100000E+01  1.20100000E+01  1.40100000E+01
  1.00800000E+00  1.00800000E+00  1.40100000E+01  1.20100000E+01  1.00800000E+00
  1.40100000E+01  1.20100000E+01  1.20100000E+01  1.00800000E+00  1.20100000E+01
  1.00800000E+00  1.60000000E+01  1.00800000E+00  1.60000000E+01  3.09700000E+01
  1.60000000E+01  1.60000000E+01  1.60000000E+01  1.20100000E+01  1.00800000E+00
  1.00800000E+00  1.20100000E+01  1.00800000E+00  1.60000000E+01  1.20100000E+01
  1.00800000E+00  1.40100000E+01  1.20100000E+01  1.00800000E+00  1.20100000E+01
  1.00800000E+00  1.20100000E+01  1.60000000E+01  1.40100000E+01  1.00800000E+00
  1.20100000E+01  1.60000000E+01  1.20100000E+01  1.00800000E+00  1.20100000E+01
  1.00800000E+00  1.60000000E+01  1.00800000E+00  1.60000000E+01  3.09700000E+01
  1.60000000E+01  1.60000000E+01  1.60000000E+01  1.20100000E+01  1.00800000E+00
  1.00800000E+00  1.20100000E+01  1.00800000E+00  1.60000000E+01  1.20100000E+01
  1.00800000E+00  1.40100000E+01  1.20100000E+01  1.00800000E+00  1.20100000E+01
  1.00800000E+00  1.20100000E+01  1.40100000E+01  1.00800000E+00  1.00800000E+00
  1.40100000E+01  1.20100000E+01  1.60000000E+01  1.20100000E+01  1.00800000E+00
  1.20100000E+01  1.00800000E+00  1.60000000E+01  1.00800000E+00  1.60000000E+01
  3.09700000E+01  1.60000000E+01  1.60000000E+01  1.60000000E+01  1.20100000E+01
  1.00800000E+00  1.00800000E+00  1.20100000E+01  1.00800000E+00  1.60000000E+01
  1.20100000E+01  1.00800000E+00  1.40100000E+01  1.20100000E+01  1.00800000E+00
  1.40100000E+01  1.20100000E+01  1.20100000E+01  1.40100000E+01  1.00800000E+00
  1.00800000E+00  1.40100000E+01  1.20100000E+01  1.00800000E+00  1.40100000E+01
  1.20100000E+01  1.20100000E+01  1.00800000E+00  1.20100000E+01  1.00800000E+00
  1.60000000E+01  1.00800000E+00  1.60000000E+01  3.09700000E+01  1.60000000E+01
  1.60000000E+01  1.60000000E+01  1.20100000E+01  1.00800000E+00  1.00800000E+00
  1.20100000E+01  1.00800000E+00  1.60000000E+01  1.20100000E+01  1.00800000E+00
  1.40100000E+01  1.20100000E+01  1.00800000E+00  1.20100000E+01  1.00800000E+00
  1.20100000E+01  1.60000000E+01  1.40100000E+01  1.00800000E+00  1.20100000E+01
  1.60000000E+01  1.20100000E+01  1.00800000E+00  1.20100000E+01  1.00800000E+00
  1.60000000E+01  1.00800000E+00  1.60000000E+01  3.09700000E+01  1.60000000E+01
  1.60000000E+01  1.60000000E+01  1.20100000E+01  1.00800000E+00  1.00800000E+00
  1.20100000E+01  1.00800000E+00  1.60000000E+01  1.20100000E+01  1.00800000E+00
  1.40100000E+01  1.20100000E+01  1.00800000E+00  1.40100000E+01  1.20100000E+01
  1.20100000E+01  1.40100000E+01  1.00800000E+00  1.00800000E+00  1.40100000E+01
  1.20100000E+01  1.00800000E+00  1.40100000E+01  1.20100000E+01  1.20100000E+01
  1.00800000E+00  1.20100000E+01  1.00800000E+00  1.60000000E+01  1.00800000E+00
  1.60000000E+01  3.09700000E+01  1.60000000E+01  1.60000000E+01  1.60000000E+01
  1.20100000E+01  1.00800000E+00  1.00800000E+00  1.20100000E+01  1.00800000E+00
  1.60000000E+01  1.20100000E+01  1.00800000E+00  1.40100000E+01  1.20100000E+01
  1.00800000E+00  1.20100000E+01  1.00800000E+00  1.20100000E+01  1.60000000E+01
  1.40100000E+01  1.00800000E+00  1.20100000E+01  1.60000000E+01  1.20100000E+01
  1.00800000E+00  1.20100000E+01  1.00800000E+00  1.60000000E+01  1.00800000E+00
  1.60000000E+01  3.09700000E+01  1.60000000E+01  1.60000000E+01  1.60000000E+01
  1.20100000E+01  1.00800000E+00  1.00800000E+00  1.20100000E+01  1.00800000E+00
  1.60000000E+01  1.20100000E+01  1.00800000E+00  1.40100000E+01  1.20100000E+01
  1.00800000E+00  1.40100000E+01  1.20100000E+01  1.20100000E+01  1.40100000E+01
  1.00800000E+00  1.00800000E+00  1.40100000E+01  1.20100000E+01  1.00800000E+00
  1.40100000E+01  1.20100000E+01  1.20100000E+01  1.00800000E+00  1.20100000E+01
  1.00800000E+00  1.60000000E+01  1.00800000E+00  1.60000000E+01  3.09700000E+01
  1.60000000E+01  1.60000000E+01  1.60000000E+01  1.20100000E+01  1.00800000E+00
  1.00800000E+00  1.20100000E+01  1.00800000E+00  1.60000000E+01  1.20100000E+01
  1.00800000E+00  1.40100000E+01  1.20100000E+01  1.00800000E+00  1.40100000E+01
  1.20100000E+01  1.20100000E+01  1.40100000E+01  1.00800000E+00  1.00800000E+00
  1.40100000E+01  1.20100000E+01  1.00800000E+00  1.40100000E+01  1.20100000E+01
  1.20100000E+01  1.00800000E+00  1.20100000E+01  1.00800000E+00  1.60000000E+01
  1.00800000E+00  1.60000000E+01  3.09700000E+01  1.60000000E+01  1.60000000E+01
  1.60000000E+01  1.20100000E+01  1.00800000E+00  1.00800000E+00  1.20100000E+01
  1.00800000E+00  1.60000000E+01  1.20100000E+01  1.00800000E+00  1.40100000E+01
  1.20100000E+01  1.00800000E+00  1.20100000E+01  1.00800000E+00  1.20100000E+01
  1.60000000E+01  1.40100000E+01  1.00800000E+00  1.20100000E+01  1.60000000E+01
  1.20100000E+01  1.00800000E+00  1.20100000E+01  1.00800000E+00  1.60000000E+01
  1.00800000E+00  1.60000000E+01  3.09700000E+01  1.60000000E+01  1.60000000E+01
  1.60000000E+01  1.20100000E+01  1.00800000E+00  1.00800000E+00  1.20100000E+01
  1.00800000E+00  1.60000000E+01  1.20100000E+01  1.00800000E+00  1.40100000E+01
  1.20100000E+01  1.00800000E+00  1.20100000E+01  1.00800000E+00  1.20100000E+01
  1.40100000E+01  1.00800000E+00  1.00800000E+00  1.40100000E+01  1.20100000E+01
  1.60000000E+01  1.20100000E+01  1.00800000E+00  1.20100000E+01  1.00800000E+00
  1.60000000E+01  1.00800000E+00  1.60000000E+01  3.09700000E+01  1.60000000E+01
  1.60000000E+01  1.60000000E+01  1.20100000E+01  1.00800000E+00  1.00800000E+00
  1.20100000E+01  1.00800000E+00  1.60000000E+01  1.20100000E+01  1.00800000E+00
  1.40100000E+01  1.20100000E+01  1.00800000E+00  1.40100000E+01  1.20100000E+01
  1.20100000E+01  1.60000000E+01  1.40100000E+01  1.00800000E+00  1.20100000E+01
  1.40100000E+01  1.00800000E+00  1.00800000E+00  1.40100000E+01  1.20100000E+01
  1.20100000E+01  1.00800000E+00  1.20100000E+01  1.00800000E+00  1.60000000E+01
  1.00800000E+00  1.60000000E+01  3.09700000E+01  1.60000000E+01  1.60000000E+01
  1.60000000E+01  1.20100000E+01  1.00800000E+00  1.00800000E+00  1.20100000E+01
  1.00800000E+00  1.60000000E+01  1.20100000E+01  1.00800000E+00  1.40100000E+01
  1.20100000E+01  1.00800000E+00  1.20100000E+01  1.00800000E+00  1.20100000E+01
  1.40100000E+01  1.00800000E+00  1.00800000E+00  1.40100000E+01  1.20100000E+01
  1.60000000E+01  1.20100000E+01  1.00800000E+00  1.20100000E+01  1.00800000E+00
  1.60000000E+01  1.00800000E+00  1.60000000E+01  3.09700000E+01  1.60000000E+01
  1.60000000E+01  1.60000000E+01  1.20100000E+01  1.00800000E+00  1.00800000E+00
  1.20100000E+01  1.00800000E+00  1.60000000E+01  1.20100000E+01  1.00800000E+00
  1.40100000E+01  1.20100000E+01  1.00800000E+00  1.40100000E+01  1.20100000E+01
  1.20100000E+01  1.60000000E+01  1.40100000E+01  1.00800000E+00  1.20100000E+01
  1.40100000E+01  1.00800000E+00  1.00800000E+00  1.40100000E+01  1.20100000E+01
  1.20100000E+01  1.00800000E+00  1.20100000E+01  1.00800000E+00  1.60000000E+01
  1.00800000E+00  1.60000000E+01  3.09700000E+01  1.60000000E+01  1.60000000E+01
  1.60000000E+01  1.20100000E+01  1.00800000E+00  1.00800000E+00  1.20100000E+01
  1.00800000E+00  1.60000000E+01  1.20100000E+01  1.00800000E+00  1.40100000E+01
  1.20100000E+01  1.00800000E+00  1.20100000E+01  1.00800000E+00  1.20100000E+01
  1.60000000E+01  1.40100000E+01  1.00800000E+00  1.20100000E+01  1.60000000E+01
  1.20100000E+01  1.00800000E+00  1.20100000E+01  1.00800000E+00  1.60000000E+01
  1.00800000E+00  1.60000000E+01  3.09700000E+01  1.60000000E+01  1.60000000E+01
  1.60000000E+01  1.20100000E+01  1.00800000E+00  1.00800000E+00  1.20100000E+01
  1.00800000E+00  1.60000000E+01  1.20100000E+01  1.00800000E+00  1.40100000E+01
  1.20100000E+01  1.00800000E+00  1.40100000E+01  1.20100000E+01  1.20100000E+01
  1.60000000E+01  1.40100000E+01  1.00800000E+00  1.20100000E+01  1.40100000E+01
  1.00800000E+00  1.00800000E+00  1.40100000E+01  1.20100000E+01  1.20100000E+01
  1.00800000E+00  1.20100000E+01  1.00800000E+00  1.60000000E+01  1.00800000E+00
  1.60000000E+01  3.09700000E+01  1.60000000E+01  1.60000000E+01  1.60000000E+01
  1.20100000E+01  1.00800000E+00  1.00800000E+00  1.20100000E+01  1.00800000E+00
  1.60000000E+01  1.20100000E+01  1.00800000E+00  1.40100000E+01  1.20100000E+01
  1.00800000E+00  1.40100000E+01  1.20100000E+01  1.20100000E+01  1.60000000E+01
  1.40100000E+01  1.00800000E+00  1.20100000E+01  1.40100000E+01  1.00800000E+00
  1.00800000E+00  1.40100000E+01  1.20100000E+01  1.20100000E+01  1.00800000E+00
  1.20100000E+01  1.00800000E+00  1.60000000E+01  1.00800000E+00  1.60000000E+01
  3.09700000E+01  1.60000000E+01  1.60000000E+01  1.60000000E+01  1.20100000E+01
  1.00800000E+00  1.00800000E+00  1.20100000E+01  1.00800000E+00  1.60000000E+01
  1.20100000E+01  1.00800000E+00  1.40100000E+01  1.20100000E+01  1.00800000E+00
  1.40100000E+01  1.20100000E+01  1.20100000E+01  1.40100000E+01  1.00800000E+00
  1.00800000E+00  1.40100000E+01  1.20100000E+01  1.00800000E+00  1.40100000E+01
  1.20100000E+01  1.20100000E+01  1.00800000E+00  1.20100000E+01  1.00800000E+00
  1.60000000E+01  1.00800000E+00  1.60000000E+01  3.09700000E+01  1.60000000E+01
  1.60000000E+01  1.60000000E+01  1.20100000E+01  1.00800000E+00  1.00800000E+00
  1.20100000E+01  1.00800000E+00  1.60000000E+01  1.20100000E+01  1.00800000E+00
  1.40100000E+01  1.20100000E+01  1.00800000E+00  1.20100000E+01  1.00800000E+00
  1.20100000E+01  1.60000000E+01  1.40100000E+01  1.00800000E+00  1.20100000E+01
  1.60000000E+01  1.20100000E+01  1.00800000E+00  1.20100000E+01  1.00800000E+00
  1.60000000E+01  1.00800000E+00  1.60000000E+01  3.09700000E+01  1.60000000E+01
  1.60000000E+01  1.60000000E+01  1.20100000E+01  1.00800000E+00  1.00800000E+00
  1.20100000E+01  1.00800000E+00  1.60000000E+01  1.20100000E+01  1.00800000E+00
  1.40100000E+01  1.20100000E+01  1.00800000E+00  1.40100000E+01  1.20100000E+01
  1.20100000E+01  1.40100000E+01  1.00800000E+00  1.00800000E+00  1.40100000E+01
  1.20100000E+01  1.00800000E+00  1.40100000E+01  1.20100000E+01  1.20100000E+01
  1.00800000E+00  1.20100000E+01  1.00800000E+00  1.60000000E+01  1.00800000E+00
  1.60000000E+01  3.09700000E+01  1.60000000E+01  1.60000000E+01  1.60000000E+01
  1.20100000E+01  1.00800000E+00  1.00800000E+00  1.20100000E+01  1.00800000E+00
  1.60000000E+01  1.20100000E+01  1.00800000E+00  1.40100000E+01  1.20100000E+01
  1.00800000E+00  1.20100000E+01  1.00800000E+00  1.20100000E+01  1.60000000E+01
  1.40100000E+01  1.00800000E+00  1.20100000E+01  1.60000000E+01  1.20100000E+01
  1.00800000E+00  1.20100000E+01  1.00800000E+00  1.60000000E+01  1.00800000E+00
  1.60000000E+01  3.09700000E+01  1.60000000E+01  1.60000000E+01  1.60000000E+01
  1.20100000E+01  1.00800000E+00  1.00800000E+00  1.20100000E+01  1.00800000E+00
  1.60000000E+01  1.20100000E+01  1.00800000E+00  1.40100000E+01  1.20100000E+01
  1.00800000E+00  1.40100000E+01  1.20100000E+01  1.20100000E+01  1.60000000E+01
  1.40100000E+01  1.00800000E+00  1.20100000E+01  1.40100000E+01  1.00800000E+00
  1.00800000E+00  1.40100000E+01  1.20100000E+01  1.20100000E+01  1.00800000E+00
  1.20100000E+01  1.00800000E+00  1.60000000E+01  1.00800000E+00  1.60000000E+01
  3.09700000E+01  1.60000000E+01  1.60000000E+01  1.60000000E+01  1.20100000E+01
  1.00800000E+00  1.00800000E+00  1.20100000E+01  1.00800000E+00  1.60000000E+01
  1.20100000E+01  1.00800000E+00  1.40100000E+01  1.20100000E+01  1.00800000E+00
  1.40100000E+01  1.20100000E+01  1.20100000E+01  1.60000000E+01  1.40100000E+01
  1.00800000E+00  1.20100000E+01  1.40100000E+01  1.00800000E+00  1.00800000E+00
  1.40100000E+01  1.20100000E+01  1.20100000E+01  1.00800000E+00  1.20100000E+01
  1.00800000E+00  1.60000000E+01  1.00800000E+00  1.60000000E+01  3.09700000E+01
  1.60000000E+01  1.60000000E+01  1.60000000E+01  1.20100000E+01  1.00800000E+00
  1.00800000E+00  1.20100000E+01  1.00800000E+00  1.60000000E+01  1.20100000E+01
  1.00800000E+00  1.40100000E+01  1.20100000E+01  1.00800000E+00  1.20100000E+01
  1.00800000E+00  1.20100000E+01  1.40100000E+01  1.00800000E+00  1.00800000E+00
  1.40100000E+01  1.20100000E+01  1.60000000E+01  1.20100000E+01  1.00800000E+00
  1.20100000E+01  1.00800000E+00  1.60000000E+01  1.00800000E+00  1.60000000E+01
  3.09700000E+01  1.60000000E+01  1.60000000E+01  1.60000000E+01  1.20100000E+01
  1.00800000E+00  1.00800000E+00  1.20100000E+01  1.00800000E+00  1.60000000E+01
  1.20100000E+01  1.00800000E+00  1.40100000E+01  1.20100000E+01  1.00800000E+00
  1.40100000E+01  1.20100000E+01  1.20100000E+01  1.40100000E+01  1.00800000E+00
  1.00800000E+00  1.40100000E+01  1.20100000E+01  1.00800000E+00  1.40100000E+01
  1.20100000E+01  1.20100000E+01  1.00800000E+00  1.20100000E+01  1.00800000E+00
  1.60000000E+01  1.00800000E+00  1.60000000E+01  3.09700000E+01  1.60000000E+01
  1.60000000E+01  1.60000000E+01  1.20100000E+01  1.00800000E+00  1.00800000E+00
  1.20100000E+01  1.00800000E+00  1.60000000E+01  1.20100000E+01  1.00800000E+00
  1.40100000E+01  1.20100000E+01  1.00800000E+00  1.20100000E+01  1.00800000E+00
  1.20100000E+01  1.40100000E+01  1.00800000E+00  1.00800000E+00  1.40100000E+01
  1.20100000E+01  1.60000000E+01  1.20100000E+01  1.00800000E+00  1.20100000E+01
  1.00800000E+00  1.60000000E+01  1.00800000E+00  1.60000000E+01  3.09700000E+01
  1.60000000E+01  1.60000000E+01  1.60000000E+01  1.20100000E+01  1.00800000E+00
  1.00800000E+00  1.20100000E+01  1.00800000E+00  1.60000000E+01  1.20100000E+01
  1.00800000E+00  1.40100000E+01  1.20100000E+01  1.00800000E+00  1.40100000E+01
  1.20100000E+01  1.20100000E+01  1.60000000E+01  1.40100000E+01  1.00800000E+00
  1.20100000E+01  1.40100000E+01  1.00800000E+00  1.00800000E+00  1.40100000E+01
  1.20100000E+01  1.20100000E+01  1.00800000E+00  1.20100000E+01  1.00800000E+00
  1.60000000E+01  1.00800000E+00  1.60000000E+01  3.09700000E+01  1.60000000E+01
  1.60000000E+01  1.60000000E+01  1.20100000E+01  1.00800000E+00  1.00800000E+00
  1.20100000E+01  1.00800000E+00  1.60000000E+01  1.20100000E+01  1.00800000E+00
  1.40100000E+01  1.20100000E+01  1.00800000E+00  1.20100000E+01  1.00800000E+00
  1.20100000E+01  1.40100000E+01  1.00800000E+00  1.00800000E+00  1.40100000E+01
  1.20100000E+01  1.60000000E+01  1.20100000E+01  1.00800000E+00  1.20100000E+01
  1.00800000E+00  1.60000000E+01  1.00800000E+00  1.60000000E+01  3.09700000E+01
  1.60000000E+01  1.60000000E+01  1.60000000E+01  1.20100000E+01  1.00800000E+00
  1.00800000E+00  1.20100000E+01  1.00800000E+00  1.60000000E+01  1.20100000E+01
  1.00800000E+00  1.40100000E+01  1.20100000E+01  1.00800000E+00  1.40100000E+01
  1.20100000E+01  1.20100000E+01  1.40100000E+01  1.00800000E+00  1.00800000E+00
  1.40100000E+01  1.20100000E+01  1.00800000E+00  1.40100000E+01  1.20100000E+01
  1.20100000E+01  1.00800000E+00  1.20100000E+01  1.00800000E+00  1.60000000E+01
  1.00800000E+00  1.60000000E+01  3.09700000E+01  1.60000000E+01  1.60000000E+01
  1.60000000E+01  1.20100000E+01  1.00800000E+00  1.00800000E+00  1.20100000E+01
  1.00800000E+00  1.60000000E+01  1.20100000E+01  1.00800000E+00  1.40100000E+01
  1.20100000E+01  1.00800000E+00  1.40100000E+01  1.20100000E+01  1.20100000E+01
  1.40100000E+01  1.00800000E+00  1.00800000E+00  1.40100000E+01  1.20100000E+01
  1.00800000E+00  1.40100000E+01  1.20100000E+01  1.20100000E+01  1.00800000E+00
  1.20100000E+01  1.00800000E+00  1.60000000E+01  1.00800000E+00  1.60000000E+01
  3.09700000E+01  1.60000000E+01  1.60000000E+01  1.60000000E+01  1.20100000E+01
  1.00800000E+00  1.00800000E+00  1.20100000E+01  1.00800000E+00  1.60000000E+01
  1.20100000E+01  1.00800000E+00  1.40100000E+01  1.20100000E+01  1.00800000E+00
  1.40100000E+01  1.20100000E+01  1.20100000E+01  1.60000000E+01  1.40100000E+01
  1.00800000E+00  1.20100000E+01  1.40100000E+01  1.00800000E+00  1.00800000E+00
  1.40100000E+01  1.20100000E+01  1.20100000E+01  1.00800000E+00  1.20100000E+01
  1.00800000E+00  1.60000000E+01  1.00800000E+00  1.60000000E+01  3.09700000E+01
  1.60000000E+01  1.60000000E+01  1.60000000E+01  1.20100000E+01  1.00800000E+00
  1.00800000E+00  1.20100000E+01  1.00800000E+00  1.60000000E+01  1.20100000E+01
  1.00800000E+00  1.40100000E+01  1.20100000E+01  1.00800000E+00  1.20100000E+01
  1.00800000E+00  1.20100000E+01  1.60000000E+01  1.40100000E+01  1.00800000E+00
  1.20100000E+01  1.60000000E+01  1.20100000E+01  1.00800000E+00  1.20100000E+01
  1.00800000E+00  1.60000000E+01  1.00800000E+00  1.60000000E+01  3.09700000E+01
  1.60000000E+01  1.60000000E+01  1.60000000E+01  1.20100000E+01  1.00800000E+00
  1.00800000E+00  1.20100000E+01  1.00800000E+00  1.60000000E+01  1.20100000E+01
  1.00800000E+00  1.40100000E+01  1.20100000E+01  1.00800000E+00  1.20100000E+01
  1.00800000E+00  1.20100000E+01  1.60000000E+01  1.40100000E+01  1.00800000E+00
  1.20100000E+01  1.60000000E+01  1.20100000E+01  1.00800000E+00  1.20100000E+01
  1.00800000E+00  1.60000000E+01  1.00800000E+00  1.60000000E+01  3.09700000E+01
  1.60000000E+01  1.60000000E+01  1.60000000E+01  1.20100000E+01  1.00800000E+00
  1.00800000E+00  1.20100000E+01  1.00800000E+00  1.60000000E+01  1.20100000E+01
  1.00800000E+00  1.40100000E+01  1.20100000E+01  1.00800000E+00  1.20100000E+01
  1.00800000E+00  1.20100000E+01  1.60000000E+01  1.40100000E+01  1.00800000E+00
  1.20100000E+01  1.60000000E+01  1.20100000E+01  1.00800000E+00  1.20100000E+01
  1.00800000E+00  1.60000000E+01  1.00800000E+00  1.60000000E+01  3.09700000E+01
  1.60000000E+01  1.60000000E+01  1.60000000E+01  1.20100000E+01  1.00800000E+00
  1.00800000E+00  1.20100000E+01  1.00800000E+00  1.60000000E+01  1.20100000E+01
  1.00800000E+00  1.40100000E+01  1.20100000E+01  1.00800000E+00  1.20100000E+01
  1.00800000E+00  1.20100000E+01  1.40100000E+01  1.00800000E+00  1.00800000E+00
  1.40100000E+01  1.20100000E+01  1.60000000E+01  1.20100000E+01  1.00800000E+00
  1.20100000E+01  1.00800000E+00  1.60000000E+01  1.00800000E+00  1.60000000E+01
  3.09700000E+01  1.60000000E+01  1.60000000E+01  1.60000000E+01  1.20100000E+01
  1.00800000E+00  1.00800000E+00  1.20100000E+01  1.00800000E+00  1.60000000E+01
  1.20100000E+01  1.00800000E+00  1.40100000E+01  1.20100000E+01  1.00800000E+00
  1.20100000E+01  1.00800000E+00  1.20100000E+01  1.60000000E+01  1.40100000E+01
  1.00800000E+00  1.20100000E+01  1.60000000E+01  1.20100000E+01  1.00800000E+00
  1.20100000E+01  1.00800000E+00  1.60000000E+01  1.00800000E+00  1.60000000E+01
  3.09700000E+01  1.60000000E+01  1.60000000E+01  1.60000000E+01  1.20100000E+01
  1.00800000E+00  1.00800000E+00  1.20100000E+01  1.00800000E+00  1.60000000E+01
  1.20100000E+01  1.00800000E+00  1.40100000E+01  1.20100000E+01  1.00800000E+00
  1.40100000E+01  1.20100000E+01  1.20100000E+01  1.40100000E+01  1.00800000E+00
  1.00800000E+00  1.40100000E+01  1.20100000E+01  1.00800000E+00  1.40100000E+01
  1.20100000E+01  1.20100000E+01  1.00800000E+00  1.20100000E+01  1.00800000E+00
  1.60000000E+01  1.00800000E+00  1.60000000E+01  3.09700000E+01  1.60000000E+01
  1.60000000E+01  1.60000000E+01  1.20100000E+01  1.00800000E+00  1.00800000E+00
  1.20100000E+01  1.00800000E+00  1.60000000E+01  1.20100000E+01  1.00800000E+00
  1.40100000E+01  1.20100000E+01  1.00800000E+00  1.20100000E+01  1.00800000E+00
  1.20100000E+01  1.40100000E+01  1.00800000E+00  1.00800000E+00  1.40100000E+01
  1.20100000E+01  1.60000000E+01  1.20100000E+01  1.00800000E+00  1.20100000E+01
  1.00800000E+00  1.60000000E+01  1.00800000E+00  1.60000000E+01  3.09700000E+01
  1.60000000E+01  1.60000000E+01  1.60000000E+01  1.20100000E+01  1.00800000E+00
  1.00800000E+00  1.20100000E+01  1.00800000E+00  1.60000000E+01  1.20100000E+01
  1.00800000E+00  1.40100000E+01  1.20100000E+01  1.00800000E+00  1.20100000E+01
  1.00800000E+00  1.20100000E+01  1.40100000E+01  1.00800000E+00  1.00800000E+00
  1.40100000E+01  1.20100000E+01  1.60000000E+01  1.20100000E+01  1.00800000E+00
  1.20100000E+01  1.00800000E+00  1.60000000E+01  1.00800000E+00  1.60000000E+01
  3.09700000E+01  1.60000000E+01  1.60000000E+01  1.60000000E+01  1.20100000E+01
  1.00800000E+00  1.00800000E+00  1.20100000E+01  1.00800000E+00  1.60000000E+01
  1.20100000E+01  1.00800000E+00  1.40100000E+01  1.20100000E+01  1.00800000E+00
  1.40100000E+01  1.20100000E+01  1.20100000E+01  1.60000000E+01  1.40100000E+01
  1.00800000E+00  1.20100000E+01  1.40100000E+01  1.00800000E+00  1.00800000E+00
  1.40100000E+01  1.20100000E+01  1.20100000E+01  1.00800000E+00  1.20100000E+01
  1.00800000E+00  1.60000000E+01  1.00800000E+00  1.60000000E+01  3.09700000E+01
  1.60000000E+01  1.60000000E+01  1.60000000E+01  1.20100000E+01  1.00800000E+00
  1.00800000E+00  1.20100000E+01  1.00800000E+00  1.60000000E+01  1.20100000E+01
  1.00800000E+00  1.40100000E+01  1.20100000E+01  1.00800000E+00  1.40100000E+01
  1.20100000E+01  1.20100000E+01  1.60000000E+01  1.40100000E+01  1.00800000E+00
  1.20100000E+01  1.40100000E+01  1.00800000E+00  1.00800000E+00  1.40100000E+01
  1.20100000E+01  1.20100000E+01  1.00800000E+00  1.20100000E+01  1.00800000E+00
  1.60000000E+01  1.00800000E+00  1.60000000E+01  3.09700000E+01  1.60000000E+01
  1.60000000E+01  1.60000000E+01  1.20100000E+01  1.00800000E+00  1.00800000E+00
  1.20100000E+01  1.00800000E+00  1.60000000E+01  1.20100000E+01  1.00800000E+00
  1.40100000E+01  1.20100000E+01  1.00800000E+00  1.40100000E+01  1.20100000E+01
  1.20100000E+01  1.60000000E+01  1.40100000E+01  1.00800000E+00  1.20100000E+01
  1.40100000E+01  1.00800000E+00  1.00800000E+00  1.40100000E+01  1.20100000E+01
  1.20100000E+01  1.00800000E+00  1.20100000E+01  1.00800000E+00  1.60000000E+01
  1.00800000E+00  1.60000000E+01  3.09700000E+01  1.60000000E+01  1.60000000E+01
  1.60000000E+01  1.20100000E+01  1.00800000E+00  1.00800000E+00  1.20100000E+01
  1.00800000E+00  1.60000000E+01  1.20100000E+01  1.00800000E+00  1.40100000E+01
  1.20100000E+01  1.00800000E+00  1.20100000E+01  1.00800000E+00  1.20100000E+01
  1.40100000E+01  1.00800000E+00  1.00800000E+00  1.40100000E+01  1.20100000E+01
  1.60000000E+01  1.20100000E+01  1.00800000E+00  1.20100000E+01  1.00800000E+00
  1.60000000E+01  1.00800000E+00  1.60000000E+01  3.09700000E+01  1.60000000E+01
  1.60000000E+01  1.60000000E+01  1.20100000E+01  1.00800000E+00  1.00800000E+00
  1.20100000E+01  1.00800000E+00  1.60000000E+01  1.20100000E+01  1.00800000E+00
  1.40100000E+01  1.20100000E+01  1.00800000E+00  1.40100000E+01  1.20100000E+01
  1.20100000E+01  1.40100000E+01  1.00800000E+00  1.00800000E+00  1.40100000E+01
  1.20100000E+01  1.00800000E+00  1.40100000E+01  1.20100000E+01  1.20100000E+01
  1.00800000E+00  1.20100000E+01  1.00800000E+00  1.60000000E+01  1.00800000E+00
  1.60000000E+01  3.09700000E+01  1.60000000E+01  1.60000000E+01  1.60000000E+01
  1.20100000E+01  1.00800000E+00  1.00800000E+00  1.20100000E+01  1.00800000E+00
  1.60000000E+01  1.20100000E+01  1.00800000E+00  1.40100000E+01  1.20100000E+01
  1.00800000E+00  1.20100000E+01  1.00800000E+00  1.20100000E+01  1.40100000E+01
  1.00800000E+00  1.00800000E+00  1.40100000E+01  1.20100000E+01  1.60000000E+01
  1.20100000E+01  1.00800000E+00  1.20100000E+01  1.00800000E+00  1.60000000E+01
  1.00800000E+00  1.60000000E+01  3.09700000E+01  1.60000000E+01  1.60000000E+01
  1.60000000E+01  1.20100000E+01  1.00800000E+00  1.00800000E+00  1.20100000E+01
  1.00800000E+00  1.60000000E+01  1.20100000E+01  1.00800000E+00  1.40100000E+01
  1.20100000E+01  1.00800000E+00  1.20100000E+01  1.00800000E+00  1.20100000E+01
  1.40100000E+01  1.00800000E+00  1.00800000E+00  1.40100000E+01  1.20100000E+01
  1.60000000E+01  1.20100000E+01  1.00800000E+00  1.20100000E+01  1.00800000E+00
  1.60000000E+01  1.00800000E+00  1.60000000E+01  3.09700000E+01  1.60000000E+01
  1.60000000E+01  1.60000000E+01  1.20100000E+01  1.00800000E+00  1.00800000E+00
  1.20100000E+01  1.00800000E+00  1.60000000E+01  1.20100000E+01  1.00800000E+00
  1.40100000E+01  1.20100000E+01  1.00800000E+00  1.40100000E+01  1.20100000E+01
  1.20100000E+01  1.60000000E+01  1.40100000E+01  1.00800000E+00  1.20100000E+01
  1.40100000E+01  1.00800000E+00  1.00800000E+00  1.40100000E+01  1.20100000E+01
  1.20100000E+01  1.00800000E+00  1.20100000E+01  1.00800000E+00  1.60000000E+01
  1.00800000E+00  1.60000000E+01  3.09700000E+01  1.60000000E+01  1.60000000E+01
  1.60000000E+01  1.20100000E+01  1.00800000E+00  1.00800000E+00  1.20100000E+01
  1.00800000E+00  1.60000000E+01  1.20100000E+01  1.00800000E+00  1.40100000E+01
  1.20100000E+01  1.00800000E+00  1.20100000E+01  1.00800000E+00  1.20100000E+01
  1.60000000E+01  1.40100000E+01  1.00800000E+00  1.20100000E+01  1.60000000E+01
  1.20100000E+01  1.00800000E+00  1.20100000E+01  1.00800000E+00  1.60000000E+01
  1.00800000E+00  1.60000000E+01  3.09700000E+01  1.60000000E+01  1.60000000E+01
  1.60000000E+01  1.20100000E+01  1.00800000E+00  1.00800000E+00  1.20100000E+01
  1.00800000E+00  1.60000000E+01  1.20100000E+01  1.00800000E+00  1.40100000E+01
  1.20100000E+01  1.00800000E+00  1.40100000E+01  1.20100000E+01  1.20100000E+01
  1.40100000E+01  1.00800000E+00  1.00800000E+00  1.40100000E+01  1.20100000E+01
  1.00800000E+00  1.40100000E+01  1.20100000E+01  1.20100000E+01  1.00800000E+00
  1.20100000E+01  1.00800000E+00  1.60000000E+01  1.00800000E+00  1.60000000E+01
  3.09700000E+01  1.60000000E+01  1.60000000E+01  1.60000000E+01  1.20100000E+01
  1.00800000E+00  1.00800000E+00  1.20100000E+01  1.00800000E+00  1.60000000E+01
  1.20100000E+01  1.00800000E+00  1.40100000E+01  1.20100000E+01  1.00800000E+00
  1.40100000E+01  1.20100000E+01  1.20100000E+01  1.40100000E+01  1.00800000E+00
  1.00800000E+00  1.40100000E+01  1.20100000E+01  1.00800000E+00  1.40100000E+01
  1.20100000E+01  1.20100000E+01  1.00800000E+00  1.20100000E+01  1.00800000E+00
  1.60000000E+01  1.00800000E+00  1.60000000E+01  3.09700000E+01  1.60000000E+01
  1.60000000E+01  1.60000000E+01  1.20100000E+01  1.00800000E+00  1.00800000E+00
  1.20100000E+01  1.00800000E+00  1.60000000E+01  1.20100000E+01  1.00800000E+00
  1.40100000E+01  1.20100000E+01  1.00800000E+00  1.40100000E+01  1.20100000E+01
  1.20100000E+01  1.40100000E+01  1.00800000E+00  1.00800000E+00  1.40100000E+01
  1.20100000E+01  1.00800000E+00  1.40100000E+01  1.20100000E+01  1.20100000E+01
  1.00800000E+00  1.20100000E+01  1.00800000E+00  1.60000000E+01  1.00800000E+00
  1.60000000E+01  3.09700000E+01  1.60000000E+01  1.60000000E+01  1.60000000E+01
  1.20100000E+01  1.00800000E+00  1.00800000E+00  1.20100000E+01  1.00800000E+00
  1.60000000E+01  1.20100000E+01  1.00800000E+00  1.40100000E+01  1.20100000E+01
  1.00800000E+00  1.20100000E+01  1.00800000E+00  1.20100000E+01  1.60000000E+01
  1.40100000E+01  1.00800000E+00  1.20100000E+01  1.60000000E+01  1.20100000E+01
  1.00800000E+00  1.20100000E+01  1.00800000E+00  1.60000000E+01  1.00800000E+00
  1.60000000E+01  3.09700000E+01  1.60000000E+01  1.60000000E+01  1.60000000E+01
  1.20100000E+01  1.00800000E+00  1.00800000E+00  1.20100000E+01  1.00800000E+00
  1.60000000E+01  1.20100000E+01  1.00800000E+00  1.40100000E+01  1.20100000E+01
  1.00800000E+00  1.40100000E+01  1.20100000E+01  1.20100000E+01  1.60000000E+01
  1.40100000E+01  1.00800000E+00  1.20100000E+01  1.40100000E+01  1.00800000E+00
  1.00800000E+00  1.40100000E+01  1.20100000E+01  1.20100000E+01  1.00800000E+00
  1.20100000E+01  1.00800000E+00  1.60000000E+01  1.00800000E+00  1.60000000E+01
  3.09700000E+01  1.60000000E+01  1.60000000E+01  1.60000000E+01  1.20100000E+01
  1.00800000E+00  1.00800000E+00  1.20100000E+01  1.00800000E+00  1.60000000E+01
  1.20100000E+01  1.00800000E+00  1.40100000E+01  1.20100000E+01  1.00800000E+00
  1.20100000E+01  1.00800000E+00  1.20100000E+01  1.60000000E+01  1.40100000E+01
  1.00800000E+00  1.20100000E+01  1.60000000E+01  1.20100000E+01  1.00800000E+00
  1.20100000E+01  1.00800000E+00  1.60000000E+01  1.00800000E+00  1.60000000E+01
  3.09700000E+01  1.60000000E+01  1.60000000E+01  1.60000000E+01  1.20100000E+01
  1.00800000E+00  1.00800000E+00  1.20100000E+01  1.00800000E+00  1.60000000E+01
  1.20100000E+01  1.00800000E+00  1.40100000E+01  1.20100000E+01  1.00800000E+00
  1.20100000E+01  1.00800000E+00  1.20100000E+01  1.40100000E+01  1.00800000E+00
  1.00800000E+00  1.40100000E+01  1.20100000E+01  1.60000000E+01  1.20100000E+01
  1.00800000E+00  1.20100000E+01  1.00800000E+00  1.60000000E+01  1.00800000E+00
  1.60000000E+01  3.09700000E+01  1.60000000E+01  1.60000000E+01  1.60000000E+01
  1.20100000E+01  1.00800000E+00  1.00800000E+00  1.20100000E+01  1.00800000E+00
  1.60000000E+01  1.20100000E+01  1.00800000E+00  1.40100000E+01  1.20100000E+01
  1.00800000E+00  1.20100000E+01  1.00800000E+00  1.20100000E+01  1.40100000E+01
  1.00800000E+00  1.00800000E+00  1.40100000E+01  1.20100000E+01  1.60000000E+01
  1.20100000E+01  1.00800000E+00  1.20100000E+01  1.00800000E+00  1.60000000E+01
  1.00800000E+00  1.60000000E+01  3.09700000E+01  1.60000000E+01  1.60000000E+01
  1.60000000E+01  1.20100000E+01  1.00800000E+00  1.00800000E+00  1.20100000E+01
  1.00800000E+00  1.60000000E+01  1.20100000E+01  1.00800000E+00  1.40100000E+01
  1.20100000E+01  1.00800000E+00  1.40100000E+01  1.20100000E+01  1.20100000E+01
  1.60000000E+01  1.40100000E+01  1.00800000E+00  1.20100000E+01  1.40100000E+01
  1.00800000E+00  1.00800000E+00  1.40100000E+01  1.20100000E+01  1.20100000E+01
  1.00800000E+00  1.20100000E+01  1.00800000E+00  1.60000000E+01  1.00800000E+00
  1.60000000E+01  3.09700000E+01  1.60000000E+01  1.60000000E+01  1.60000000E+01
  1.20100000E+01  1.00800000E+00  1.00800000E+00  1.20100000E+01  1.00800000E+00
  1.60000000E+01  1.20100000E+01  1.00800000E+00  1.40100000E+01  1.20100000E+01
  1.00800000E+00  1.40100000E+01  1.20100000E+01  1.20100000E+01  1.40100000E+01
  1.00800000E+00  1.00800000E+00  1.40100000E+01  1.20100000E+01  1.00800000E+00
  1.40100000E+01  1.20100000E+01  1.20100000E+01  1.00800000E+00  1.20100000E+01
  1.00800000E+00  1.60000000E+01  1.00800000E+00  1.60000000E+01  3.09700000E+01
  1.60000000E+01  1.60000000E+01  1.60000000E+01  1.20100000E+01  1.00800000E+00
  1.00800000E+00  1.20100000E+01  1.00800000E+00  1.60000000E+01  1.20100000E+01
  1.00800000E+00  1.40100000E+01  1.20100000E+01  1.00800000E+00  1.20100000E+01
  1.00800000E+00  1.20100000E+01  1.40100000E+01  1.00800000E+00  1.00800000E+00
  1.40100000E+01  1.20100000E+01  1.60000000E+01  1.20100000E+01  1.00800000E+00
  1.20100000E+01  1.00800000E+00  1.60000000E+01  1.00800000E+00  1.60000000E+01
  3.09700000E+01  1.60000000E+01  1.60000000E+01  1.60000000E+01  1.20100000E+01
  1.00800000E+00  1.00800000E+00  1.20100000E+01  1.00800000E+00  1.60000000E+01
  1.20100000E+01  1.00800000E+00  1.40100000E+01  1.20100000E+01  1.00800000E+00
  1.20100000E+01  1.00800000E+00  1.20100000E+01  1.60000000E+01  1.40100000E+01
  1.00800000E+00  1.20100000E+01  1.60000000E+01  1.20100000E+01  1.00800000E+00
  1.20100000E+01  1.00800000E+00  1.60000000E+01  1.00800000E+00  1.60000000E+01
  3.09700000E+01  1.60000000E+01  1.60000000E+01  1.60000000E+01  1.20100000E+01
  1.00800000E+00  1.00800000E+00  1.20100000E+01  1.00800000E+00  1.60000000E+01
  1.20100000E+01  1.00800000E+00  1.40100000E+01  1.20100000E+01  1.00800000E+00
  1.40100000E+01  1.20100000E+01  1.20100000E+01  1.40100000E+01  1.00800000E+00
  1.00800000E+00  1.40100000E+01  1.20100000E+01  1.00800000E+00  1.40100000E+01
  1.20100000E+01  1.20100000E+01  1.00800000E+00  1.20100000E+01  1.00800000E+00
  1.60000000E+01  1.00800000E+00  1.60000000E+01  3.09700000E+01  1.60000000E+01
  1.60000000E+01  1.60000000E+01  1.20100000E+01  1.00800000E+00  1.00800000E+00
  1.20100000E+01  1.00800000E+00  1.60000000E+01  1.20100000E+01  1.00800000E+00
  1.40100000E+01  1.20100000E+01  1.00800000E+00  1.20100000E+01  1.00800000E+00
  1.20100000E+01  1.60000000E+01  1.40100000E+01  1.00800000E+00  1.20100000E+01
  1.60000000E+01  1.20100000E+01  1.00800000E+00  1.20100000E+01  1.00800000E+00
  1.60000000E+01  1.00800000E+00  1.60000000E+01  3.09700000E+01  1.60000000E+01
  1.60000000E+01  1.60000000E+01  1.20100000E+01  1.00800000E+00  1.00800000E+00
  1.20100000E+01  1.00800000E+00  1.60000000E+01  1.20100000E+01  1.00800000E+00
  1.40100000E+01  1.20100000E+01  1.00800000E+00  1.40100000E+01  1.20100000E+01
  1.20100000E+01  1.60000000E+01  1.40100000E+01  1.00800000E+00  1.20100000E+01
  1.40100000E+01  1.00800000E+00  1.00800000E+00  1.40100000E+01  1.20100000E+01
  1.20100000E+01  1.00800000E+00  1.20100000E+01  1.00800000E+00  1.60000000E+01
  1.00800000E+00  1.60000000E+01  3.09700000E+01  1.60000000E+01  1.60000000E+01
  1.60000000E+01  1.20100000E+01  1.00800000E+00  1.00800000E+00  1.20100000E+01
  1.00800000E+00  1.60000000E+01  1.20100000E+01  1.00800000E+00  1.40100000E+01
  1.20100000E+01  1.00800000E+00  1.40100000E+01  1.20100000E+01  1.20100000E+01
  1.60000000E+01  1.40100000E+01  1.00800000E+00  1.20100000E+01  1.40100000E+01
  1.00800000E+00  1.00800000E+00  1.40100000E+01  1.20100000E+01  1.20100000E+01
  1.00800000E+00  1.20100000E+01  1.00800000E+00  1.60000000E+01  1.00800000E+00
  1.60000000E+01  3.09700000E+01  1.60000000E+01  1.60000000E+01  1.60000000E+01
  1.20100000E+01  1.00800000E+00  1.00800000E+00  1.20100000E+01  1.00800000E+00
  1.60000000E+01  1.20100000E+01  1.00800000E+00  1.40100000E+01  1.20100000E+01
  1.00800000E+00  1.20100000E+01  1.00800000E+00  1.20100000E+01  1.60000000E+01
  1.40100000E+01  1.00800000E+00  1.20100000E+01  1.60000000E+01  1.20100000E+01
  1.00800000E+00  1.20100000E+01  1.00800000E+00  1.60000000E+01  1.00800000E+00
  1.60000000E+01  3.09700000E+01  1.60000000E+01  1.60000000E+01  1.60000000E+01
  1.20100000E+01  1.00800000E+00  1.00800000E+00  1.20100000E+01  1.00800000E+00
  1.60000000E+01  1.20100000E+01  1.00800000E+00  1.40100000E+01  1.20100000E+01
  1.00800000E+00  1.20100000E+01  1.00800000E+00  1.20100000E+01  1.40100000E+01
  1.00800000E+00  1.00800000E+00  1.40100000E+01  1.20100000E+01  1.60000000E+01
  1.20100000E+01  1.00800000E+00  1.20100000E+01  1.00800000E+00  1.60000000E+01
  1.00800000E+00  1.60000000E+01  1.00800000E+00  2.29900000E+01  2.29900000E+01
  2.29900000E+01  2.29900000E+01  2.29900000E+01  2.29900000E+01  2.29900000E+01
  2.29900000E+01  2.29900000E+01  2.29900000E+01  2.29900000E+01  2.29900000E+01
  2.29900000E+01  2.29900000E+01  2.29900000E+01  2.29900000E+01  2.29900000E+01
  2.29900000E+01  2.29900000E+01  2.29900000E+01  2.29900000E+01  2.29900000E+01
  2.29900000E+01  2.29900000E+01  2.29900000E+01  2.29900000E+01  2.29900000E+01
  2.29900000E+01  2.29900000E+01  2.29900000E+01  2.29900000E+01  2.29900000E+01
  2.29900000E+01  2.29900000E+01  2.29900000E+01  2.29900000E+01  2.29900000E+01
  2.29900000E+01  2.29900000E+01  2.29900000E+01  2.29900000E+01  2.29900000E+01
  2.29900000E+01  2.29900000E+01  2.29900000E+01  2.29900000E+01  2.29900000E+01
  2.29900000E+01  2.29900000E+01  2.29900000E+01  2.29900000E+01  2.29900000E+01
  2.29900000E+01  2.29900000E+01  2.29900000E+01  2.29900000E+01  2.29900000E+01
  2.29900000E+01  2.29900000E+01  2.29900000E+01  2.29900000E+01  2.29900000E+01
  2.29900000E+01  2.29900000E+01  2.29900000E+01  2.29900000E+01  2.29900000E+01
  2.29900000E+01  3.54500000E+01  2.29900000E+01  3.54500000E+01  2.29900000E+01
  3.54500000E+01  2.29900000E+01  3.54500000E+01  2.29900000E+01  3.54500000E+01
  2.29900000E+01  3.54500000E+01  2.29900000E+01  3.54500000E+01  2.29900000E+01
  3.54500000E+01  2.29900000E+01  3.54500000E+01  2.29900000E+01  3.54500000E+01
  2.29900000E+01  3.54500000E+01  2.29900000E+01  3.54500000E+01  2.29900000E+01
  3.54500000E+01  2.29900000E+01  3.54500000E+01  2.29900000E+01  3.54500000E+01
  2.29900000E+01  3.54500000E+01  2.29900000E+01  3.54500000E+01  2.29900000E+01
  3.54500000E+01  2.29900000E+01  3.54500000E+01  2.29900000E+01  3.54500000E+01
  2.29900000E+01  3.54500000E+01  2.29900000E+01  3.54500000E+01  2.29900000E+01
  3.54500000E+01  2.29900000E+01  3.54500000E+01  2.29900000E+01  3.54500000E+01
  2.29900000E+01  3.54500000E+01  2.29900000E+01  3.54500000E+01  2.29900000E+01
  3.54500000E+01  2.29900000E+01  3.54500000E+01  2.29900000E+01  3.54500000E+01
  2.29900000E+01  3.54500000E+01  2.29900000E+01  3.54500000E+01  1.60000000E+01
  1.20100000E+01  1.40100000E+01  1.20100000E+01  1.40100000E+01  1.60000000E+01
  1.20100000E+01  1.20100000E+01  1.20100000E+01  1.20100000E+01  1.20100000E+01
  1.20100000E+01  1.20100000E+01  1.40100000E+01  1.20100000E+01  1.20100000E+01
  1.40100000E+01  1.20100000E+01  1.40100000E+01  1.00800000E+00  1.00800000E+00
  1.00800000E+00  1.00800000E+00  1.00800000E+00  1.00800000E+00  1.00800000E+00
  1.00800000E+00  1.00800000E+00  1.00800000E+00  1.00800000E+00  1.60000000E+01
  1.00800000E+00  1.00800000E+00  0.00000000E+00  1.60000000E+01  1.00800000E+00
  1.00800000E+00  0.00000000E+00  1.60000000E+01  1.00800000E+00  1.00800000E+00
  0.00000000E+00  1.60000000E+01  1.00800000E+00  1.00800000E+00  0.00000000E+00
  1.60000000E+01  1.00800000E+00  1.00800000E+00  0.00000000E+00  1.60000000E+01
  1.00800000E+00  1.00800000E+00  0.00000000E+00  1.60000000E+01  1.00800000E+00
  1.00800000E+00  0.00000000E+00  1.60000000E+01  1.00800000E+00  1.00800000E+00
  0.00000000E+00  1.60000000E+01  1.00800000E+00  1.00800000E+00  0.00000000E+00
  1.60000000E+01  1.00800000E+00  1.00800000E+00  0.00000000E+00  1.60000000E+01
  1.00800000E+00  1.00800000E+00  0.00000000E+00  1.60000000E+01  1.00800000E+00
  1.00800000E+00  0.00000000E+00  1.60000000E+01  1.00800000E+00  1.00800000E+00
  0.00000000E+00  1.60000000E+01  1.00800000E+00  1.00800000E+00  0.00000000E+00
  1.60000000E+01  1.00800000E+00  1.00800000E+00  0.00000000E+00  1.60000000E+01
  1.00800000E+00  1.00800000E+00  0.00000000E+00  1.60000000E+01  1.00800000E+00
  1.00800000E+00  0.00000000E+00  1.60000000E+01  1.00800000E+00  1.00800000E+00
  0.00000000E+00  1.60000000E+01  1.00800000E+00  1.00800000E+00  0.00000000E+00
  1.60000000E+01  1.00800000E+00  1.00800000E+00  0.00000000E+00  1.60000000E+01
  1.00800000E+00  1.00800000E+00  0.00000000E+00  1.60000000E+01  1.00800000E+00
  1.00800000E+00  0.00000000E+00  1.60000000E+01  1.00800000E+00  1.00800000E+00
  0.00000000E+00  1.60000000E+01  1.00800000E+00  1.00800000E+00  0.00000000E+00
  1.60000000E+01  1.00800000E+00  1.00800000E+00  0.00000000E+00  1.60000000E+01
  1.00800000E+00  1.00800000E+00  0.00000000E+00  1.60000000E+01  1.00800000E+00
  1.00800000E+00  0.00000000E+00  1.60000000E+01  1.00800000E+00  1.00800000E+00
  0.00000000E+00  1.60000000E+01  1.00800000E+00  1.00800000E+00  0.00000000E+00
  1.60000000E+01  1.00800000E+00  1.00800000E+00  0.00000000E+00  1.60000000E+01
  1.00800000E+00  1.00800000E+00  0.00000000E+00  1.60000000E+01  1.00800000E+00
  1.00800000E+00  0.00000000E+00  1.60000000E+01  1.00800000E+00  1.00800000E+00
  0.00000000E+00  1.60000000E+01  1.00800000E+00  1.00800000E+00  0.00000000E+00
  1.60000000E+01  1.00800000E+00  1.00800000E+00  0.00000000E+00  1.60000000E+01
  1.00800000E+00  1.00800000E+00  0.00000000E+00  1.60000000E+01  1.00800000E+00
  1.00800000E+00  0.00000000E+00  1.60000000E+01  1.00800000E+00  1.00800000E+00
  0.00000000E+00  1.60000000E+01  1.00800000E+00  1.00800000E+00  0.00000000E+00
  1.60000000E+01  1.00800000E+00  1.00800000E+00  0.00000000E+00  1.60000000E+01
  1.00800000E+00  1.00800000E+00  0.00000000E+00  1.60000000E+01  1.00800000E+00
  1.00800000E+00  0.00000000E+00  1.60000000E+01  1.00800000E+00  1.00800000E+00
  0.00000000E+00  1.60000000E+01  1.00800000E+00  1.00800000E+00  0.00000000E+00
  1.60000000E+01  1.00800000E+00  1.00800000E+00  0.00000000E+00  1.60000000E+01
  1.00800000E+00  1.00800000E+00  0.00000000E+00  1.60000000E+01  1.00800000E+00
  1.00800000E+00  0.00000000E+00  1.60000000E+01  1.00800000E+00  1.00800000E+00
  0.00000000E+00  1.60000000E+01  1.00800000E+00  1.00800000E+00  0.00000000E+00
  1.60000000E+01  1.00800000E+00  1.00800000E+00  0.00000000E+00  1.60000000E+01
  1.00800000E+00  1.00800000E+00  0.00000000E+00  1.60000000E+01  1.00800000E+00
  1.00800000E+00  0.00000000E+00  1.60000000E+01  1.00800000E+00  1.00800000E+00
  0.00000000E+00  1.60000000E+01  1.00800000E+00  1.00800000E+00  0.00000000E+00
  1.60000000E+01  1.00800000E+00  1.00800000E+00  0.00000000E+00  1.60000000E+01
  1.00800000E+00  1.00800000E+00  0.00000000E+00  1.60000000E+01  1.00800000E+00
  1.00800000E+00  0.00000000E+00  1.60000000E+01  1.00800000E+00  1.00800000E+00
  0.00000000E+00  1.60000000E+01  1.00800000E+00  1.00800000E+00  0.00000000E+00
  1.60000000E+01  1.00800000E+00  1.00800000E+00  0.00000000E+00  1.60000000E+01
  1.00800000E+00  1.00800000E+00  0.00000000E+00  1.60000000E+01  1.00800000E+00
  1.00800000E+00  0.00000000E+00  1.60000000E+01  1.00800000E+00  1.00800000E+00
  0.00000000E+00  1.60000000E+01  1.00800000E+00  1.00800000E+00  0.00000000E+00
  1.60000000E+01  1.00800000E+00  1.00800000E+00  0.00000000E+00  1.60000000E+01
  1.00800000E+00  1.00800000E+00  0.00000000E+00  1.60000000E+01  1.00800000E+00
  1.00800000E+00  0.00000000E+00  1.60000000E+01  1.00800000E+00  1.00800000E+00
  0.00000000E+00  1.60000000E+01  1.00800000E+00  1.00800000E+00  0.00000000E+00
  1.60000000E+01  1.00800000E+00  1.00800000E+00  0.00000000E+00  1.60000000E+01
  1.00800000E+00  1.00800000E+00  0.00000000E+00  1.60000000E+01  1.00800000E+00
  1.00800000E+00  0.00000000E+00  1.60000000E+01  1.00800000E+00  1.00800000E+00
  0.00000000E+00  1.60000000E+01  1.00800000E+00  1.00800000E+00  0.00000000E+00
  1.60000000E+01  1.00800000E+00  1.00800000E+00  0.00000000E+00  1.60000000E+01
  1.00800000E+00  1.00800000E+00  0.00000000E+00  1.60000000E+01  1.00800000E+00
  1.00800000E+00  0.00000000E+00  1.60000000E+01  1.00800000E+00  1.00800000E+00
  0.00000000E+00  1.60000000E+01  1.00800000E+00  1.00800000E+00  0.00000000E+00
  1.60000000E+01  1.00800000E+00  1.00800000E+00  0.00000000E+00  1.60000000E+01
  1.00800000E+00  1.00800000E+00  0.00000000E+00  1.60000000E+01  1.00800000E+00
  1.00800000E+00  0.00000000E+00  1.60000000E+01  1.00800000E+00  1.00800000E+00
  0.00000000E+00  1.60000000E+01  1.00800000E+00  1.00800000E+00  0.00000000E+00
  1.60000000E+01  1.00800000E+00  1.00800000E+00  0.00000000E+00  1.60000000E+01
  1.00800000E+00  1.00800000E+00  0.00000000E+00  1.60000000E+01  1.00800000E+00
  1.00800000E+00  0.00000000E+00  1.60000000E+01  1.00800000E+00  1.00800000E+00
  0.00000000E+00  1.60000000E+01  1.00800000E+00  1.00800000E+00  0.00000000E+00
  1.60000000E+01  1.00800000E+00  1.00800000E+00  0.00000000E+00  1.60000000E+01
  1.00800000E+00  1.00800000E+00  0.00000000E+00  1.60000000E+01  1.00800000E+00
  1.00800000E+00  0.00000000E+00  1.60000000E+01  1.00800000E+00  1.00800000E+00
  0.00000000E+00  1.60000000E+01  1.00800000E+00  1.00800000E+00  0.00000000E+00
  1.60000000E+01  1.00800000E+00  1.00800000E+00  0.00000000E+00  1.60000000E+01
  1.00800000E+00  1.00800000E+00  0.00000000E+00  1.60000000E+01  1.00800000E+00
  1.00800000E+00  0.00000000E+00  1.60000000E+01  1.00800000E+00  1.00800000E+00
  0.00000000E+00  1.60000000E+01  1.00800000E+00  1.00800000E+00  0.00000000E+00
  1.60000000E+01  1.00800000E+00  1.00800000E+00  0.00000000E+00  1.60000000E+01
  1.00800000E+00  1.00800000E+00  0.00000000E+00  1.60000000E+01  1.00800000E+00
  1.00800000E+00  0.00000000E+00  1.60000000E+01  1.00800000E+00  1.00800000E+00
  0.00000000E+00  1.60000000E+01  1.00800000E+00  1.00800000E+00  0.00000000E+00
  1.60000000E+01  1.00800000E+00  1.00800000E+00  0.00000000E+00  1.60000000E+01
  1.00800000E+00  1.00800000E+00  0.00000000E+00  1.60000000E+01  1.00800000E+00
  1.00800000E+00  0.00000000E+00  1.60000000E+01  1.00800000E+00  1.00800000E+00
  0.00000000E+00  1.60000000E+01  1.00800000E+00  1.00800000E+00  0.00000000E+00
  1.60000000E+01  1.00800000E+00  1.00800000E+00  0.00000000E+00  1.60000000E+01
  1.00800000E+00  1.00800000E+00  0.00000000E+00  1.60000000E+01  1.00800000E+00
  1.00800000E+00  0.00000000E+00  1.60000000E+01  1.00800000E+00  1.00800000E+00
  0.00000000E+00  1.60000000E+01  1.00800000E+00  1.00800000E+00  0.00000000E+00
  1.60000000E+01  1.00800000E+00  1.00800000E+00  0.00000000E+00  1.60000000E+01
  1.00800000E+00  1.00800000E+00  0.00000000E+00  1.60000000E+01  1.00800000E+00
  1.00800000E+00  0.00000000E+00  1.60000000E+01  1.00800000E+00  1.00800000E+00
  0.00000000E+00  1.60000000E+01  1.00800000E+00  1.00800000E+00  0.00000000E+00
  1.60000000E+01  1.00800000E+00  1.00800000E+00  0.00000000E+00  1.60000000E+01
  1.00800000E+00  1.00800000E+00  0.00000000E+00  1.60000000E+01  1.00800000E+00
  1.00800000E+00  0.00000000E+00  1.60000000E+01  1.00800000E+00  1.00800000E+00
  0.00000000E+00  1.60000000E+01  1.00800000E+00  1.00800000E+00  0.00000000E+00
  1.60000000E+01  1.00800000E+00  1.00800000E+00  0.00000000E+00  1.60000000E+01
  1.00800000E+00  1.00800000E+00  0.00000000E+00  1.60000000E+01  1.00800000E+00
  1.00800000E+00  0.00000000E+00  1.60000000E+01  1.00800000E+00  1.00800000E+00
  0.00000000E+00  1.60000000E+01  1.00800000E+00  1.00800000E+00  0.00000000E+00
  1.60000000E+01  1.00800000E+00  1.00800000E+00  0.00000000E+00  1.60000000E+01
  1.00800000E+00  1.00800000E+00  0.00000000E+00  1.60000000E+01  1.00800000E+00
  1.00800000E+00  0.00000000E+00  1.60000000E+01  1.00800000E+00  1.00800000E+00
  0.00000000E+00  1.60000000E+01  1.00800000E+00  1.00800000E+00  0.00000000E+00
  1.60000000E+01  1.00800000E+00  1.00800000E+00  0.00000000E+00  1.60000000E+01
  1.00800000E+00  1.00800000E+00  0.00000000E+00  1.60000000E+01  1.00800000E+00
  1.00800000E+00  0.00000000E+00  1.60000000E+01  1.00800000E+00  1.00800000E+00
  0.00000000E+00  1.60000000E+01  1.00800000E+00  1.00800000E+00  0.00000000E+00
  1.60000000E+01  1.00800000E+00  1.00800000E+00  0.00000000E+00  1.60000000E+01
  1.00800000E+00  1.00800000E+00  0.00000000E+00  1.60000000E+01  1.00800000E+00
  1.00800000E+00  0.00000000E+00  1.60000000E+01  1.00800000E+00  1.00800000E+00
  0.00000000E+00  1.60000000E+01  1.00800000E+00  1.00800000E+00  0.00000000E+00
  1.60000000E+01  1.00800000E+00  1.00800000E+00  0.00000000E+00  1.60000000E+01
  1.00800000E+00  1.00800000E+00  0.00000000E+00  1.60000000E+01  1.00800000E+00
  1.00800000E+00  0.00000000E+00  1.60000000E+01  1.00800000E+00  1.00800000E+00
  0.00000000E+00  1.60000000E+01  1.00800000E+00  1.00800000E+00  0.00000000E+00
  1.60000000E+01  1.00800000E+00  1.00800000E+00  0.00000000E+00  1.60000000E+01
  1.00800000E+00  1.00800000E+00  0.00000000E+00  1.60000000E+01  1.00800000E+00
  1.00800000E+00  0.00000000E+00  1.60000000E+01  1.00800000E+00  1.00800000E+00
  0.00000000E+00  1.60000000E+01  1.00800000E+00  1.00800000E+00  0.00000000E+00
  1.60000000E+01  1.00800000E+00  1.00800000E+00  0.00000000E+00  1.60000000E+01
  1.00800000E+00  1.00800000E+00  0.00000000E+00  1.60000000E+01  1.00800000E+00
  1.00800000E+00  0.00000000E+00  1.60000000E+01  1.00800000E+00  1.00800000E+00
  0.00000000E+00  1.60000000E+01  1.00800000E+00  1.00800000E+00  0.00000000E+00
  1.60000000E+01  1.00800000E+00  1.00800000E+00  0.00000000E+00  1.60000000E+01
  1.00800000E+00  1.00800000E+00  0.00000000E+00  1.60000000E+01  1.00800000E+00
  1.00800000E+00  0.00000000E+00  1.60000000E+01  1.00800000E+00  1.00800000E+00
  0.00000000E+00  1.60000000E+01  1.00800000E+00  1.00800000E+00  0.00000000E+00
  1.60000000E+01  1.00800000E+00  1.00800000E+00  0.00000000E+00  1.60000000E+01
  1.00800000E+00  1.00800000E+00  0.00000000E+00  1.60000000E+01  1.00800000E+00
  1.00800000E+00  0.00000000E+00  1.60000000E+01  1.00800000E+00  1.00800000E+00
  0.00000000E+00  1.60000000E+01  1.00800000E+00  1.00800000E+00  0.00000000E+00
  1.60000000E+01  1.00800000E+00  1.00800000E+00  0.00000000E+00  1.60000000E+01
  1.00800000E+00  1.00800000E+00  0.00000000E+00  1.60000000E+01  1.00800000E+00
  1.00800000E+00  0.00000000E+00  1.60000000E+01  1.00800000E+00  1.00800000E+00
  0.00000000E+00  1.60000000E+01  1.00800000E+00  1.00800000E+00  0.00000000E+00
  1.60000000E+01  1.00800000E+00  1.00800000E+00  0.00000000E+00  1.60000000E+01
  1.00800000E+00  1.00800000E+00  0.00000000E+00  1.60000000E+01  1.00800000E+00
  1.00800000E+00  0.00000000E+00  1.60000000E+01  1.00800000E+00  1.00800000E+00
  0.00000000E+00  1.60000000E+01  1.00800000E+00  1.00800000E+00  0.00000000E+00
  1.60000000E+01  1.00800000E+00  1.00800000E+00  0.00000000E+00  1.60000000E+01
  1.00800000E+00  1.00800000E+00  0.00000000E+00  1.60000000E+01  1.00800000E+00
  1.00800000E+00  0.00000000E+00  1.60000000E+01  1.00800000E+00  1.00800000E+00
  0.00000000E+00  1.60000000E+01  1.00800000E+00  1.00800000E+00  0.00000000E+00
  1.60000000E+01  1.00800000E+00  1.00800000E+00  0.00000000E+00  1.60000000E+01
  1.00800000E+00  1.00800000E+00  0.00000000E+00  1.60000000E+01  1.00800000E+00
  1.00800000E+00  0.00000000E+00  1.60000000E+01  1.00800000E+00  1.00800000E+00
  0.00000000E+00  1.60000000E+01  1.00800000E+00  1.00800000E+00  0.00000000E+00
  1.60000000E+01  1.00800000E+00  1.00800000E+00  0.00000000E+00  1.60000000E+01
  1.00800000E+00  1.00800000E+00  0.00000000E+00  1.60000000E+01  1.00800000E+00
  1.00800000E+00  0.00000000E+00  1.60000000E+01  1.00800000E+00  1.00800000E+00
  0.00000000E+00  1.60000000E+01  1.00800000E+00  1.00800000E+00  0.00000000E+00
  1.60000000E+01  1.00800000E+00  1.00800000E+00  0.00000000E+00  1.60000000E+01
  1.00800000E+00  1.00800000E+00  0.00000000E+00  1.60000000E+01  1.00800000E+00
  1.00800000E+00  0.00000000E+00  1.60000000E+01  1.00800000E+00  1.00800000E+00
  0.00000000E+00  1.60000000E+01  1.00800000E+00  1.00800000E+00  0.00000000E+00
  1.60000000E+01  1.00800000E+00  1.00800000E+00  0.00000000E+00  1.60000000E+01
  1.00800000E+00  1.00800000E+00  0.00000000E+00  1.60000000E+01  1.00800000E+00
  1.00800000E+00  0.00000000E+00  1.60000000E+01  1.00800000E+00  1.00800000E+00
  0.00000000E+00  1.60000000E+01  1.00800000E+00  1.00800000E+00  0.00000000E+00
  1.60000000E+01  1.00800000E+00  1.00800000E+00  0.00000000E+00  1.60000000E+01
  1.00800000E+00  1.00800000E+00  0.00000000E+00  1.60000000E+01  1.00800000E+00
  1.00800000E+00  0.00000000E+00  1.60000000E+01  1.00800000E+00  1.00800000E+00
  0.00000000E+00  1.60000000E+01  1.00800000E+00  1.00800000E+00  0.00000000E+00
  1.60000000E+01  1.00800000E+00  1.00800000E+00  0.00000000E+00  1.60000000E+01
  1.00800000E+00  1.00800000E+00  0.00000000E+00  1.60000000E+01  1.00800000E+00
  1.00800000E+00  0.00000000E+00  1.60000000E+01  1.00800000E+00  1.00800000E+00
  0.00000000E+00  1.60000000E+01  1.00800000E+00  1.00800000E+00  0.00000000E+00
  1.60000000E+01  1.00800000E+00  1.00800000E+00  0.00000000E+00  1.60000000E+01
  1.00800000E+00  1.00800000E+00  0.00000000E+00  1.60000000E+01  1.00800000E+00
  1.00800000E+00  0.00000000E+00  1.60000000E+01  1.00800000E+00  1.00800000E+00
  0.00000000E+00  1.60000000E+01  1.00800000E+00  1.00800000E+00  0.00000000E+00
  1.60000000E+01  1.00800000E+00  1.00800000E+00  0.00000000E+00  1.60000000E+01
  1.00800000E+00  1.00800000E+00  0.00000000E+00  1.60000000E+01  1.00800000E+00
  1.00800000E+00  0.00000000E+00  1.60000000E+01  1.00800000E+00  1.00800000E+00
  0.00000000E+00  1.60000000E+01  1.00800000E+00  1.00800000E+00  0.00000000E+00
  1.60000000E+01  1.00800000E+00  1.00800000E+00  0.00000000E+00  1.60000000E+01
  1.00800000E+00  1.00800000E+00  0.00000000E+00  1.60000000E+01  1.00800000E+00
  1.00800000E+00  0.00000000E+00  1.60000000E+01  1.00800000E+00  1.00800000E+00
  0.00000000E+00  1.60000000E+01  1.00800000E+00  1.00800000E+00  0.00000000E+00
  1.60000000E+01  1.00800000E+00  1.00800000E+00  0.00000000E+00  1.60000000E+01
  1.00800000E+00  1.00800000E+00  0.00000000E+00  1.60000000E+01  1.00800000E+00
  1.00800000E+00  0.00000000E+00  1.60000000E+01  1.00800000E+00  1.00800000E+00
  0.00000000E+00  1.60000000E+01  1.00800000E+00  1.00800000E+00  0.00000000E+00
  1.60000000E+01  1.00800000E+00  1.00800000E+00  0.00000000E+00  1.60000000E+01
  1.00800000E+00  1.00800000E+00  0.00000000E+00  1.60000000E+01  1.00800000E+00
  1.00800000E+00  0.00000000E+00  1.60000000E+01  1.00800000E+00  1.00800000E+00
  0.00000000E+00  1.60000000E+01  1.00800000E+00  1.00800000E+00  0.00000000E+00
  1.60000000E+01  1.00800000E+00  1.00800000E+00  0.00000000E+00  1.60000000E+01
  1.00800000E+00  1.00800000E+00  0.00000000E+00  1.60000000E+01  1.00800000E+00
  1.00800000E+00  0.00000000E+00  1.60000000E+01  1.00800000E+00  1.00800000E+00
  0.00000000E+00  1.60000000E+01  1.00800000E+00  1.00800000E+00  0.00000000E+00
  1.60000000E+01  1.00800000E+00  1.00800000E+00  0.00000000E+00  1.60000000E+01
  1.00800000E+00  1.00800000E+00  0.00000000E+00  1.60000000E+01  1.00800000E+00
  1.00800000E+00  0.00000000E+00  1.60000000E+01  1.00800000E+00  1.00800000E+00
  0.00000000E+00  1.60000000E+01  1.00800000E+00  1.00800000E+00  0.00000000E+00
  1.60000000E+01  1.00800000E+00  1.00800000E+00  0.00000000E+00  1.60000000E+01
  1.00800000E+00  1.00800000E+00  0.00000000E+00  1.60000000E+01  1.00800000E+00
  1.00800000E+00  0.00000000E+00  1.60000000E+01  1.00800000E+00  1.00800000E+00
  0.00000000E+00  1.60000000E+01  1.00800000E+00  1.00800000E+00  0.00000000E+00
  1.60000000E+01  1.00800000E+00  1.00800000E+00  0.00000000E+00  1.60000000E+01
  1.00800000E+00  1.00800000E+00  0.00000000E+00  1.60000000E+01  1.00800000E+00
  1.00800000E+00  0.00000000E+00  1.60000000E+01  1.00800000E+00  1.00800000E+00
  0.00000000E+00  1.60000000E+01  1.00800000E+00  1.00800000E+00  0.00000000E+00
  1.60000000E+01  1.00800000E+00  1.00800000E+00  0.00000000E+00  1.60000000E+01
  1.00800000E+00  1.00800000E+00  0.00000000E+00  1.60000000E+01  1.00800000E+00
  1.00800000E+00  0.00000000E+00  1.60000000E+01  1.00800000E+00  1.00800000E+00
  0.00000000E+00  1.60000000E+01  1.00800000E+00  1.00800000E+00  0.00000000E+00
  1.60000000E+01  1.00800000E+00  1.00800000E+00  0.00000000E+00  1.60000000E+01
  1.00800000E+00  1.00800000E+00  0.00000000E+00  1.60000000E+01  1.00800000E+00
  1.00800000E+00  0.00000000E+00  1.60000000E+01  1.00800000E+00  1.00800000E+00
  0.00000000E+00  1.60000000E+01  1.00800000E+00  1.00800000E+00  0.00000000E+00
  1.60000000E+01  1.00800000E+00  1.00800000E+00  0.00000000E+00  1.60000000E+01
  1.00800000E+00  1.00800000E+00  0.00000000E+00  1.60000000E+01  1.00800000E+00
  1.00800000E+00  0.00000000E+00  1.60000000E+01  1.00800000E+00  1.00800000E+00
  0.00000000E+00  1.60000000E+01  1.00800000E+00  1.00800000E+00  0.00000000E+00
  1.60000000E+01  1.00800000E+00  1.00800000E+00  0.00000000E+00  1.60000000E+01
  1.00800000E+00  1.00800000E+00  0.00000000E+00  1.60000000E+01  1.00800000E+00
  1.00800000E+00  0.00000000E+00  1.60000000E+01  1.00800000E+00  1.00800000E+00
  0.00000000E+00  1.60000000E+01  1.00800000E+00  1.00800000E+00  0.00000000E+00
  1.60000000E+01  1.00800000E+00  1.00800000E+00  0.00000000E+00  1.60000000E+01
  1.00800000E+00  1.00800000E+00  0.00000000E+00  1.60000000E+01  1.00800000E+00
  1.00800000E+00  0.00000000E+00  1.60000000E+01  1.00800000E+00  1.00800000E+00
  0.00000000E+00  1.60000000E+01  1.00800000E+00  1.00800000E+00  0.00000000E+00
  1.60000000E+01  1.00800000E+00  1.00800000E+00  0.00000000E+00  1.60000000E+01
  1.00800000E+00  1.00800000E+00  0.00000000E+00  1.60000000E+01  1.00800000E+00
  1.00800000E+00  0.00000000E+00  1.60000000E+01  1.00800000E+00  1.00800000E+00
  0.00000000E+00  1.60000000E+01  1.00800000E+00  1.00800000E+00  0.00000000E+00
  1.60000000E+01  1.00800000E+00  1.00800000E+00  0.00000000E+00  1.60000000E+01
  1.00800000E+00  1.00800000E+00  0.00000000E+00  1.60000000E+01  1.00800000E+00
  1.00800000E+00  0.00000000E+00  1.60000000E+01  1.00800000E+00  1.00800000E+00
  0.00000000E+00  1.60000000E+01  1.00800000E+00  1.00800000E+00  0.00000000E+00
  1.60000000E+01  1.00800000E+00  1.00800000E+00  0.00000000E+00  1.60000000E+01
  1.00800000E+00  1.00800000E+00  0.00000000E+00  1.60000000E+01  1.00800000E+00
  1.00800000E+00  0.00000000E+00  1.60000000E+01  1.00800000E+00  1.00800000E+00
  0.00000000E+00  1.60000000E+01  1.00800000E+00  1.00800000E+00  0.00000000E+00
  1.60000000E+01  1.00800000E+00  1.00800000E+00  0.00000000E+00  1.60000000E+01
  1.00800000E+00  1.00800000E+00  0.00000000E+00  1.60000000E+01  1.00800000E+00
  1.00800000E+00  0.00000000E+00  1.60000000E+01  1.00800000E+00  1.00800000E+00
  0.00000000E+00  1.60000000E+01  1.00800000E+00  1.00800000E+00  0.00000000E+00
  1.60000000E+01  1.00800000E+00  1.00800000E+00  0.00000000E+00  1.60000000E+01
  1.00800000E+00  1.00800000E+00  0.00000000E+00  1.60000000E+01  1.00800000E+00
  1.00800000E+00  0.00000000E+00  1.60000000E+01  1.00800000E+00  1.00800000E+00
  0.00000000E+00  1.60000000E+01  1.00800000E+00  1.00800000E+00  0.00000000E+00
  1.60000000E+01  1.00800000E+00  1.00800000E+00  0.00000000E+00  1.60000000E+01
  1.00800000E+00  1.00800000E+00  0.00000000E+00  1.60000000E+01  1.00800000E+00
  1.00800000E+00  0.00000000E+00  1.60000000E+01  1.00800000E+00  1.00800000E+00
  0.00000000E+00  1.60000000E+01  1.00800000E+00  1.00800000E+00  0.00000000E+00
  1.60000000E+01  1.00800000E+00  1.00800000E+00  0.00000000E+00  1.60000000E+01
  1.00800000E+00  1.00800000E+00  0.00000000E+00  1.60000000E+01  1.00800000E+00
  1.00800000E+00  0.00000000E+00  1.60000000E+01  1.00800000E+00  1.00800000E+00
  0.00000000E+00  1.60000000E+01  1.00800000E+00  1.00800000E+00  0.00000000E+00
  1.60000000E+01  1.00800000E+00  1.00800000E+00  0.00000000E+00  1.60000000E+01
  1.00800000E+00  1.00800000E+00  0.00000000E+00  1.60000000E+01  1.00800000E+00
  1.00800000E+00  0.00000000E+00  1.60000000E+01  1.00800000E+00  1.00800000E+00
  0.00000000E+00  1.60000000E+01  1.00800000E+00  1.00800000E+00  0.00000000E+00
  1.60000000E+01  1.00800000E+00  1.00800000E+00  0.00000000E+00  1.60000000E+01
  1.00800000E+00  1.00800000E+00  0.00000000E+00  1.60000000E+01  1.00800000E+00
  1.00800000E+00  0.00000000E+00  1.60000000E+01  1.00800000E+00  1.00800000E+00
  0.00000000E+00  1.60000000E+01  1.00800000E+00  1.00800000E+00  0.00000000E+00
  1.60000000E+01  1.00800000E+00  1.00800000E+00  0.00000000E+00  1.60000000E+01
  1.00800000E+00  1.00800000E+00  0.00000000E+00  1.60000000E+01  1.00800000E+00
  1.00800000E+00  0.00000000E+00  1.60000000E+01  1.00800000E+00  1.00800000E+00
  0.00000000E+00  1.60000000E+01  1.00800000E+00  1.00800000E+00  0.00000000E+00
  1.60000000E+01  1.00800000E+00  1.00800000E+00  0.00000000E+00  1.60000000E+01
  1.00800000E+00  1.00800000E+00  0.00000000E+00  1.60000000E+01  1.00800000E+00
  1.00800000E+00  0.00000000E+00  1.60000000E+01  1.00800000E+00  1.00800000E+00
  0.00000000E+00  1.60000000E+01  1.00800000E+00  1.00800000E+00  0.00000000E+00
  1.60000000E+01  1.00800000E+00  1.00800000E+00  0.00000000E+00  1.60000000E+01
  1.00800000E+00  1.00800000E+00  0.00000000E+00  1.60000000E+01  1.00800000E+00
  1.00800000E+00  0.00000000E+00  1.60000000E+01  1.00800000E+00  1.00800000E+00
  0.00000000E+00  1.60000000E+01  1.00800000E+00  1.00800000E+00  0.00000000E+00
  1.60000000E+01  1.00800000E+00  1.00800000E+00  0.00000000E+00  1.60000000E+01
  1.00800000E+00  1.00800000E+00  0.00000000E+00  1.60000000E+01  1.00800000E+00
  1.00800000E+00  0.00000000E+00  1.60000000E+01  1.00800000E+00  1.00800000E+00
  0.00000000E+00  1.60000000E+01  1.00800000E+00  1.00800000E+00  0.00000000E+00
  1.60000000E+01  1.00800000E+00  1.00800000E+00  0.00000000E+00  1.60000000E+01
  1.00800000E+00  1.00800000E+00  0.00000000E+00  1.60000000E+01  1.00800000E+00
  1.00800000E+00  0.00000000E+00  1.60000000E+01  1.00800000E+00  1.00800000E+00
  0.00000000E+00  1.60000000E+01  1.00800000E+00  1.00800000E+00  0.00000000E+00
  1.60000000E+01  1.00800000E+00  1.00800000E+00  0.00000000E+00  1.60000000E+01
  1.00800000E+00  1.00800000E+00  0.00000000E+00  1.60000000E+01  1.00800000E+00
  1.00800000E+00  0.00000000E+00  1.60000000E+01  1.00800000E+00  1.00800000E+00
  0.00000000E+00  1.60000000E+01  1.00800000E+00  1.00800000E+00  0.00000000E+00
  1.60000000E+01  1.00800000E+00  1.00800000E+00  0.00000000E+00  1.60000000E+01
  1.00800000E+00  1.00800000E+00  0.00000000E+00  1.60000000E+01  1.00800000E+00
  1.00800000E+00  0.00000000E+00  1.60000000E+01  1.00800000E+00  1.00800000E+00
  0.00000000E+00  1.60000000E+01  1.00800000E+00  1.00800000E+00  0.00000000E+00
  1.60000000E+01  1.00800000E+00  1.00800000E+00  0.00000000E+00  1.60000000E+01
  1.00800000E+00  1.00800000E+00  0.00000000E+00  1.60000000E+01  1.00800000E+00
  1.00800000E+00  0.00000000E+00  1.60000000E+01  1.00800000E+00  1.00800000E+00
  0.00000000E+00  1.60000000E+01  1.00800000E+00  1.00800000E+00  0.00000000E+00
  1.60000000E+01  1.00800000E+00  1.00800000E+00  0.00000000E+00  1.60000000E+01
  1.00800000E+00  1.00800000E+00  0.00000000E+00  1.60000000E+01  1.00800000E+00
  1.00800000E+00  0.00000000E+00  1.60000000E+01  1.00800000E+00  1.00800000E+00
  0.00000000E+00  1.60000000E+01  1.00800000E+00  1.00800000E+00  0.00000000E+00
  1.60000000E+01  1.00800000E+00  1.00800000E+00  0.00000000E+00  1.60000000E+01
  1.00800000E+00  1.00800000E+00  0.00000000E+00  1.60000000E+01  1.00800000E+00
  1.00800000E+00  0.00000000E+00  1.60000000E+01  1.00800000E+00  1.00800000E+00
  0.00000000E+00  1.60000000E+01  1.00800000E+00  1.00800000E+00  0.00000000E+00
  1.60000000E+01  1.00800000E+00  1.00800000E+00  0.00000000E+00  1.60000000E+01
  1.00800000E+00  1.00800000E+00  0.00000000E+00  1.60000000E+01  1.00800000E+00
  1.00800000E+00  0.00000000E+00  1.60000000E+01  1.00800000E+00  1.00800000E+00
  0.00000000E+00  1.60000000E+01  1.00800000E+00  1.00800000E+00  0.00000000E+00
  1.60000000E+01  1.00800000E+00  1.00800000E+00  0.00000000E+00  1.60000000E+01
  1.00800000E+00  1.00800000E+00  0.00000000E+00  1.60000000E+01  1.00800000E+00
  1.00800000E+00  0.00000000E+00  1.60000000E+01  1.00800000E+00  1.00800000E+00
  0.00000000E+00  1.60000000E+01  1.00800000E+00  1.00800000E+00  0.00000000E+00
  1.60000000E+01  1.00800000E+00  1.00800000E+00  0.00000000E+00  1.60000000E+01
  1.00800000E+00  1.00800000E+00  0.00000000E+00  1.60000000E+01  1.00800000E+00
  1.00800000E+00  0.00000000E+00  1.60000000E+01  1.00800000E+00  1.00800000E+00
  0.00000000E+00  1.60000000E+01  1.00800000E+00  1.00800000E+00  0.00000000E+00
  1.60000000E+01  1.00800000E+00  1.00800000E+00  0.00000000E+00  1.60000000E+01
  1.00800000E+00  1.00800000E+00  0.00000000E+00  1.60000000E+01  1.00800000E+00
  1.00800000E+00  0.00000000E+00  1.60000000E+01  1.00800000E+00  1.00800000E+00
  0.00000000E+00  1.60000000E+01  1.00800000E+00  1.00800000E+00  0.00000000E+00
  1.60000000E+01  1.00800000E+00  1.00800000E+00  0.00000000E+00  1.60000000E+01
  1.00800000E+00  1.00800000E+00  0.00000000E+00  1.60000000E+01  1.00800000E+00
  1.00800000E+00  0.00000000E+00  1.60000000E+01  1.00800000E+00  1.00800000E+00
  0.00000000E+00  1.60000000E+01  1.00800000E+00  1.00800000E+00  0.00000000E+00
  1.60000000E+01  1.00800000E+00  1.00800000E+00  0.00000000E+00  1.60000000E+01
  1.00800000E+00  1.00800000E+00  0.00000000E+00  1.60000000E+01  1.00800000E+00
  1.00800000E+00  0.00000000E+00  1.60000000E+01  1.00800000E+00  1.00800000E+00
  0.00000000E+00  1.60000000E+01  1.00800000E+00  1.00800000E+00  0.00000000E+00
  1.60000000E+01  1.00800000E+00  1.00800000E+00  0.00000000E+00  1.60000000E+01
  1.00800000E+00  1.00800000E+00  0.00000000E+00  1.60000000E+01  1.00800000E+00
  1.00800000E+00  0.00000000E+00  1.60000000E+01  1.00800000E+00  1.00800000E+00
  0.00000000E+00  1.60000000E+01  1.00800000E+00  1.00800000E+00  0.00000000E+00
  1.60000000E+01  1.00800000E+00  1.00800000E+00  0.00000000E+00  1.60000000E+01
  1.00800000E+00  1.00800000E+00  0.00000000E+00  1.60000000E+01  1.00800000E+00
  1.00800000E+00  0.00000000E+00  1.60000000E+01  1.00800000E+00  1.00800000E+00
  0.00000000E+00  1.60000000E+01  1.00800000E+00  1.00800000E+00  0.00000000E+00
  1.60000000E+01  1.00800000E+00  1.00800000E+00  0.00000000E+00  1.60000000E+01
  1.00800000E+00  1.00800000E+00  0.00000000E+00  1.60000000E+01  1.00800000E+00
  1.00800000E+00  0.00000000E+00  1.60000000E+01  1.00800000E+00  1.00800000E+00
  0.00000000E+00  1.60000000E+01  1.00800000E+00  1.00800000E+00  0.00000000E+00
  1.60000000E+01  1.00800000E+00  1.00800000E+00  0.00000000E+00  1.60000000E+01
  1.00800000E+00  1.00800000E+00  0.00000000E+00  1.60000000E+01  1.00800000E+00
  1.00800000E+00  0.00000000E+00  1.60000000E+01  1.00800000E+00  1.00800000E+00
  0.00000000E+00  1.60000000E+01  1.00800000E+00  1.00800000E+00  0.00000000E+00
  1.60000000E+01  1.00800000E+00  1.00800000E+00  0.00000000E+00  1.60000000E+01
  1.00800000E+00  1.00800000E+00  0.00000000E+00  1.60000000E+01  1.00800000E+00
  1.00800000E+00  0.00000000E+00  1.60000000E+01  1.00800000E+00  1.00800000E+00
  0.00000000E+00  1.60000000E+01  1.00800000E+00  1.00800000E+00  0.00000000E+00
  1.60000000E+01  1.00800000E+00  1.00800000E+00  0.00000000E+00  1.60000000E+01
  1.00800000E+00  1.00800000E+00  0.00000000E+00  1.60000000E+01  1.00800000E+00
  1.00800000E+00  0.00000000E+00  1.60000000E+01  1.00800000E+00  1.00800000E+00
  0.00000000E+00  1.60000000E+01  1.00800000E+00  1.00800000E+00  0.00000000E+00
  1.60000000E+01  1.00800000E+00  1.00800000E+00  0.00000000E+00  1.60000000E+01
  1.00800000E+00  1.00800000E+00  0.00000000E+00  1.60000000E+01  1.00800000E+00
  1.00800000E+00  0.00000000E+00  1.60000000E+01  1.00800000E+00  1.00800000E+00
  0.00000000E+00  1.60000000E+01  1.00800000E+00  1.00800000E+00  0.00000000E+00
  1.60000000E+01  1.00800000E+00  1.00800000E+00  0.00000000E+00  1.60000000E+01
  1.00800000E+00  1.00800000E+00  0.00000000E+00  1.60000000E+01  1.00800000E+00
  1.00800000E+00  0.00000000E+00  1.60000000E+01  1.00800000E+00  1.00800000E+00
  0.00000000E+00  1.60000000E+01  1.00800000E+00  1.00800000E+00  0.00000000E+00
  1.60000000E+01  1.00800000E+00  1.00800000E+00  0.00000000E+00  1.60000000E+01
  1.00800000E+00  1.00800000E+00  0.00000000E+00  1.60000000E+01  1.00800000E+00
  1.00800000E+00  0.00000000E+00  1.60000000E+01  1.00800000E+00  1.00800000E+00
  0.00000000E+00  1.60000000E+01  1.00800000E+00  1.00800000E+00  0.00000000E+00
  1.60000000E+01  1.00800000E+00  1.00800000E+00  0.00000000E+00  1.60000000E+01
  1.00800000E+00  1.00800000E+00  0.00000000E+00  1.60000000E+01  1.00800000E+00
  1.00800000E+00  0.00000000E+00  1.60000000E+01  1.00800000E+00  1.00800000E+00
  0.00000000E+00  1.60000000E+01  1.00800000E+00  1.00800000E+00  0.00000000E+00
  1.60000000E+01  1.00800000E+00  1.00800000E+00  0.00000000E+00  1.60000000E+01
  1.00800000E+00  1.00800000E+00  0.00000000E+00  1.60000000E+01  1.00800000E+00
  1.00800000E+00  0.00000000E+00  1.60000000E+01  1.00800000E+00  1.00800000E+00
  0.00000000E+00  1.60000000E+01  1.00800000E+00  1.00800000E+00  0.00000000E+00
  1.60000000E+01  1.00800000E+00  1.00800000E+00  0.00000000E+00  1.60000000E+01
  1.00800000E+00  1.00800000E+00  0.00000000E+00  1.60000000E+01  1.00800000E+00
  1.00800000E+00  0.00000000E+00  1.60000000E+01  1.00800000E+00  1.00800000E+00
  0.00000000E+00  1.60000000E+01  1.00800000E+00  1.00800000E+00  0.00000000E+00
  1.60000000E+01  1.00800000E+00  1.00800000E+00  0.00000000E+00  1.60000000E+01
  1.00800000E+00  1.00800000E+00  0.00000000E+00  1.60000000E+01  1.00800000E+00
  1.00800000E+00  0.00000000E+00  1.60000000E+01  1.00800000E+00  1.00800000E+00
  0.00000000E+00  1.60000000E+01  1.00800000E+00  1.00800000E+00  0.00000000E+00
  1.60000000E+01  1.00800000E+00  1.00800000E+00  0.00000000E+00  1.60000000E+01
  1.00800000E+00  1.00800000E+00  0.00000000E+00  1.60000000E+01  1.00800000E+00
  1.00800000E+00  0.00000000E+00  1.60000000E+01  1.00800000E+00  1.00800000E+00
  0.00000000E+00  1.60000000E+01  1.00800000E+00  1.00800000E+00  0.00000000E+00
  1.60000000E+01  1.00800000E+00  1.00800000E+00  0.00000000E+00  1.60000000E+01
  1.00800000E+00  1.00800000E+00  0.00000000E+00  1.60000000E+01  1.00800000E+00
  1.00800000E+00  0.00000000E+00  1.60000000E+01  1.00800000E+00  1.00800000E+00
  0.00000000E+00  1.60000000E+01  1.00800000E+00  1.00800000E+00  0.00000000E+00
  1.60000000E+01  1.00800000E+00  1.00800000E+00  0.00000000E+00  1.60000000E+01
  1.00800000E+00  1.00800000E+00  0.00000000E+00  1.60000000E+01  1.00800000E+00
  1.00800000E+00  0.00000000E+00  1.60000000E+01  1.00800000E+00  1.00800000E+00
  0.00000000E+00  1.60000000E+01  1.00800000E+00  1.00800000E+00  0.00000000E+00
  1.60000000E+01  1.00800000E+00  1.00800000E+00  0.00000000E+00  1.60000000E+01
  1.00800000E+00  1.00800000E+00  0.00000000E+00  1.60000000E+01  1.00800000E+00
  1.00800000E+00  0.00000000E+00  1.60000000E+01  1.00800000E+00  1.00800000E+00
  0.00000000E+00  1.60000000E+01  1.00800000E+00  1.00800000E+00  0.00000000E+00
  1.60000000E+01  1.00800000E+00  1.00800000E+00  0.00000000E+00  1.60000000E+01
  1.00800000E+00  1.00800000E+00  0.00000000E+00  1.60000000E+01  1.00800000E+00
  1.00800000E+00  0.00000000E+00  1.60000000E+01  1.00800000E+00  1.00800000E+00
  0.00000000E+00  1.60000000E+01  1.00800000E+00  1.00800000E+00  0.00000000E+00
  1.60000000E+01  1.00800000E+00  1.00800000E+00  0.00000000E+00  1.60000000E+01
  1.00800000E+00  1.00800000E+00  0.00000000E+00  1.60000000E+01  1.00800000E+00
  1.00800000E+00  0.00000000E+00  1.60000000E+01  1.00800000E+00  1.00800000E+00
  0.00000000E+00  1.60000000E+01  1.00800000E+00  1.00800000E+00  0.00000000E+00
  1.60000000E+01  1.00800000E+00  1.00800000E+00  0.00000000E+00  1.60000000E+01
  1.00800000E+00  1.00800000E+00  0.00000000E+00  1.60000000E+01  1.00800000E+00
  1.00800000E+00  0.00000000E+00  1.60000000E+01  1.00800000E+00  1.00800000E+00
  0.00000000E+00  1.60000000E+01  1.00800000E+00  1.00800000E+00  0.00000000E+00
  1.60000000E+01  1.00800000E+00  1.00800000E+00  0.00000000E+00  1.60000000E+01
  1.00800000E+00  1.00800000E+00  0.00000000E+00  1.60000000E+01  1.00800000E+00
  1.00800000E+00  0.00000000E+00  1.60000000E+01  1.00800000E+00  1.00800000E+00
  0.00000000E+00  1.60000000E+01  1.00800000E+00  1.00800000E+00  0.00000000E+00
  1.60000000E+01  1.00800000E+00  1.00800000E+00  0.00000000E+00  1.60000000E+01
  1.00800000E+00  1.00800000E+00  0.00000000E+00  1.60000000E+01  1.00800000E+00
  1.00800000E+00  0.00000000E+00  1.60000000E+01  1.00800000E+00  1.00800000E+00
  0.00000000E+00  1.60000000E+01  1.00800000E+00  1.00800000E+00  0.00000000E+00
  1.60000000E+01  1.00800000E+00  1.00800000E+00  0.00000000E+00  1.60000000E+01
  1.00800000E+00  1.00800000E+00  0.00000000E+00  1.60000000E+01  1.00800000E+00
  1.00800000E+00  0.00000000E+00  1.60000000E+01  1.00800000E+00  1.00800000E+00
  0.00000000E+00  1.60000000E+01  1.00800000E+00  1.00800000E+00  0.00000000E+00
  1.60000000E+01  1.00800000E+00  1.00800000E+00  0.00000000E+00  1.60000000E+01
  1.00800000E+00  1.00800000E+00  0.00000000E+00  1.60000000E+01  1.00800000E+00
  1.00800000E+00  0.00000000E+00  1.60000000E+01  1.00800000E+00  1.00800000E+00
  0.00000000E+00  1.60000000E+01  1.00800000E+00  1.00800000E+00  0.00000000E+00
  1.60000000E+01  1.00800000E+00  1.00800000E+00  0.00000000E+00  1.60000000E+01
  1.00800000E+00  1.00800000E+00  0.00000000E+00  1.60000000E+01  1.00800000E+00
  1.00800000E+00  0.00000000E+00  1.60000000E+01  1.00800000E+00  1.00800000E+00
  0.00000000E+00  1.60000000E+01  1.00800000E+00  1.00800000E+00  0.00000000E+00
  1.60000000E+01  1.00800000E+00  1.00800000E+00  0.00000000E+00  1.60000000E+01
  1.00800000E+00  1.00800000E+00  0.00000000E+00  1.60000000E+01  1.00800000E+00
  1.00800000E+00  0.00000000E+00  1.60000000E+01  1.00800000E+00  1.00800000E+00
  0.00000000E+00  1.60000000E+01  1.00800000E+00  1.00800000E+00  0.00000000E+00
  1.60000000E+01  1.00800000E+00  1.00800000E+00  0.00000000E+00  1.60000000E+01
  1.00800000E+00  1.00800000E+00  0.00000000E+00  1.60000000E+01  1.00800000E+00
  1.00800000E+00  0.00000000E+00  1.60000000E+01  1.00800000E+00  1.00800000E+00
  0.00000000E+00  1.60000000E+01  1.00800000E+00  1.00800000E+00  0.00000000E+00
  1.60000000E+01  1.00800000E+00  1.00800000E+00  0.00000000E+00  1.60000000E+01
  1.00800000E+00  1.00800000E+00  0.00000000E+00  1.60000000E+01  1.00800000E+00
  1.00800000E+00  0.00000000E+00  1.60000000E+01  1.00800000E+00  1.00800000E+00
  0.00000000E+00  1.60000000E+01  1.00800000E+00  1.00800000E+00  0.00000000E+00
  1.60000000E+01  1.00800000E+00  1.00800000E+00  0.00000000E+00  1.60000000E+01
  1.00800000E+00  1.00800000E+00  0.00000000E+00  1.60000000E+01  1.00800000E+00
  1.00800000E+00  0.00000000E+00  1.60000000E+01  1.00800000E+00  1.00800000E+00
  0.00000000E+00  1.60000000E+01  1.00800000E+00  1.00800000E+00  0.00000000E+00
  1.60000000E+01  1.00800000E+00  1.00800000E+00  0.00000000E+00  1.60000000E+01
  1.00800000E+00  1.00800000E+00  0.00000000E+00  1.60000000E+01  1.00800000E+00
  1.00800000E+00  0.00000000E+00  1.60000000E+01  1.00800000E+00  1.00800000E+00
  0.00000000E+00  1.60000000E+01  1.00800000E+00  1.00800000E+00  0.00000000E+00
  1.60000000E+01  1.00800000E+00  1.00800000E+00  0.00000000E+00  1.60000000E+01
  1.00800000E+00  1.00800000E+00  0.00000000E+00  1.60000000E+01  1.00800000E+00
  1.00800000E+00  0.00000000E+00  1.60000000E+01  1.00800000E+00  1.00800000E+00
  0.00000000E+00  1.60000000E+01  1.00800000E+00  1.00800000E+00  0.00000000E+00
  1.60000000E+01  1.00800000E+00  1.00800000E+00  0.00000000E+00  1.60000000E+01
  1.00800000E+00  1.00800000E+00  0.00000000E+00  1.60000000E+01  1.00800000E+00
  1.00800000E+00  0.00000000E+00  1.60000000E+01  1.00800000E+00  1.00800000E+00
  0.00000000E+00  1.60000000E+01  1.00800000E+00  1.00800000E+00  0.00000000E+00
  1.60000000E+01  1.00800000E+00  1.00800000E+00  0.00000000E+00  1.60000000E+01
  1.00800000E+00  1.00800000E+00  0.00000000E+00  1.60000000E+01  1.00800000E+00
  1.00800000E+00  0.00000000E+00  1.60000000E+01  1.00800000E+00  1.00800000E+00
  0.00000000E+00  1.60000000E+01  1.00800000E+00  1.00800000E+00  0.00000000E+00
  1.60000000E+01  1.00800000E+00  1.00800000E+00  0.00000000E+00  1.60000000E+01
  1.00800000E+00  1.00800000E+00  0.00000000E+00  1.60000000E+01  1.00800000E+00
  1.00800000E+00  0.00000000E+00  1.60000000E+01  1.00800000E+00  1.00800000E+00
  0.00000000E+00  1.60000000E+01  1.00800000E+00  1.00800000E+00  0.00000000E+00
  1.60000000E+01  1.00800000E+00  1.00800000E+00  0.00000000E+00  1.60000000E+01
  1.00800000E+00  1.00800000E+00  0.00000000E+00  1.60000000E+01  1.00800000E+00
  1.00800000E+00  0.00000000E+00  1.60000000E+01  1.00800000E+00  1.00800000E+00
  0.00000000E+00  1.60000000E+01  1.00800000E+00  1.00800000E+00  0.00000000E+00
  1.60000000E+01  1.00800000E+00  1.00800000E+00  0.00000000E+00  1.60000000E+01
  1.00800000E+00  1.00800000E+00  0.00000000E+00  1.60000000E+01  1.00800000E+00
  1.00800000E+00  0.00000000E+00  1.60000000E+01  1.00800000E+00  1.00800000E+00
  0.00000000E+00  1.60000000E+01  1.00800000E+00  1.00800000E+00  0.00000000E+00
  1.60000000E+01  1.00800000E+00  1.00800000E+00  0.00000000E+00  1.60000000E+01
  1.00800000E+00  1.00800000E+00  0.00000000E+00  1.60000000E+01  1.00800000E+00
  1.00800000E+00  0.00000000E+00  1.60000000E+01  1.00800000E+00  1.00800000E+00
  0.00000000E+00  1.60000000E+01  1.00800000E+00  1.00800000E+00  0.00000000E+00
  1.60000000E+01  1.00800000E+00  1.00800000E+00  0.00000000E+00  1.60000000E+01
  1.00800000E+00  1.00800000E+00  0.00000000E+00  1.60000000E+01  1.00800000E+00
  1.00800000E+00  0.00000000E+00  1.60000000E+01  1.00800000E+00  1.00800000E+00
  0.00000000E+00  1.60000000E+01  1.00800000E+00  1.00800000E+00  0.00000000E+00
  1.60000000E+01  1.00800000E+00  1.00800000E+00  0.00000000E+00  1.60000000E+01
  1.00800000E+00  1.00800000E+00  0.00000000E+00  1.60000000E+01  1.00800000E+00
  1.00800000E+00  0.00000000E+00  1.60000000E+01  1.00800000E+00  1.00800000E+00
  0.00000000E+00  1.60000000E+01  1.00800000E+00  1.00800000E+00  0.00000000E+00
  1.60000000E+01  1.00800000E+00  1.00800000E+00  0.00000000E+00  1.60000000E+01
  1.00800000E+00  1.00800000E+00  0.00000000E+00  1.60000000E+01  1.00800000E+00
  1.00800000E+00  0.00000000E+00  1.60000000E+01  1.00800000E+00  1.00800000E+00
  0.00000000E+00  1.60000000E+01  1.00800000E+00  1.00800000E+00  0.00000000E+00
  1.60000000E+01  1.00800000E+00  1.00800000E+00  0.00000000E+00  1.60000000E+01
  1.00800000E+00  1.00800000E+00  0.00000000E+00  1.60000000E+01  1.00800000E+00
  1.00800000E+00  0.00000000E+00  1.60000000E+01  1.00800000E+00  1.00800000E+00
  0.00000000E+00  1.60000000E+01  1.00800000E+00  1.00800000E+00  0.00000000E+00
  1.60000000E+01  1.00800000E+00  1.00800000E+00  0.00000000E+00  1.60000000E+01
  1.00800000E+00  1.00800000E+00  0.00000000E+00  1.60000000E+01  1.00800000E+00
  1.00800000E+00  0.00000000E+00  1.60000000E+01  1.00800000E+00  1.00800000E+00
  0.00000000E+00  1.60000000E+01  1.00800000E+00  1.00800000E+00  0.00000000E+00
  1.60000000E+01  1.00800000E+00  1.00800000E+00  0.00000000E+00  1.60000000E+01
  1.00800000E+00  1.00800000E+00  0.00000000E+00  1.60000000E+01  1.00800000E+00
  1.00800000E+00  0.00000000E+00  1.60000000E+01  1.00800000E+00  1.00800000E+00
  0.00000000E+00  1.60000000E+01  1.00800000E+00  1.00800000E+00  0.00000000E+00
  1.60000000E+01  1.00800000E+00  1.00800000E+00  0.00000000E+00  1.60000000E+01
  1.00800000E+00  1.00800000E+00  0.00000000E+00  1.60000000E+01  1.00800000E+00
  1.00800000E+00  0.00000000E+00  1.60000000E+01  1.00800000E+00  1.00800000E+00
  0.00000000E+00  1.60000000E+01  1.00800000E+00  1.00800000E+00  0.00000000E+00
  1.60000000E+01  1.00800000E+00  1.00800000E+00  0.00000000E+00  1.60000000E+01
  1.00800000E+00  1.00800000E+00  0.00000000E+00  1.60000000E+01  1.00800000E+00
  1.00800000E+00  0.00000000E+00  1.60000000E+01  1.00800000E+00  1.00800000E+00
  0.00000000E+00  1.60000000E+01  1.00800000E+00  1.00800000E+00  0.00000000E+00
  1.60000000E+01  1.00800000E+00  1.00800000E+00  0.00000000E+00  1.60000000E+01
  1.00800000E+00  1.00800000E+00  0.00000000E+00  1.60000000E+01  1.00800000E+00
  1.00800000E+00  0.00000000E+00  1.60000000E+01  1.00800000E+00  1.00800000E+00
  0.00000000E+00  1.60000000E+01  1.00800000E+00  1.00800000E+00  0.00000000E+00
  1.60000000E+01  1.00800000E+00  1.00800000E+00  0.00000000E+00  1.60000000E+01
  1.00800000E+00  1.00800000E+00  0.00000000E+00  1.60000000E+01  1.00800000E+00
  1.00800000E+00  0.00000000E+00  1.60000000E+01  1.00800000E+00  1.00800000E+00
  0.00000000E+00  1.60000000E+01  1.00800000E+00  1.00800000E+00  0.00000000E+00
  1.60000000E+01  1.00800000E+00  1.00800000E+00  0.00000000E+00  1.60000000E+01
  1.00800000E+00  1.00800000E+00  0.00000000E+00  1.60000000E+01  1.00800000E+00
  1.00800000E+00  0.00000000E+00  1.60000000E+01  1.00800000E+00  1.00800000E+00
  0.00000000E+00  1.60000000E+01  1.00800000E+00  1.00800000E+00  0.00000000E+00
  1.60000000E+01  1.00800000E+00  1.00800000E+00  0.00000000E+00  1.60000000E+01
  1.00800000E+00  1.00800000E+00  0.00000000E+00  1.60000000E+01  1.00800000E+00
  1.00800000E+00  0.00000000E+00  1.60000000E+01  1.00800000E+00  1.00800000E+00
  0.00000000E+00  1.60000000E+01  1.00800000E+00  1.00800000E+00  0.00000000E+00
  1.60000000E+01  1.00800000E+00  1.00800000E+00  0.00000000E+00  1.60000000E+01
  1.00800000E+00  1.00800000E+00  0.00000000E+00  1.60000000E+01  1.00800000E+00
  1.00800000E+00  0.00000000E+00  1.60000000E+01  1.00800000E+00  1.00800000E+00
  0.00000000E+00  1.60000000E+01  1.00800000E+00  1.00800000E+00  0.00000000E+00
  1.60000000E+01  1.00800000E+00  1.00800000E+00  0.00000000E+00  1.60000000E+01
  1.00800000E+00  1.00800000E+00  0.00000000E+00  1.60000000E+01  1.00800000E+00
  1.00800000E+00  0.00000000E+00  1.60000000E+01  1.00800000E+00  1.00800000E+00
  0.00000000E+00  1.60000000E+01  1.00800000E+00  1.00800000E+00  0.00000000E+00
  1.60000000E+01  1.00800000E+00  1.00800000E+00  0.00000000E+00  1.60000000E+01
  1.00800000E+00  1.00800000E+00  0.00000000E+00  1.60000000E+01  1.00800000E+00
  1.00800000E+00  0.00000000E+00  1.60000000E+01  1.00800000E+00  1.00800000E+00
  0.00000000E+00  1.60000000E+01  1.00800000E+00  1.00800000E+00  0.00000000E+00
  1.60000000E+01  1.00800000E+00  1.00800000E+00  0.00000000E+00  1.60000000E+01
  1.00800000E+00  1.00800000E+00  0.00000000E+00  1.60000000E+01  1.00800000E+00
  1.00800000E+00  0.00000000E+00  1.60000000E+01  1.00800000E+00  1.00800000E+00
  0.00000000E+00  1.60000000E+01  1.00800000E+00  1.00800000E+00  0.00000000E+00
  1.60000000E+01  1.00800000E+00  1.00800000E+00  0.00000000E+00  1.60000000E+01
  1.00800000E+00  1.00800000E+00  0.00000000E+00  1.60000000E+01  1.00800000E+00
  1.00800000E+00  0.00000000E+00  1.60000000E+01  1.00800000E+00  1.00800000E+00
  0.00000000E+00  1.60000000E+01  1.00800000E+00  1.00800000E+00  0.00000000E+00
  1.60000000E+01  1.00800000E+00  1.00800000E+00  0.00000000E+00  1.60000000E+01
  1.00800000E+00  1.00800000E+00  0.00000000E+00  1.60000000E+01  1.00800000E+00
  1.00800000E+00  0.00000000E+00  1.60000000E+01  1.00800000E+00  1.00800000E+00
  0.00000000E+00  1.60000000E+01  1.00800000E+00  1.00800000E+00  0.00000000E+00
  1.60000000E+01  1.00800000E+00  1.00800000E+00  0.00000000E+00  1.60000000E+01
  1.00800000E+00  1.00800000E+00  0.00000000E+00  1.60000000E+01  1.00800000E+00
  1.00800000E+00  0.00000000E+00  1.60000000E+01  1.00800000E+00  1.00800000E+00
  0.00000000E+00  1.60000000E+01  1.00800000E+00  1.00800000E+00  0.00000000E+00
  1.60000000E+01  1.00800000E+00  1.00800000E+00  0.00000000E+00  1.60000000E+01
  1.00800000E+00  1.00800000E+00  0.00000000E+00  1.60000000E+01  1.00800000E+00
  1.00800000E+00  0.00000000E+00  1.60000000E+01  1.00800000E+00  1.00800000E+00
  0.00000000E+00  1.60000000E+01  1.00800000E+00  1.00800000E+00  0.00000000E+00
  1.60000000E+01  1.00800000E+00  1.00800000E+00  0.00000000E+00  1.60000000E+01
  1.00800000E+00  1.00800000E+00  0.00000000E+00  1.60000000E+01  1.00800000E+00
  1.00800000E+00  0.00000000E+00  1.60000000E+01  1.00800000E+00  1.00800000E+00
  0.00000000E+00  1.60000000E+01  1.00800000E+00  1.00800000E+00  0.00000000E+00
  1.60000000E+01  1.00800000E+00  1.00800000E+00  0.00000000E+00  1.60000000E+01
  1.00800000E+00  1.00800000E+00  0.00000000E+00  1.60000000E+01  1.00800000E+00
  1.00800000E+00  0.00000000E+00  1.60000000E+01  1.00800000E+00  1.00800000E+00
  0.00000000E+00  1.60000000E+01  1.00800000E+00  1.00800000E+00  0.00000000E+00
  1.60000000E+01  1.00800000E+00  1.00800000E+00  0.00000000E+00  1.60000000E+01
  1.00800000E+00  1.00800000E+00  0.00000000E+00  1.60000000E+01  1.00800000E+00
  1.00800000E+00  0.00000000E+00  1.60000000E+01  1.00800000E+00  1.00800000E+00
  0.00000000E+00  1.60000000E+01  1.00800000E+00  1.00800000E+00  0.00000000E+00
  1.60000000E+01  1.00800000E+00  1.00800000E+00  0.00000000E+00  1.60000000E+01
  1.00800000E+00  1.00800000E+00  0.00000000E+00  1.60000000E+01  1.00800000E+00
  1.00800000E+00  0.00000000E+00  1.60000000E+01  1.00800000E+00  1.00800000E+00
  0.00000000E+00  1.60000000E+01  1.00800000E+00  1.00800000E+00  0.00000000E+00
  1.60000000E+01  1.00800000E+00  1.00800000E+00  0.00000000E+00  1.60000000E+01
  1.00800000E+00  1.00800000E+00  0.00000000E+00  1.60000000E+01  1.00800000E+00
  1.00800000E+00  0.00000000E+00  1.60000000E+01  1.00800000E+00  1.00800000E+00
  0.00000000E+00  1.60000000E+01  1.00800000E+00  1.00800000E+00  0.00000000E+00
  1.60000000E+01  1.00800000E+00  1.00800000E+00  0.00000000E+00  1.60000000E+01
  1.00800000E+00  1.00800000E+00  0.00000000E+00  1.60000000E+01  1.00800000E+00
  1.00800000E+00  0.00000000E+00  1.60000000E+01  1.00800000E+00  1.00800000E+00
  0.00000000E+00  1.60000000E+01  1.00800000E+00  1.00800000E+00  0.00000000E+00
  1.60000000E+01  1.00800000E+00  1.00800000E+00  0.00000000E+00  1.60000000E+01
  1.00800000E+00  1.00800000E+00  0.00000000E+00  1.60000000E+01  1.00800000E+00
  1.00800000E+00  0.00000000E+00  1.60000000E+01  1.00800000E+00  1.00800000E+00
  0.00000000E+00  1.60000000E+01  1.00800000E+00  1.00800000E+00  0.00000000E+00
  1.60000000E+01  1.00800000E+00  1.00800000E+00  0.00000000E+00  1.60000000E+01
  1.00800000E+00  1.00800000E+00  0.00000000E+00  1.60000000E+01  1.00800000E+00
  1.00800000E+00  0.00000000E+00  1.60000000E+01  1.00800000E+00  1.00800000E+00
  0.00000000E+00  1.60000000E+01  1.00800000E+00  1.00800000E+00  0.00000000E+00
  1.60000000E+01  1.00800000E+00  1.00800000E+00  0.00000000E+00  1.60000000E+01
  1.00800000E+00  1.00800000E+00  0.00000000E+00  1.60000000E+01  1.00800000E+00
  1.00800000E+00  0.00000000E+00  1.60000000E+01  1.00800000E+00  1.00800000E+00
  0.00000000E+00  1.60000000E+01  1.00800000E+00  1.00800000E+00  0.00000000E+00
  1.60000000E+01  1.00800000E+00  1.00800000E+00  0.00000000E+00  1.60000000E+01
  1.00800000E+00  1.00800000E+00  0.00000000E+00  1.60000000E+01  1.00800000E+00
  1.00800000E+00  0.00000000E+00  1.60000000E+01  1.00800000E+00  1.00800000E+00
  0.00000000E+00  1.60000000E+01  1.00800000E+00  1.00800000E+00  0.00000000E+00
  1.60000000E+01  1.00800000E+00  1.00800000E+00  0.00000000E+00  1.60000000E+01
  1.00800000E+00  1.00800000E+00  0.00000000E+00  1.60000000E+01  1.00800000E+00
  1.00800000E+00  0.00000000E+00  1.60000000E+01  1.00800000E+00  1.00800000E+00
  0.00000000E+00  1.60000000E+01  1.00800000E+00  1.00800000E+00  0.00000000E+00
  1.60000000E+01  1.00800000E+00  1.00800000E+00  0.00000000E+00  1.60000000E+01
  1.00800000E+00  1.00800000E+00  0.00000000E+00  1.60000000E+01  1.00800000E+00
  1.00800000E+00  0.00000000E+00  1.60000000E+01  1.00800000E+00  1.00800000E+00
  0.00000000E+00  1.60000000E+01  1.00800000E+00  1.00800000E+00  0.00000000E+00
  1.60000000E+01  1.00800000E+00  1.00800000E+00  0.00000000E+00  1.60000000E+01
  1.00800000E+00  1.00800000E+00  0.00000000E+00  1.60000000E+01  1.00800000E+00
  1.00800000E+00  0.00000000E+00  1.60000000E+01  1.00800000E+00  1.00800000E+00
  0.00000000E+00  1.60000000E+01  1.00800000E+00  1.00800000E+00  0.00000000E+00
  1.60000000E+01  1.00800000E+00  1.00800000E+00  0.00000000E+00  1.60000000E+01
  1.00800000E+00  1.00800000E+00  0.00000000E+00  1.60000000E+01  1.00800000E+00
  1.00800000E+00  0.00000000E+00  1.60000000E+01  1.00800000E+00  1.00800000E+00
  0.00000000E+00  1.60000000E+01  1.00800000E+00  1.00800000E+00  0.00000000E+00
  1.60000000E+01  1.00800000E+00  1.00800000E+00  0.00000000E+00  1.60000000E+01
  1.00800000E+00  1.00800000E+00  0.00000000E+00  1.60000000E+01  1.00800000E+00
  1.00800000E+00  0.00000000E+00  1.60000000E+01  1.00800000E+00  1.00800000E+00
  0.00000000E+00  1.60000000E+01  1.00800000E+00  1.00800000E+00  0.00000000E+00
  1.60000000E+01  1.00800000E+00  1.00800000E+00  0.00000000E+00  1.60000000E+01
  1.00800000E+00  1.00800000E+00  0.00000000E+00  1.60000000E+01  1.00800000E+00
  1.00800000E+00  0.00000000E+00  1.60000000E+01  1.00800000E+00  1.00800000E+00
  0.00000000E+00  1.60000000E+01  1.00800000E+00  1.00800000E+00  0.00000000E+00
  1.60000000E+01  1.00800000E+00  1.00800000E+00  0.00000000E+00  1.60000000E+01
  1.00800000E+00  1.00800000E+00  0.00000000E+00  1.60000000E+01  1.00800000E+00
  1.00800000E+00  0.00000000E+00  1.60000000E+01  1.00800000E+00  1.00800000E+00
  0.00000000E+00  1.60000000E+01  1.00800000E+00  1.00800000E+00  0.00000000E+00
  1.60000000E+01  1.00800000E+00  1.00800000E+00  0.00000000E+00  1.60000000E+01
  1.00800000E+00  1.00800000E+00  0.00000000E+00  1.60000000E+01  1.00800000E+00
  1.00800000E+00  0.00000000E+00  1.60000000E+01  1.00800000E+00  1.00800000E+00
  0.00000000E+00  1.60000000E+01  1.00800000E+00  1.00800000E+00  0.00000000E+00
  1.60000000E+01  1.00800000E+00  1.00800000E+00  0.00000000E+00  1.60000000E+01
  1.00800000E+00  1.00800000E+00  0.00000000E+00  1.60000000E+01  1.00800000E+00
  1.00800000E+00  0.00000000E+00  1.60000000E+01  1.00800000E+00  1.00800000E+00
  0.00000000E+00  1.60000000E+01  1.00800000E+00  1.00800000E+00  0.00000000E+00
  1.60000000E+01  1.00800000E+00  1.00800000E+00  0.00000000E+00  1.60000000E+01
  1.00800000E+00  1.00800000E+00  0.00000000E+00  1.60000000E+01  1.00800000E+00
  1.00800000E+00  0.00000000E+00  1.60000000E+01  1.00800000E+00  1.00800000E+00
  0.00000000E+00  1.60000000E+01  1.00800000E+00  1.00800000E+00  0.00000000E+00
  1.60000000E+01  1.00800000E+00  1.00800000E+00  0.00000000E+00  1.60000000E+01
  1.00800000E+00  1.00800000E+00  0.00000000E+00  1.60000000E+01  1.00800000E+00
  1.00800000E+00  0.00000000E+00  1.60000000E+01  1.00800000E+00  1.00800000E+00
  0.00000000E+00  1.60000000E+01  1.00800000E+00  1.00800000E+00  0.00000000E+00
  1.60000000E+01  1.00800000E+00  1.00800000E+00  0.00000000E+00  1.60000000E+01
  1.00800000E+00  1.00800000E+00  0.00000000E+00  1.60000000E+01  1.00800000E+00
  1.00800000E+00  0.00000000E+00  1.60000000E+01  1.00800000E+00  1.00800000E+00
  0.00000000E+00  1.60000000E+01  1.00800000E+00  1.00800000E+00  0.00000000E+00
  1.60000000E+01  1.00800000E+00  1.00800000E+00  0.00000000E+00  1.60000000E+01
  1.00800000E+00  1.00800000E+00  0.00000000E+00  1.60000000E+01  1.00800000E+00
  1.00800000E+00  0.00000000E+00  1.60000000E+01  1.00800000E+00  1.00800000E+00
  0.00000000E+00  1.60000000E+01  1.00800000E+00  1.00800000E+00  0.00000000E+00
  1.60000000E+01  1.00800000E+00  1.00800000E+00  0.00000000E+00  1.60000000E+01
  1.00800000E+00  1.00800000E+00  0.00000000E+00  1.60000000E+01  1.00800000E+00
  1.00800000E+00  0.00000000E+00  1.60000000E+01  1.00800000E+00  1.00800000E+00
  0.00000000E+00  1.60000000E+01  1.00800000E+00  1.00800000E+00  0.00000000E+00
  1.60000000E+01  1.00800000E+00  1.00800000E+00  0.00000000E+00  1.60000000E+01
  1.00800000E+00  1.00800000E+00  0.00000000E+00  1.60000000E+01  1.00800000E+00
  1.00800000E+00  0.00000000E+00  1.60000000E+01  1.00800000E+00  1.00800000E+00
  0.00000000E+00  1.60000000E+01  1.00800000E+00  1.00800000E+00  0.00000000E+00
  1.60000000E+01  1.00800000E+00  1.00800000E+00  0.00000000E+00  1.60000000E+01
  1.00800000E+00  1.00800000E+00  0.00000000E+00  1.60000000E+01  1.00800000E+00
  1.00800000E+00  0.00000000E+00  1.60000000E+01  1.00800000E+00  1.00800000E+00
  0.00000000E+00  1.60000000E+01  1.00800000E+00  1.00800000E+00  0.00000000E+00
  1.60000000E+01  1.00800000E+00  1.00800000E+00  0.00000000E+00  1.60000000E+01
  1.00800000E+00  1.00800000E+00  0.00000000E+00  1.60000000E+01  1.00800000E+00
  1.00800000E+00  0.00000000E+00  1.60000000E+01  1.00800000E+00  1.00800000E+00
  0.00000000E+00  1.60000000E+01  1.00800000E+00  1.00800000E+00  0.00000000E+00
  1.60000000E+01  1.00800000E+00  1.00800000E+00  0.00000000E+00  1.60000000E+01
  1.00800000E+00  1.00800000E+00  0.00000000E+00  1.60000000E+01  1.00800000E+00
  1.00800000E+00  0.00000000E+00  1.60000000E+01  1.00800000E+00  1.00800000E+00
  0.00000000E+00  1.60000000E+01  1.00800000E+00  1.00800000E+00  0.00000000E+00
  1.60000000E+01  1.00800000E+00  1.00800000E+00  0.00000000E+00  1.60000000E+01
  1.00800000E+00  1.00800000E+00  0.00000000E+00  1.60000000E+01  1.00800000E+00
  1.00800000E+00  0.00000000E+00  1.60000000E+01  1.00800000E+00  1.00800000E+00
  0.00000000E+00  1.60000000E+01  1.00800000E+00  1.00800000E+00  0.00000000E+00
  1.60000000E+01  1.00800000E+00  1.00800000E+00  0.00000000E+00  1.60000000E+01
  1.00800000E+00  1.00800000E+00  0.00000000E+00  1.60000000E+01  1.00800000E+00
  1.00800000E+00  0.00000000E+00  1.60000000E+01  1.00800000E+00  1.00800000E+00
  0.00000000E+00  1.60000000E+01  1.00800000E+00  1.00800000E+00  0.00000000E+00
  1.60000000E+01  1.00800000E+00  1.00800000E+00  0.00000000E+00  1.60000000E+01
  1.00800000E+00  1.00800000E+00  0.00000000E+00  1.60000000E+01  1.00800000E+00
  1.00800000E+00  0.00000000E+00  1.60000000E+01  1.00800000E+00  1.00800000E+00
  0.00000000E+00  1.60000000E+01  1.00800000E+00  1.00800000E+00  0.00000000E+00
  1.60000000E+01  1.00800000E+00  1.00800000E+00  0.00000000E+00  1.60000000E+01
  1.00800000E+00  1.00800000E+00  0.00000000E+00  1.60000000E+01  1.00800000E+00
  1.00800000E+00  0.00000000E+00  1.60000000E+01  1.00800000E+00  1.00800000E+00
  0.00000000E+00  1.60000000E+01  1.00800000E+00  1.00800000E+00  0.00000000E+00
  1.60000000E+01  1.00800000E+00  1.00800000E+00  0.00000000E+00  1.60000000E+01
  1.00800000E+00  1.00800000E+00  0.00000000E+00  1.60000000E+01  1.00800000E+00
  1.00800000E+00  0.00000000E+00  1.60000000E+01  1.00800000E+00  1.00800000E+00
  0.00000000E+00  1.60000000E+01  1.00800000E+00  1.00800000E+00  0.00000000E+00
  1.60000000E+01  1.00800000E+00  1.00800000E+00  0.00000000E+00  1.60000000E+01
  1.00800000E+00  1.00800000E+00  0.00000000E+00  1.60000000E+01  1.00800000E+00
  1.00800000E+00  0.00000000E+00  1.60000000E+01  1.00800000E+00  1.00800000E+00
  0.00000000E+00  1.60000000E+01  1.00800000E+00  1.00800000E+00  0.00000000E+00
  1.60000000E+01  1.00800000E+00  1.00800000E+00  0.00000000E+00  1.60000000E+01
  1.00800000E+00  1.00800000E+00  0.00000000E+00  1.60000000E+01  1.00800000E+00
  1.00800000E+00  0.00000000E+00  1.60000000E+01  1.00800000E+00  1.00800000E+00
  0.00000000E+00  1.60000000E+01  1.00800000E+00  1.00800000E+00  0.00000000E+00
  1.60000000E+01  1.00800000E+00  1.00800000E+00  0.00000000E+00  1.60000000E+01
  1.00800000E+00  1.00800000E+00  0.00000000E+00  1.60000000E+01  1.00800000E+00
  1.00800000E+00  0.00000000E+00  1.60000000E+01  1.00800000E+00  1.00800000E+00
  0.00000000E+00  1.60000000E+01  1.00800000E+00  1.00800000E+00  0.00000000E+00
  1.60000000E+01  1.00800000E+00  1.00800000E+00  0.00000000E+00  1.60000000E+01
  1.00800000E+00  1.00800000E+00  0.00000000E+00  1.60000000E+01  1.00800000E+00
  1.00800000E+00  0.00000000E+00  1.60000000E+01  1.00800000E+00  1.00800000E+00
  0.00000000E+00  1.60000000E+01  1.00800000E+00  1.00800000E+00  0.00000000E+00
  1.60000000E+01  1.00800000E+00  1.00800000E+00  0.00000000E+00  1.60000000E+01
  1.00800000E+00  1.00800000E+00  0.00000000E+00  1.60000000E+01  1.00800000E+00
  1.00800000E+00  0.00000000E+00  1.60000000E+01  1.00800000E+00  1.00800000E+00
  0.00000000E+00  1.60000000E+01  1.00800000E+00  1.00800000E+00  0.00000000E+00
  1.60000000E+01  1.00800000E+00  1.00800000E+00  0.00000000E+00  1.60000000E+01
  1.00800000E+00  1.00800000E+00  0.00000000E+00  1.60000000E+01  1.00800000E+00
  1.00800000E+00  0.00000000E+00  1.60000000E+01  1.00800000E+00  1.00800000E+00
  0.00000000E+00  1.60000000E+01  1.00800000E+00  1.00800000E+00  0.00000000E+00
  1.60000000E+01  1.00800000E+00  1.00800000E+00  0.00000000E+00  1.60000000E+01
  1.00800000E+00  1.00800000E+00  0.00000000E+00  1.60000000E+01  1.00800000E+00
  1.00800000E+00  0.00000000E+00  1.60000000E+01  1.00800000E+00  1.00800000E+00
  0.00000000E+00  1.60000000E+01  1.00800000E+00  1.00800000E+00  0.00000000E+00
  1.60000000E+01  1.00800000E+00  1.00800000E+00  0.00000000E+00  1.60000000E+01
  1.00800000E+00  1.00800000E+00  0.00000000E+00  1.60000000E+01  1.00800000E+00
  1.00800000E+00  0.00000000E+00  1.60000000E+01  1.00800000E+00  1.00800000E+00
  0.00000000E+00  1.60000000E+01  1.00800000E+00  1.00800000E+00  0.00000000E+00
  1.60000000E+01  1.00800000E+00  1.00800000E+00  0.00000000E+00  1.60000000E+01
  1.00800000E+00  1.00800000E+00  0.00000000E+00  1.60000000E+01  1.00800000E+00
  1.00800000E+00  0.00000000E+00  1.60000000E+01  1.00800000E+00  1.00800000E+00
  0.00000000E+00  1.60000000E+01  1.00800000E+00  1.00800000E+00  0.00000000E+00
  1.60000000E+01  1.00800000E+00  1.00800000E+00  0.00000000E+00  1.60000000E+01
  1.00800000E+00  1.00800000E+00  0.00000000E+00  1.60000000E+01  1.00800000E+00
  1.00800000E+00  0.00000000E+00  1.60000000E+01  1.00800000E+00  1.00800000E+00
  0.00000000E+00  1.60000000E+01  1.00800000E+00  1.00800000E+00  0.00000000E+00
  1.60000000E+01  1.00800000E+00  1.00800000E+00  0.00000000E+00  1.60000000E+01
  1.00800000E+00  1.00800000E+00  0.00000000E+00  1.60000000E+01  1.00800000E+00
  1.00800000E+00  0.00000000E+00  1.60000000E+01  1.00800000E+00  1.00800000E+00
  0.00000000E+00  1.60000000E+01  1.00800000E+00  1.00800000E+00  0.00000000E+00
  1.60000000E+01  1.00800000E+00  1.00800000E+00  0.00000000E+00  1.60000000E+01
  1.00800000E+00  1.00800000E+00  0.00000000E+00  1.60000000E+01  1.00800000E+00
  1.00800000E+00  0.00000000E+00  1.60000000E+01  1.00800000E+00  1.00800000E+00
  0.00000000E+00  1.60000000E+01  1.00800000E+00  1.00800000E+00  0.00000000E+00
  1.60000000E+01  1.00800000E+00  1.00800000E+00  0.00000000E+00  1.60000000E+01
  1.00800000E+00  1.00800000E+00  0.00000000E+00  1.60000000E+01  1.00800000E+00
  1.00800000E+00  0.00000000E+00  1.60000000E+01  1.00800000E+00  1.00800000E+00
  0.00000000E+00  1.60000000E+01  1.00800000E+00  1.00800000E+00  0.00000000E+00
  1.60000000E+01  1.00800000E+00  1.00800000E+00  0.00000000E+00  1.60000000E+01
  1.00800000E+00  1.00800000E+00  0.00000000E+00  1.60000000E+01  1.00800000E+00
  1.00800000E+00  0.00000000E+00  1.60000000E+01  1.00800000E+00  1.00800000E+00
  0.00000000E+00  1.60000000E+01  1.00800000E+00  1.00800000E+00  0.00000000E+00
  1.60000000E+01  1.00800000E+00  1.00800000E+00  0.00000000E+00  1.60000000E+01
  1.00800000E+00  1.00800000E+00  0.00000000E+00  1.60000000E+01  1.00800000E+00
  1.00800000E+00  0.00000000E+00  1.60000000E+01  1.00800000E+00  1.00800000E+00
  0.00000000E+00  1.60000000E+01  1.00800000E+00  1.00800000E+00  0.00000000E+00
  1.60000000E+01  1.00800000E+00  1.00800000E+00  0.00000000E+00  1.60000000E+01
  1.00800000E+00  1.00800000E+00  0.00000000E+00  1.60000000E+01  1.00800000E+00
  1.00800000E+00  0.00000000E+00  1.60000000E+01  1.00800000E+00  1.00800000E+00
  0.00000000E+00  1.60000000E+01  1.00800000E+00  1.00800000E+00  0.00000000E+00
  1.60000000E+01  1.00800000E+00  1.00800000E+00  0.00000000E+00  1.60000000E+01
  1.00800000E+00  1.00800000E+00  0.00000000E+00  1.60000000E+01  1.00800000E+00
  1.00800000E+00  0.00000000E+00  1.60000000E+01  1.00800000E+00  1.00800000E+00
  0.00000000E+00  1.60000000E+01  1.00800000E+00  1.00800000E+00  0.00000000E+00
  1.60000000E+01  1.00800000E+00  1.00800000E+00  0.00000000E+00  1.60000000E+01
  1.00800000E+00  1.00800000E+00  0.00000000E+00  1.60000000E+01  1.00800000E+00
  1.00800000E+00  0.00000000E+00  1.60000000E+01  1.00800000E+00  1.00800000E+00
  0.00000000E+00  1.60000000E+01  1.00800000E+00  1.00800000E+00  0.00000000E+00
  1.60000000E+01  1.00800000E+00  1.00800000E+00  0.00000000E+00  1.60000000E+01
  1.00800000E+00  1.00800000E+00  0.00000000E+00  1.60000000E+01  1.00800000E+00
  1.00800000E+00  0.00000000E+00  1.60000000E+01  1.00800000E+00  1.00800000E+00
  0.00000000E+00  1.60000000E+01  1.00800000E+00  1.00800000E+00  0.00000000E+00
  1.60000000E+01  1.00800000E+00  1.00800000E+00  0.00000000E+00  1.60000000E+01
  1.00800000E+00  1.00800000E+00  0.00000000E+00  1.60000000E+01  1.00800000E+00
  1.00800000E+00  0.00000000E+00  1.60000000E+01  1.00800000E+00  1.00800000E+00
  0.00000000E+00  1.60000000E+01  1.00800000E+00  1.00800000E+00  0.00000000E+00
  1.60000000E+01  1.00800000E+00  1.00800000E+00  0.00000000E+00  1.60000000E+01
  1.00800000E+00  1.00800000E+00  0.00000000E+00  1.60000000E+01  1.00800000E+00
  1.00800000E+00  0.00000000E+00  1.60000000E+01  1.00800000E+00  1.00800000E+00
  0.00000000E+00  1.60000000E+01  1.00800000E+00  1.00800000E+00  0.00000000E+00
  1.60000000E+01  1.00800000E+00  1.00800000E+00  0.00000000E+00  1.60000000E+01
  1.00800000E+00  1.00800000E+00  0.00000000E+00  1.60000000E+01  1.00800000E+00
  1.00800000E+00  0.00000000E+00  1.60000000E+01  1.00800000E+00  1.00800000E+00
  0.00000000E+00  1.60000000E+01  1.00800000E+00  1.00800000E+00  0.00000000E+00
  1.60000000E+01  1.00800000E+00  1.00800000E+00  0.00000000E+00  1.60000000E+01
  1.00800000E+00  1.00800000E+00  0.00000000E+00  1.60000000E+01  1.00800000E+00
  1.00800000E+00  0.00000000E+00  1.60000000E+01  1.00800000E+00  1.00800000E+00
  0.00000000E+00  1.60000000E+01  1.00800000E+00  1.00800000E+00  0.00000000E+00
  1.60000000E+01  1.00800000E+00  1.00800000E+00  0.00000000E+00  1.60000000E+01
  1.00800000E+00  1.00800000E+00  0.00000000E+00  1.60000000E+01  1.00800000E+00
  1.00800000E+00  0.00000000E+00  1.60000000E+01  1.00800000E+00  1.00800000E+00
  0.00000000E+00  1.60000000E+01  1.00800000E+00  1.00800000E+00  0.00000000E+00
  1.60000000E+01  1.00800000E+00  1.00800000E+00  0.00000000E+00  1.60000000E+01
  1.00800000E+00  1.00800000E+00  0.00000000E+00  1.60000000E+01  1.00800000E+00
  1.00800000E+00  0.00000000E+00  1.60000000E+01  1.00800000E+00  1.00800000E+00
  0.00000000E+00  1.60000000E+01  1.00800000E+00  1.00800000E+00  0.00000000E+00
  1.60000000E+01  1.00800000E+00  1.00800000E+00  0.00000000E+00  1.60000000E+01
  1.00800000E+00  1.00800000E+00  0.00000000E+00  1.60000000E+01  1.00800000E+00
  1.00800000E+00  0.00000000E+00  1.60000000E+01  1.00800000E+00  1.00800000E+00
  0.00000000E+00  1.60000000E+01  1.00800000E+00  1.00800000E+00  0.00000000E+00
  1.60000000E+01  1.00800000E+00  1.00800000E+00  0.00000000E+00  1.60000000E+01
  1.00800000E+00  1.00800000E+00  0.00000000E+00  1.60000000E+01  1.00800000E+00
  1.00800000E+00  0.00000000E+00  1.60000000E+01  1.00800000E+00  1.00800000E+00
  0.00000000E+00  1.60000000E+01  1.00800000E+00  1.00800000E+00  0.00000000E+00
  1.60000000E+01  1.00800000E+00  1.00800000E+00  0.00000000E+00  1.60000000E+01
  1.00800000E+00  1.00800000E+00  0.00000000E+00  1.60000000E+01  1.00800000E+00
  1.00800000E+00  0.00000000E+00  1.60000000E+01  1.00800000E+00  1.00800000E+00
  0.00000000E+00  1.60000000E+01  1.00800000E+00  1.00800000E+00  0.00000000E+00
  1.60000000E+01  1.00800000E+00  1.00800000E+00  0.00000000E+00  1.60000000E+01
  1.00800000E+00  1.00800000E+00  0.00000000E+00  1.60000000E+01  1.00800000E+00
  1.00800000E+00  0.00000000E+00  1.60000000E+01  1.00800000E+00  1.00800000E+00
  0.00000000E+00  1.60000000E+01  1.00800000E+00  1.00800000E+00  0.00000000E+00
  1.60000000E+01  1.00800000E+00  1.00800000E+00  0.00000000E+00  1.60000000E+01
  1.00800000E+00  1.00800000E+00  0.00000000E+00  1.60000000E+01  1.00800000E+00
  1.00800000E+00  0.00000000E+00  1.60000000E+01  1.00800000E+00  1.00800000E+00
  0.00000000E+00  1.60000000E+01  1.00800000E+00  1.00800000E+00  0.00000000E+00
  1.60000000E+01  1.00800000E+00  1.00800000E+00  0.00000000E+00  1.60000000E+01
  1.00800000E+00  1.00800000E+00  0.00000000E+00  1.60000000E+01  1.00800000E+00
  1.00800000E+00  0.00000000E+00  1.60000000E+01  1.00800000E+00  1.00800000E+00
  0.00000000E+00  1.60000000E+01  1.00800000E+00  1.00800000E+00  0.00000000E+00
  1.60000000E+01  1.00800000E+00  1.00800000E+00  0.00000000E+00  1.60000000E+01
  1.00800000E+00  1.00800000E+00  0.00000000E+00  1.60000000E+01  1.00800000E+00
  1.00800000E+00  0.00000000E+00  1.60000000E+01  1.00800000E+00  1.00800000E+00
  0.00000000E+00  1.60000000E+01  1.00800000E+00  1.00800000E+00  0.00000000E+00
  1.60000000E+01  1.00800000E+00  1.00800000E+00  0.00000000E+00  1.60000000E+01
  1.00800000E+00  1.00800000E+00  0.00000000E+00  1.60000000E+01  1.00800000E+00
  1.00800000E+00  0.00000000E+00  1.60000000E+01  1.00800000E+00  1.00800000E+00
  0.00000000E+00  1.60000000E+01  1.00800000E+00  1.00800000E+00  0.00000000E+00
  1.60000000E+01  1.00800000E+00  1.00800000E+00  0.00000000E+00  1.60000000E+01
  1.00800000E+00  1.00800000E+00  0.00000000E+00  1.60000000E+01  1.00800000E+00
  1.00800000E+00  0.00000000E+00  1.60000000E+01  1.00800000E+00  1.00800000E+00
  0.00000000E+00  1.60000000E+01  1.00800000E+00  1.00800000E+00  0.00000000E+00
  1.60000000E+01  1.00800000E+00  1.00800000E+00  0.00000000E+00  1.60000000E+01
  1.00800000E+00  1.00800000E+00  0.00000000E+00  1.60000000E+01  1.00800000E+00
  1.00800000E+00  0.00000000E+00  1.60000000E+01  1.00800000E+00  1.00800000E+00
  0.00000000E+00  1.60000000E+01  1.00800000E+00  1.00800000E+00  0.00000000E+00
  1.60000000E+01  1.00800000E+00  1.00800000E+00  0.00000000E+00  1.60000000E+01
  1.00800000E+00  1.00800000E+00  0.00000000E+00  1.60000000E+01  1.00800000E+00
  1.00800000E+00  0.00000000E+00  1.60000000E+01  1.00800000E+00  1.00800000E+00
  0.00000000E+00  1.60000000E+01  1.00800000E+00  1.00800000E+00  0.00000000E+00
  1.60000000E+01  1.00800000E+00  1.00800000E+00  0.00000000E+00  1.60000000E+01
  1.00800000E+00  1.00800000E+00  0.00000000E+00  1.60000000E+01  1.00800000E+00
  1.00800000E+00  0.00000000E+00  1.60000000E+01  1.00800000E+00  1.00800000E+00
  0.00000000E+00  1.60000000E+01  1.00800000E+00  1.00800000E+00  0.00000000E+00
  1.60000000E+01  1.00800000E+00  1.00800000E+00  0.00000000E+00  1.60000000E+01
  1.00800000E+00  1.00800000E+00  0.00000000E+00  1.60000000E+01  1.00800000E+00
  1.00800000E+00  0.00000000E+00  1.60000000E+01  1.00800000E+00  1.00800000E+00
  0.00000000E+00  1.60000000E+01  1.00800000E+00  1.00800000E+00  0.00000000E+00
  1.60000000E+01  1.00800000E+00  1.00800000E+00  0.00000000E+00  1.60000000E+01
  1.00800000E+00  1.00800000E+00  0.00000000E+00  1.60000000E+01  1.00800000E+00
  1.00800000E+00  0.00000000E+00  1.60000000E+01  1.00800000E+00  1.00800000E+00
  0.00000000E+00  1.60000000E+01  1.00800000E+00  1.00800000E+00  0.00000000E+00
  1.60000000E+01  1.00800000E+00  1.00800000E+00  0.00000000E+00  1.60000000E+01
  1.00800000E+00  1.00800000E+00  0.00000000E+00  1.60000000E+01  1.00800000E+00
  1.00800000E+00  0.00000000E+00  1.60000000E+01  1.00800000E+00  1.00800000E+00
  0.00000000E+00  1.60000000E+01  1.00800000E+00  1.00800000E+00  0.00000000E+00
  1.60000000E+01  1.00800000E+00  1.00800000E+00  0.00000000E+00  1.60000000E+01
  1.00800000E+00  1.00800000E+00  0.00000000E+00  1.60000000E+01  1.00800000E+00
  1.00800000E+00  0.00000000E+00  1.60000000E+01  1.00800000E+00  1.00800000E+00
  0.00000000E+00  1.60000000E+01  1.00800000E+00  1.00800000E+00  0.00000000E+00
  1.60000000E+01  1.00800000E+00  1.00800000E+00  0.00000000E+00  1.60000000E+01
  1.00800000E+00  1.00800000E+00  0.00000000E+00  1.60000000E+01  1.00800000E+00
  1.00800000E+00  0.00000000E+00  1.60000000E+01  1.00800000E+00  1.00800000E+00
  0.00000000E+00  1.60000000E+01  1.00800000E+00  1.00800000E+00  0.00000000E+00
  1.60000000E+01  1.00800000E+00  1.00800000E+00  0.00000000E+00  1.60000000E+01
  1.00800000E+00  1.00800000E+00  0.00000000E+00  1.60000000E+01  1.00800000E+00
  1.00800000E+00  0.00000000E+00  1.60000000E+01  1.00800000E+00  1.00800000E+00
  0.00000000E+00  1.60000000E+01  1.00800000E+00  1.00800000E+00  0.00000000E+00
  1.60000000E+01  1.00800000E+00  1.00800000E+00  0.00000000E+00  1.60000000E+01
  1.00800000E+00  1.00800000E+00  0.00000000E+00  1.60000000E+01  1.00800000E+00
  1.00800000E+00  0.00000000E+00  1.60000000E+01  1.00800000E+00  1.00800000E+00
  0.00000000E+00  1.60000000E+01  1.00800000E+00  1.00800000E+00  0.00000000E+00
  1.60000000E+01  1.00800000E+00  1.00800000E+00  0.00000000E+00  1.60000000E+01
  1.00800000E+00  1.00800000E+00  0.00000000E+00  1.60000000E+01  1.00800000E+00
  1.00800000E+00  0.00000000E+00  1.60000000E+01  1.00800000E+00  1.00800000E+00
  0.00000000E+00  1.60000000E+01  1.00800000E+00  1.00800000E+00  0.00000000E+00
  1.60000000E+01  1.00800000E+00  1.00800000E+00  0.00000000E+00  1.60000000E+01
  1.00800000E+00  1.00800000E+00  0.00000000E+00  1.60000000E+01  1.00800000E+00
  1.00800000E+00  0.00000000E+00  1.60000000E+01  1.00800000E+00  1.00800000E+00
  0.00000000E+00  1.60000000E+01  1.00800000E+00  1.00800000E+00  0.00000000E+00
  1.60000000E+01  1.00800000E+00  1.00800000E+00  0.00000000E+00  1.60000000E+01
  1.00800000E+00  1.00800000E+00  0.00000000E+00  1.60000000E+01  1.00800000E+00
  1.00800000E+00  0.00000000E+00  1.60000000E+01  1.00800000E+00  1.00800000E+00
  0.00000000E+00  1.60000000E+01  1.00800000E+00  1.00800000E+00  0.00000000E+00
  1.60000000E+01  1.00800000E+00  1.00800000E+00  0.00000000E+00  1.60000000E+01
  1.00800000E+00  1.00800000E+00  0.00000000E+00  1.60000000E+01  1.00800000E+00
  1.00800000E+00  0.00000000E+00  1.60000000E+01  1.00800000E+00  1.00800000E+00
  0.00000000E+00  1.60000000E+01  1.00800000E+00  1.00800000E+00  0.00000000E+00
  1.60000000E+01  1.00800000E+00  1.00800000E+00  0.00000000E+00  1.60000000E+01
  1.00800000E+00  1.00800000E+00  0.00000000E+00  1.60000000E+01  1.00800000E+00
  1.00800000E+00  0.00000000E+00  1.60000000E+01  1.00800000E+00  1.00800000E+00
  0.00000000E+00  1.60000000E+01  1.00800000E+00  1.00800000E+00  0.00000000E+00
  1.60000000E+01  1.00800000E+00  1.00800000E+00  0.00000000E+00  1.60000000E+01
  1.00800000E+00  1.00800000E+00  0.00000000E+00  1.60000000E+01  1.00800000E+00
  1.00800000E+00  0.00000000E+00  1.60000000E+01  1.00800000E+00  1.00800000E+00
  0.00000000E+00  1.60000000E+01  1.00800000E+00  1.00800000E+00  0.00000000E+00
  1.60000000E+01  1.00800000E+00  1.00800000E+00  0.00000000E+00  1.60000000E+01
  1.00800000E+00  1.00800000E+00  0.00000000E+00  1.60000000E+01  1.00800000E+00
  1.00800000E+00  0.00000000E+00  1.60000000E+01  1.00800000E+00  1.00800000E+00
  0.00000000E+00  1.60000000E+01  1.00800000E+00  1.00800000E+00  0.00000000E+00
  1.60000000E+01  1.00800000E+00  1.00800000E+00  0.00000000E+00  1.60000000E+01
  1.00800000E+00  1.00800000E+00  0.00000000E+00  1.60000000E+01  1.00800000E+00
  1.00800000E+00  0.00000000E+00  1.60000000E+01  1.00800000E+00  1.00800000E+00
  0.00000000E+00  1.60000000E+01  1.00800000E+00  1.00800000E+00  0.00000000E+00
  1.60000000E+01  1.00800000E+00  1.00800000E+00  0.00000000E+00  1.60000000E+01
  1.00800000E+00  1.00800000E+00  0.00000000E+00  1.60000000E+01  1.00800000E+00
  1.00800000E+00  0.00000000E+00  1.60000000E+01  1.00800000E+00  1.00800000E+00
  0.00000000E+00  1.60000000E+01  1.00800000E+00  1.00800000E+00  0.00000000E+00
  1.60000000E+01  1.00800000E+00  1.00800000E+00  0.00000000E+00  1.60000000E+01
  1.00800000E+00  1.00800000E+00  0.00000000E+00  1.60000000E+01  1.00800000E+00
  1.00800000E+00  0.00000000E+00  1.60000000E+01  1.00800000E+00  1.00800000E+00
  0.00000000E+00  1.60000000E+01  1.00800000E+00  1.00800000E+00  0.00000000E+00
  1.60000000E+01  1.00800000E+00  1.00800000E+00  0.00000000E+00  1.60000000E+01
  1.00800000E+00  1.00800000E+00  0.00000000E+00  1.60000000E+01  1.00800000E+00
  1.00800000E+00  0.00000000E+00  1.60000000E+01  1.00800000E+00  1.00800000E+00
  0.00000000E+00  1.60000000E+01  1.00800000E+00  1.00800000E+00  0.00000000E+00
  1.60000000E+01  1.00800000E+00  1.00800000E+00  0.00000000E+00  1.60000000E+01
  1.00800000E+00  1.00800000E+00  0.00000000E+00  1.60000000E+01  1.00800000E+00
  1.00800000E+00  0.00000000E+00  1.60000000E+01  1.00800000E+00  1.00800000E+00
  0.00000000E+00  1.60000000E+01  1.00800000E+00  1.00800000E+00  0.00000000E+00
  1.60000000E+01  1.00800000E+00  1.00800000E+00  0.00000000E+00  1.60000000E+01
  1.00800000E+00  1.00800000E+00  0.00000000E+00  1.60000000E+01  1.00800000E+00
  1.00800000E+00  0.00000000E+00  1.60000000E+01  1.00800000E+00  1.00800000E+00
  0.00000000E+00  1.60000000E+01  1.00800000E+00  1.00800000E+00  0.00000000E+00
  1.60000000E+01  1.00800000E+00  1.00800000E+00  0.00000000E+00  1.60000000E+01
  1.00800000E+00  1.00800000E+00  0.00000000E+00  1.60000000E+01  1.00800000E+00
  1.00800000E+00  0.00000000E+00  1.60000000E+01  1.00800000E+00  1.00800000E+00
  0.00000000E+00  1.60000000E+01  1.00800000E+00  1.00800000E+00  0.00000000E+00
  1.60000000E+01  1.00800000E+00  1.00800000E+00  0.00000000E+00  1.60000000E+01
  1.00800000E+00  1.00800000E+00  0.00000000E+00  1.60000000E+01  1.00800000E+00
  1.00800000E+00  0.00000000E+00  1.60000000E+01  1.00800000E+00  1.00800000E+00
  0.00000000E+00  1.60000000E+01  1.00800000E+00  1.00800000E+00  0.00000000E+00
  1.60000000E+01  1.00800000E+00  1.00800000E+00  0.00000000E+00  1.60000000E+01
  1.00800000E+00  1.00800000E+00  0.00000000E+00  1.60000000E+01  1.00800000E+00
  1.00800000E+00  0.00000000E+00  1.60000000E+01  1.00800000E+00  1.00800000E+00
  0.00000000E+00  1.60000000E+01  1.00800000E+00  1.00800000E+00  0.00000000E+00
  1.60000000E+01  1.00800000E+00  1.00800000E+00  0.00000000E+00  1.60000000E+01
  1.00800000E+00  1.00800000E+00  0.00000000E+00  1.60000000E+01  1.00800000E+00
  1.00800000E+00  0.00000000E+00  1.60000000E+01  1.00800000E+00  1.00800000E+00
  0.00000000E+00  1.60000000E+01  1.00800000E+00  1.00800000E+00  0.00000000E+00
  1.60000000E+01  1.00800000E+00  1.00800000E+00  0.00000000E+00  1.60000000E+01
  1.00800000E+00  1.00800000E+00  0.00000000E+00  1.60000000E+01  1.00800000E+00
  1.00800000E+00  0.00000000E+00  1.60000000E+01  1.00800000E+00  1.00800000E+00
  0.00000000E+00  1.60000000E+01  1.00800000E+00  1.00800000E+00  0.00000000E+00
  1.60000000E+01  1.00800000E+00  1.00800000E+00  0.00000000E+00  1.60000000E+01
  1.00800000E+00  1.00800000E+00  0.00000000E+00  1.60000000E+01  1.00800000E+00
  1.00800000E+00  0.00000000E+00  1.60000000E+01  1.00800000E+00  1.00800000E+00
  0.00000000E+00  1.60000000E+01  1.00800000E+00  1.00800000E+00  0.00000000E+00
  1.60000000E+01  1.00800000E+00  1.00800000E+00  0.00000000E+00  1.60000000E+01
  1.00800000E+00  1.00800000E+00  0.00000000E+00  1.60000000E+01  1.00800000E+00
  1.00800000E+00  0.00000000E+00  1.60000000E+01  1.00800000E+00  1.00800000E+00
  0.00000000E+00  1.60000000E+01  1.00800000E+00  1.00800000E+00  0.00000000E+00
  1.60000000E+01  1.00800000E+00  1.00800000E+00  0.00000000E+00  1.60000000E+01
  1.00800000E+00  1.00800000E+00  0.00000000E+00  1.60000000E+01  1.00800000E+00
  1.00800000E+00  0.00000000E+00  1.60000000E+01  1.00800000E+00  1.00800000E+00
  0.00000000E+00  1.60000000E+01  1.00800000E+00  1.00800000E+00  0.00000000E+00
  1.60000000E+01  1.00800000E+00  1.00800000E+00  0.00000000E+00  1.60000000E+01
  1.00800000E+00  1.00800000E+00  0.00000000E+00  1.60000000E+01  1.00800000E+00
  1.00800000E+00  0.00000000E+00  1.60000000E+01  1.00800000E+00  1.00800000E+00
  0.00000000E+00  1.60000000E+01  1.00800000E+00  1.00800000E+00  0.00000000E+00
  1.60000000E+01  1.00800000E+00  1.00800000E+00  0.00000000E+00  1.60000000E+01
  1.00800000E+00  1.00800000E+00  0.00000000E+00  1.60000000E+01  1.00800000E+00
  1.00800000E+00  0.00000000E+00  1.60000000E+01  1.00800000E+00  1.00800000E+00
  0.00000000E+00  1.60000000E+01  1.00800000E+00  1.00800000E+00  0.00000000E+00
  1.60000000E+01  1.00800000E+00  1.00800000E+00  0.00000000E+00  1.60000000E+01
  1.00800000E+00  1.00800000E+00  0.00000000E+00  1.60000000E+01  1.00800000E+00
  1.00800000E+00  0.00000000E+00  1.60000000E+01  1.00800000E+00  1.00800000E+00
  0.00000000E+00  1.60000000E+01  1.00800000E+00  1.00800000E+00  0.00000000E+00
  1.60000000E+01  1.00800000E+00  1.00800000E+00  0.00000000E+00  1.60000000E+01
  1.00800000E+00  1.00800000E+00  0.00000000E+00  1.60000000E+01  1.00800000E+00
  1.00800000E+00  0.00000000E+00  1.60000000E+01  1.00800000E+00  1.00800000E+00
  0.00000000E+00  1.60000000E+01  1.00800000E+00  1.00800000E+00  0.00000000E+00
  1.60000000E+01  1.00800000E+00  1.00800000E+00  0.00000000E+00  1.60000000E+01
  1.00800000E+00  1.00800000E+00  0.00000000E+00  1.60000000E+01  1.00800000E+00
  1.00800000E+00  0.00000000E+00  1.60000000E+01  1.00800000E+00  1.00800000E+00
  0.00000000E+00  1.60000000E+01  1.00800000E+00  1.00800000E+00  0.00000000E+00
  1.60000000E+01  1.00800000E+00  1.00800000E+00  0.00000000E+00  1.60000000E+01
  1.00800000E+00  1.00800000E+00  0.00000000E+00  1.60000000E+01  1.00800000E+00
  1.00800000E+00  0.00000000E+00  1.60000000E+01  1.00800000E+00  1.00800000E+00
  0.00000000E+00  1.60000000E+01  1.00800000E+00  1.00800000E+00  0.00000000E+00
  1.60000000E+01  1.00800000E+00  1.00800000E+00  0.00000000E+00  1.60000000E+01
  1.00800000E+00  1.00800000E+00  0.00000000E+00  1.60000000E+01  1.00800000E+00
  1.00800000E+00  0.00000000E+00  1.60000000E+01  1.00800000E+00  1.00800000E+00
  0.00000000E+00  1.60000000E+01  1.00800000E+00  1.00800000E+00  0.00000000E+00
  1.60000000E+01  1.00800000E+00  1.00800000E+00  0.00000000E+00  1.60000000E+01
  1.00800000E+00  1.00800000E+00  0.00000000E+00  1.60000000E+01  1.00800000E+00
  1.00800000E+00  0.00000000E+00  1.60000000E+01  1.00800000E+00  1.00800000E+00
  0.00000000E+00  1.60000000E+01  1.00800000E+00  1.00800000E+00  0.00000000E+00
  1.60000000E+01  1.00800000E+00  1.00800000E+00  0.00000000E+00  1.60000000E+01
  1.00800000E+00  1.00800000E+00  0.00000000E+00  1.60000000E+01  1.00800000E+00
  1.00800000E+00  0.00000000E+00  1.60000000E+01  1.00800000E+00  1.00800000E+00
  0.00000000E+00  1.60000000E+01  1.00800000E+00  1.00800000E+00  0.00000000E+00
  1.60000000E+01  1.00800000E+00  1.00800000E+00  0.00000000E+00  1.60000000E+01
  1.00800000E+00  1.00800000E+00  0.00000000E+00  1.60000000E+01  1.00800000E+00
  1.00800000E+00  0.00000000E+00  1.60000000E+01  1.00800000E+00  1.00800000E+00
  0.00000000E+00  1.60000000E+01  1.00800000E+00  1.00800000E+00  0.00000000E+00
  1.60000000E+01  1.00800000E+00  1.00800000E+00  0.00000000E+00  1.60000000E+01
  1.00800000E+00  1.00800000E+00  0.00000000E+00  1.60000000E+01  1.00800000E+00
  1.00800000E+00  0.00000000E+00  1.60000000E+01  1.00800000E+00  1.00800000E+00
  0.00000000E+00  1.60000000E+01  1.00800000E+00  1.00800000E+00  0.00000000E+00
  1.60000000E+01  1.00800000E+00  1.00800000E+00  0.00000000E+00  1.60000000E+01
  1.00800000E+00  1.00800000E+00  0.00000000E+00  1.60000000E+01  1.00800000E+00
  1.00800000E+00  0.00000000E+00  1.60000000E+01  1.00800000E+00  1.00800000E+00
  0.00000000E+00  1.60000000E+01  1.00800000E+00  1.00800000E+00  0.00000000E+00
  1.60000000E+01  1.00800000E+00  1.00800000E+00  0.00000000E+00  1.60000000E+01
  1.00800000E+00  1.00800000E+00  0.00000000E+00  1.60000000E+01  1.00800000E+00
  1.00800000E+00  0.00000000E+00  1.60000000E+01  1.00800000E+00  1.00800000E+00
  0.00000000E+00  1.60000000E+01  1.00800000E+00  1.00800000E+00  0.00000000E+00
  1.60000000E+01  1.00800000E+00  1.00800000E+00  0.00000000E+00  1.60000000E+01
  1.00800000E+00  1.00800000E+00  0.00000000E+00  1.60000000E+01  1.00800000E+00
  1.00800000E+00  0.00000000E+00  1.60000000E+01  1.00800000E+00  1.00800000E+00
  0.00000000E+00  1.60000000E+01  1.00800000E+00  1.00800000E+00  0.00000000E+00
  1.60000000E+01  1.00800000E+00  1.00800000E+00  0.00000000E+00  1.60000000E+01
  1.00800000E+00  1.00800000E+00  0.00000000E+00  1.60000000E+01  1.00800000E+00
  1.00800000E+00  0.00000000E+00  1.60000000E+01  1.00800000E+00  1.00800000E+00
  0.00000000E+00  1.60000000E+01  1.00800000E+00  1.00800000E+00  0.00000000E+00
  1.60000000E+01  1.00800000E+00  1.00800000E+00  0.00000000E+00  1.60000000E+01
  1.00800000E+00  1.00800000E+00  0.00000000E+00  1.60000000E+01  1.00800000E+00
  1.00800000E+00  0.00000000E+00  1.60000000E+01  1.00800000E+00  1.00800000E+00
  0.00000000E+00  1.60000000E+01  1.00800000E+00  1.00800000E+00  0.00000000E+00
  1.60000000E+01  1.00800000E+00  1.00800000E+00  0.00000000E+00  1.60000000E+01
  1.00800000E+00  1.00800000E+00  0.00000000E+00  1.60000000E+01  1.00800000E+00
  1.00800000E+00  0.00000000E+00  1.60000000E+01  1.00800000E+00  1.00800000E+00
  0.00000000E+00  1.60000000E+01  1.00800000E+00  1.00800000E+00  0.00000000E+00
  1.60000000E+01  1.00800000E+00  1.00800000E+00  0.00000000E+00  1.60000000E+01
  1.00800000E+00  1.00800000E+00  0.00000000E+00  1.60000000E+01  1.00800000E+00
  1.00800000E+00  0.00000000E+00  1.60000000E+01  1.00800000E+00  1.00800000E+00
  0.00000000E+00  1.60000000E+01  1.00800000E+00  1.00800000E+00  0.00000000E+00
  1.60000000E+01  1.00800000E+00  1.00800000E+00  0.00000000E+00  1.60000000E+01
  1.00800000E+00  1.00800000E+00  0.00000000E+00  1.60000000E+01  1.00800000E+00
  1.00800000E+00  0.00000000E+00  1.60000000E+01  1.00800000E+00  1.00800000E+00
  0.00000000E+00  1.60000000E+01  1.00800000E+00  1.00800000E+00  0.00000000E+00
  1.60000000E+01  1.00800000E+00  1.00800000E+00  0.00000000E+00  1.60000000E+01
  1.00800000E+00  1.00800000E+00  0.00000000E+00  1.60000000E+01  1.00800000E+00
  1.00800000E+00  0.00000000E+00  1.60000000E+01  1.00800000E+00  1.00800000E+00
  0.00000000E+00  1.60000000E+01  1.00800000E+00  1.00800000E+00  0.00000000E+00
  1.60000000E+01  1.00800000E+00  1.00800000E+00  0.00000000E+00  1.60000000E+01
  1.00800000E+00  1.00800000E+00  0.00000000E+00  1.60000000E+01  1.00800000E+00
  1.00800000E+00  0.00000000E+00  1.60000000E+01  1.00800000E+00  1.00800000E+00
  0.00000000E+00  1.60000000E+01  1.00800000E+00  1.00800000E+00  0.00000000E+00
  1.60000000E+01  1.00800000E+00  1.00800000E+00  0.00000000E+00  1.60000000E+01
  1.00800000E+00  1.00800000E+00  0.00000000E+00  1.60000000E+01  1.00800000E+00
  1.00800000E+00  0.00000000E+00  1.60000000E+01  1.00800000E+00  1.00800000E+00
  0.00000000E+00  1.60000000E+01  1.00800000E+00  1.00800000E+00  0.00000000E+00
  1.60000000E+01  1.00800000E+00  1.00800000E+00  0.00000000E+00  1.60000000E+01
  1.00800000E+00  1.00800000E+00  0.00000000E+00  1.60000000E+01  1.00800000E+00
  1.00800000E+00  0.00000000E+00  1.60000000E+01  1.00800000E+00  1.00800000E+00
  0.00000000E+00  1.60000000E+01  1.00800000E+00  1.00800000E+00  0.00000000E+00
  1.60000000E+01  1.00800000E+00  1.00800000E+00  0.00000000E+00  1.60000000E+01
  1.00800000E+00  1.00800000E+00  0.00000000E+00  1.60000000E+01  1.00800000E+00
  1.00800000E+00  0.00000000E+00  1.60000000E+01  1.00800000E+00  1.00800000E+00
  0.00000000E+00  1.60000000E+01  1.00800000E+00  1.00800000E+00  0.00000000E+00
  1.60000000E+01  1.00800000E+00  1.00800000E+00  0.00000000E+00  1.60000000E+01
  1.00800000E+00  1.00800000E+00  0.00000000E+00  1.60000000E+01  1.00800000E+00
  1.00800000E+00  0.00000000E+00  1.60000000E+01  1.00800000E+00  1.00800000E+00
  0.00000000E+00  1.60000000E+01  1.00800000E+00  1.00800000E+00  0.00000000E+00
  1.60000000E+01  1.00800000E+00  1.00800000E+00  0.00000000E+00  1.60000000E+01
  1.00800000E+00  1.00800000E+00  0.00000000E+00  1.60000000E+01  1.00800000E+00
  1.00800000E+00  0.00000000E+00  1.60000000E+01  1.00800000E+00  1.00800000E+00
  0.00000000E+00  1.60000000E+01  1.00800000E+00  1.00800000E+00  0.00000000E+00
  1.60000000E+01  1.00800000E+00  1.00800000E+00  0.00000000E+00  1.60000000E+01
  1.00800000E+00  1.00800000E+00  0.00000000E+00  1.60000000E+01  1.00800000E+00
  1.00800000E+00  0.00000000E+00  1.60000000E+01  1.00800000E+00  1.00800000E+00
  0.00000000E+00  1.60000000E+01  1.00800000E+00  1.00800000E+00  0.00000000E+00
  1.60000000E+01  1.00800000E+00  1.00800000E+00  0.00000000E+00  1.60000000E+01
  1.00800000E+00  1.00800000E+00  0.00000000E+00  1.60000000E+01  1.00800000E+00
  1.00800000E+00  0.00000000E+00  1.60000000E+01  1.00800000E+00  1.00800000E+00
  0.00000000E+00  1.60000000E+01  1.00800000E+00  1.00800000E+00  0.00000000E+00
  1.60000000E+01  1.00800000E+00  1.00800000E+00  0.00000000E+00  1.60000000E+01
  1.00800000E+00  1.00800000E+00  0.00000000E+00  1.60000000E+01  1.00800000E+00
  1.00800000E+00  0.00000000E+00  1.60000000E+01  1.00800000E+00  1.00800000E+00
  0.00000000E+00  1.60000000E+01  1.00800000E+00  1.00800000E+00  0.00000000E+00
  1.60000000E+01  1.00800000E+00  1.00800000E+00  0.00000000E+00  1.60000000E+01
  1.00800000E+00  1.00800000E+00  0.00000000E+00  1.60000000E+01  1.00800000E+00
  1.00800000E+00  0.00000000E+00  1.60000000E+01  1.00800000E+00  1.00800000E+00
  0.00000000E+00  1.60000000E+01  1.00800000E+00  1.00800000E+00  0.00000000E+00
  1.60000000E+01  1.00800000E+00  1.00800000E+00  0.00000000E+00  1.60000000E+01
  1.00800000E+00  1.00800000E+00  0.00000000E+00  1.60000000E+01  1.00800000E+00
  1.00800000E+00  0.00000000E+00  1.60000000E+01  1.00800000E+00  1.00800000E+00
  0.00000000E+00  1.60000000E+01  1.00800000E+00  1.00800000E+00  0.00000000E+00
  1.60000000E+01  1.00800000E+00  1.00800000E+00  0.00000000E+00  1.60000000E+01
  1.00800000E+00  1.00800000E+00  0.00000000E+00  1.60000000E+01  1.00800000E+00
  1.00800000E+00  0.00000000E+00  1.60000000E+01  1.00800000E+00  1.00800000E+00
  0.00000000E+00  1.60000000E+01  1.00800000E+00  1.00800000E+00  0.00000000E+00
  1.60000000E+01  1.00800000E+00  1.00800000E+00  0.00000000E+00  1.60000000E+01
  1.00800000E+00  1.00800000E+00  0.00000000E+00  1.60000000E+01  1.00800000E+00
  1.00800000E+00  0.00000000E+00  1.60000000E+01  1.00800000E+00  1.00800000E+00
  0.00000000E+00  1.60000000E+01  1.00800000E+00  1.00800000E+00  0.00000000E+00
  1.60000000E+01  1.00800000E+00  1.00800000E+00  0.00000000E+00  1.60000000E+01
  1.00800000E+00  1.00800000E+00  0.00000000E+00  1.60000000E+01  1.00800000E+00
  1.00800000E+00  0.00000000E+00  1.60000000E+01  1.00800000E+00  1.00800000E+00
  0.00000000E+00  1.60000000E+01  1.00800000E+00  1.00800000E+00  0.00000000E+00
  1.60000000E+01  1.00800000E+00  1.00800000E+00  0.00000000E+00  1.60000000E+01
  1.00800000E+00  1.00800000E+00  0.00000000E+00  1.60000000E+01  1.00800000E+00
  1.00800000E+00  0.00000000E+00  1.60000000E+01  1.00800000E+00  1.00800000E+00
  0.00000000E+00  1.60000000E+01  1.00800000E+00  1.00800000E+00  0.00000000E+00
  1.60000000E+01  1.00800000E+00  1.00800000E+00  0.00000000E+00  1.60000000E+01
  1.00800000E+00  1.00800000E+00  0.00000000E+00  1.60000000E+01  1.00800000E+00
  1.00800000E+00  0.00000000E+00  1.60000000E+01  1.00800000E+00  1.00800000E+00
  0.00000000E+00  1.60000000E+01  1.00800000E+00  1.00800000E+00  0.00000000E+00
  1.60000000E+01  1.00800000E+00  1.00800000E+00  0.00000000E+00  1.60000000E+01
  1.00800000E+00  1.00800000E+00  0.00000000E+00  1.60000000E+01  1.00800000E+00
  1.00800000E+00  0.00000000E+00  1.60000000E+01  1.00800000E+00  1.00800000E+00
  0.00000000E+00  1.60000000E+01  1.00800000E+00  1.00800000E+00  0.00000000E+00
  1.60000000E+01  1.00800000E+00  1.00800000E+00  0.00000000E+00  1.60000000E+01
  1.00800000E+00  1.00800000E+00  0.00000000E+00  1.60000000E+01  1.00800000E+00
  1.00800000E+00  0.00000000E+00  1.60000000E+01  1.00800000E+00  1.00800000E+00
  0.00000000E+00  1.60000000E+01  1.00800000E+00  1.00800000E+00  0.00000000E+00
  1.60000000E+01  1.00800000E+00  1.00800000E+00  0.00000000E+00  1.60000000E+01
  1.00800000E+00  1.00800000E+00  0.00000000E+00  1.60000000E+01  1.00800000E+00
  1.00800000E+00  0.00000000E+00  1.60000000E+01  1.00800000E+00  1.00800000E+00
  0.00000000E+00  1.60000000E+01  1.00800000E+00  1.00800000E+00  0.00000000E+00
  1.60000000E+01  1.00800000E+00  1.00800000E+00  0.00000000E+00  1.60000000E+01
  1.00800000E+00  1.00800000E+00  0.00000000E+00  1.60000000E+01  1.00800000E+00
  1.00800000E+00  0.00000000E+00  1.60000000E+01  1.00800000E+00  1.00800000E+00
  0.00000000E+00  1.60000000E+01  1.00800000E+00  1.00800000E+00  0.00000000E+00
  1.60000000E+01  1.00800000E+00  1.00800000E+00  0.00000000E+00  1.60000000E+01
  1.00800000E+00  1.00800000E+00  0.00000000E+00  1.60000000E+01  1.00800000E+00
  1.00800000E+00  0.00000000E+00  1.60000000E+01  1.00800000E+00  1.00800000E+00
  0.00000000E+00  1.60000000E+01  1.00800000E+00  1.00800000E+00  0.00000000E+00
  1.60000000E+01  1.00800000E+00  1.00800000E+00  0.00000000E+00  1.60000000E+01
  1.00800000E+00  1.00800000E+00  0.00000000E+00  1.60000000E+01  1.00800000E+00
  1.00800000E+00  0.00000000E+00  1.60000000E+01  1.00800000E+00  1.00800000E+00
  0.00000000E+00  1.60000000E+01  1.00800000E+00  1.00800000E+00  0.00000000E+00
  1.60000000E+01  1.00800000E+00  1.00800000E+00  0.00000000E+00  1.60000000E+01
  1.00800000E+00  1.00800000E+00  0.00000000E+00  1.60000000E+01  1.00800000E+00
  1.00800000E+00  0.00000000E+00  1.60000000E+01  1.00800000E+00  1.00800000E+00
  0.00000000E+00  1.60000000E+01  1.00800000E+00  1.00800000E+00  0.00000000E+00
  1.60000000E+01  1.00800000E+00  1.00800000E+00  0.00000000E+00  1.60000000E+01
  1.00800000E+00  1.00800000E+00  0.00000000E+00  1.60000000E+01  1.00800000E+00
  1.00800000E+00  0.00000000E+00  1.60000000E+01  1.00800000E+00  1.00800000E+00
  0.00000000E+00  1.60000000E+01  1.00800000E+00  1.00800000E+00  0.00000000E+00
  1.60000000E+01  1.00800000E+00  1.00800000E+00  0.00000000E+00  1.60000000E+01
  1.00800000E+00  1.00800000E+00  0.00000000E+00  1.60000000E+01  1.00800000E+00
  1.00800000E+00  0.00000000E+00  1.60000000E+01  1.00800000E+00  1.00800000E+00
  0.00000000E+00  1.60000000E+01  1.00800000E+00  1.00800000E+00  0.00000000E+00
  1.60000000E+01  1.00800000E+00  1.00800000E+00  0.00000000E+00  1.60000000E+01
  1.00800000E+00  1.00800000E+00  0.00000000E+00  1.60000000E+01  1.00800000E+00
  1.00800000E+00  0.00000000E+00  1.60000000E+01  1.00800000E+00  1.00800000E+00
  0.00000000E+00  1.60000000E+01  1.00800000E+00  1.00800000E+00  0.00000000E+00
  1.60000000E+01  1.00800000E+00  1.00800000E+00  0.00000000E+00  1.60000000E+01
  1.00800000E+00  1.00800000E+00  0.00000000E+00  1.60000000E+01  1.00800000E+00
  1.00800000E+00  0.00000000E+00  1.60000000E+01  1.00800000E+00  1.00800000E+00
  0.00000000E+00  1.60000000E+01  1.00800000E+00  1.00800000E+00  0.00000000E+00
  1.60000000E+01  1.00800000E+00  1.00800000E+00  0.00000000E+00  1.60000000E+01
  1.00800000E+00  1.00800000E+00  0.00000000E+00  1.60000000E+01  1.00800000E+00
  1.00800000E+00  0.00000000E+00  1.60000000E+01  1.00800000E+00  1.00800000E+00
  0.00000000E+00  1.60000000E+01  1.00800000E+00  1.00800000E+00  0.00000000E+00
  1.60000000E+01  1.00800000E+00  1.00800000E+00  0.00000000E+00  1.60000000E+01
  1.00800000E+00  1.00800000E+00  0.00000000E+00  1.60000000E+01  1.00800000E+00
  1.00800000E+00  0.00000000E+00  1.60000000E+01  1.00800000E+00  1.00800000E+00
  0.00000000E+00  1.60000000E+01  1.00800000E+00  1.00800000E+00  0.00000000E+00
  1.60000000E+01  1.00800000E+00  1.00800000E+00  0.00000000E+00  1.60000000E+01
  1.00800000E+00  1.00800000E+00  0.00000000E+00  1.60000000E+01  1.00800000E+00
  1.00800000E+00  0.00000000E+00  1.60000000E+01  1.00800000E+00  1.00800000E+00
  0.00000000E+00  1.60000000E+01  1.00800000E+00  1.00800000E+00  0.00000000E+00
  1.60000000E+01  1.00800000E+00  1.00800000E+00  0.00000000E+00  1.60000000E+01
  1.00800000E+00  1.00800000E+00  0.00000000E+00  1.60000000E+01  1.00800000E+00
  1.00800000E+00  0.00000000E+00  1.60000000E+01  1.00800000E+00  1.00800000E+00
  0.00000000E+00  1.60000000E+01  1.00800000E+00  1.00800000E+00  0.00000000E+00
  1.60000000E+01  1.00800000E+00  1.00800000E+00  0.00000000E+00  1.60000000E+01
  1.00800000E+00  1.00800000E+00  0.00000000E+00  1.60000000E+01  1.00800000E+00
  1.00800000E+00  0.00000000E+00  1.60000000E+01  1.00800000E+00  1.00800000E+00
  0.00000000E+00  1.60000000E+01  1.00800000E+00  1.00800000E+00  0.00000000E+00
  1.60000000E+01  1.00800000E+00  1.00800000E+00  0.00000000E+00  1.60000000E+01
  1.00800000E+00  1.00800000E+00  0.00000000E+00  1.60000000E+01  1.00800000E+00
  1.00800000E+00  0.00000000E+00  1.60000000E+01  1.00800000E+00  1.00800000E+00
  0.00000000E+00  1.60000000E+01  1.00800000E+00  1.00800000E+00  0.00000000E+00
  1.60000000E+01  1.00800000E+00  1.00800000E+00  0.00000000E+00  1.60000000E+01
  1.00800000E+00  1.00800000E+00  0.00000000E+00  1.60000000E+01  1.00800000E+00
  1.00800000E+00  0.00000000E+00  1.60000000E+01  1.00800000E+00  1.00800000E+00
  0.00000000E+00  1.60000000E+01  1.00800000E+00  1.00800000E+00  0.00000000E+00
  1.60000000E+01  1.00800000E+00  1.00800000E+00  0.00000000E+00  1.60000000E+01
  1.00800000E+00  1.00800000E+00  0.00000000E+00  1.60000000E+01  1.00800000E+00
  1.00800000E+00  0.00000000E+00  1.60000000E+01  1.00800000E+00  1.00800000E+00
  0.00000000E+00  1.60000000E+01  1.00800000E+00  1.00800000E+00  0.00000000E+00
  1.60000000E+01  1.00800000E+00  1.00800000E+00  0.00000000E+00  1.60000000E+01
  1.00800000E+00  1.00800000E+00  0.00000000E+00  1.60000000E+01  1.00800000E+00
  1.00800000E+00  0.00000000E+00  1.60000000E+01  1.00800000E+00  1.00800000E+00
  0.00000000E+00  1.60000000E+01  1.00800000E+00  1.00800000E+00  0.00000000E+00
  1.60000000E+01  1.00800000E+00  1.00800000E+00  0.00000000E+00  1.60000000E+01
  1.00800000E+00  1.00800000E+00  0.00000000E+00  1.60000000E+01  1.00800000E+00
  1.00800000E+00  0.00000000E+00  1.60000000E+01  1.00800000E+00  1.00800000E+00
  0.00000000E+00  1.60000000E+01  1.00800000E+00  1.00800000E+00  0.00000000E+00
  1.60000000E+01  1.00800000E+00  1.00800000E+00  0.00000000E+00  1.60000000E+01
  1.00800000E+00  1.00800000E+00  0.00000000E+00  1.60000000E+01  1.00800000E+00
  1.00800000E+00  0.00000000E+00  1.60000000E+01  1.00800000E+00  1.00800000E+00
  0.00000000E+00  1.60000000E+01  1.00800000E+00  1.00800000E+00  0.00000000E+00
  1.60000000E+01  1.00800000E+00  1.00800000E+00  0.00000000E+00  1.60000000E+01
  1.00800000E+00  1.00800000E+00  0.00000000E+00  1.60000000E+01  1.00800000E+00
  1.00800000E+00  0.00000000E+00  1.60000000E+01  1.00800000E+00  1.00800000E+00
  0.00000000E+00  1.60000000E+01  1.00800000E+00  1.00800000E+00  0.00000000E+00
  1.60000000E+01  1.00800000E+00  1.00800000E+00  0.00000000E+00  1.60000000E+01
  1.00800000E+00  1.00800000E+00  0.00000000E+00  1.60000000E+01  1.00800000E+00
  1.00800000E+00  0.00000000E+00  1.60000000E+01  1.00800000E+00  1.00800000E+00
  0.00000000E+00  1.60000000E+01  1.00800000E+00  1.00800000E+00  0.00000000E+00
  1.60000000E+01  1.00800000E+00  1.00800000E+00  0.00000000E+00  1.60000000E+01
  1.00800000E+00  1.00800000E+00  0.00000000E+00  1.60000000E+01  1.00800000E+00
  1.00800000E+00  0.00000000E+00  1.60000000E+01  1.00800000E+00  1.00800000E+00
  0.00000000E+00  1.60000000E+01  1.00800000E+00  1.00800000E+00  0.00000000E+00
  1.60000000E+01  1.00800000E+00  1.00800000E+00  0.00000000E+00  1.60000000E+01
  1.00800000E+00  1.00800000E+00  0.00000000E+00  1.60000000E+01  1.00800000E+00
  1.00800000E+00  0.00000000E+00  1.60000000E+01  1.00800000E+00  1.00800000E+00
  0.00000000E+00  1.60000000E+01  1.00800000E+00  1.00800000E+00  0.00000000E+00
  1.60000000E+01  1.00800000E+00  1.00800000E+00  0.00000000E+00  1.60000000E+01
  1.00800000E+00  1.00800000E+00  0.00000000E+00  1.60000000E+01  1.00800000E+00
  1.00800000E+00  0.00000000E+00  1.60000000E+01  1.00800000E+00  1.00800000E+00
  0.00000000E+00  1.60000000E+01  1.00800000E+00  1.00800000E+00  0.00000000E+00
  1.60000000E+01  1.00800000E+00  1.00800000E+00  0.00000000E+00  1.60000000E+01
  1.00800000E+00  1.00800000E+00  0.00000000E+00  1.60000000E+01  1.00800000E+00
  1.00800000E+00  0.00000000E+00  1.60000000E+01  1.00800000E+00  1.00800000E+00
  0.00000000E+00  1.60000000E+01  1.00800000E+00  1.00800000E+00  0.00000000E+00
  1.60000000E+01  1.00800000E+00  1.00800000E+00  0.00000000E+00  1.60000000E+01
  1.00800000E+00  1.00800000E+00  0.00000000E+00  1.60000000E+01  1.00800000E+00
  1.00800000E+00  0.00000000E+00  1.60000000E+01  1.00800000E+00  1.00800000E+00
  0.00000000E+00  1.60000000E+01  1.00800000E+00  1.00800000E+00  0.00000000E+00
  1.60000000E+01  1.00800000E+00  1.00800000E+00  0.00000000E+00  1.60000000E+01
  1.00800000E+00  1.00800000E+00  0.00000000E+00  1.60000000E+01  1.00800000E+00
  1.00800000E+00  0.00000000E+00  1.60000000E+01  1.00800000E+00  1.00800000E+00
  0.00000000E+00  1.60000000E+01  1.00800000E+00  1.00800000E+00  0.00000000E+00
  1.60000000E+01  1.00800000E+00  1.00800000E+00  0.00000000E+00  1.60000000E+01
  1.00800000E+00  1.00800000E+00  0.00000000E+00  1.60000000E+01  1.00800000E+00
  1.00800000E+00  0.00000000E+00  1.60000000E+01  1.00800000E+00  1.00800000E+00
  0.00000000E+00  1.60000000E+01  1.00800000E+00  1.00800000E+00  0.00000000E+00
  1.60000000E+01  1.00800000E+00  1.00800000E+00  0.00000000E+00  1.60000000E+01
  1.00800000E+00  1.00800000E+00  0.00000000E+00  1.60000000E+01  1.00800000E+00
  1.00800000E+00  0.00000000E+00  1.60000000E+01  1.00800000E+00  1.00800000E+00
  0.00000000E+00  1.60000000E+01  1.00800000E+00  1.00800000E+00  0.00000000E+00
  1.60000000E+01  1.00800000E+00  1.00800000E+00  0.00000000E+00  1.60000000E+01
  1.00800000E+00  1.00800000E+00  0.00000000E+00  1.60000000E+01  1.00800000E+00
  1.00800000E+00  0.00000000E+00  1.60000000E+01  1.00800000E+00  1.00800000E+00
  0.00000000E+00  1.60000000E+01  1.00800000E+00  1.00800000E+00  0.00000000E+00
  1.60000000E+01  1.00800000E+00  1.00800000E+00  0.00000000E+00  1.60000000E+01
  1.00800000E+00  1.00800000E+00  0.00000000E+00  1.60000000E+01  1.00800000E+00
  1.00800000E+00  0.00000000E+00  1.60000000E+01  1.00800000E+00  1.00800000E+00
  0.00000000E+00  1.60000000E+01  1.00800000E+00  1.00800000E+00  0.00000000E+00
  1.60000000E+01  1.00800000E+00  1.00800000E+00  0.00000000E+00  1.60000000E+01
  1.00800000E+00  1.00800000E+00  0.00000000E+00  1.60000000E+01  1.00800000E+00
  1.00800000E+00  0.00000000E+00  1.60000000E+01  1.00800000E+00  1.00800000E+00
  0.00000000E+00  1.60000000E+01  1.00800000E+00  1.00800000E+00  0.00000000E+00
  1.60000000E+01  1.00800000E+00  1.00800000E+00  0.00000000E+00  1.60000000E+01
  1.00800000E+00  1.00800000E+00  0.00000000E+00  1.60000000E+01  1.00800000E+00
  1.00800000E+00  0.00000000E+00  1.60000000E+01  1.00800000E+00  1.00800000E+00
  0.00000000E+00  1.60000000E+01  1.00800000E+00  1.00800000E+00  0.00000000E+00
  1.60000000E+01  1.00800000E+00  1.00800000E+00  0.00000000E+00  1.60000000E+01
  1.00800000E+00  1.00800000E+00  0.00000000E+00  1.60000000E+01  1.00800000E+00
  1.00800000E+00  0.00000000E+00  1.60000000E+01  1.00800000E+00  1.00800000E+00
  0.00000000E+00  1.60000000E+01  1.00800000E+00  1.00800000E+00  0.00000000E+00
  1.60000000E+01  1.00800000E+00  1.00800000E+00  0.00000000E+00  1.60000000E+01
  1.00800000E+00  1.00800000E+00  0.00000000E+00  1.60000000E+01  1.00800000E+00
  1.00800000E+00  0.00000000E+00  1.60000000E+01  1.00800000E+00  1.00800000E+00
  0.00000000E+00  1.60000000E+01  1.00800000E+00  1.00800000E+00  0.00000000E+00
  1.60000000E+01  1.00800000E+00  1.00800000E+00  0.00000000E+00  1.60000000E+01
  1.00800000E+00  1.00800000E+00  0.00000000E+00  1.60000000E+01  1.00800000E+00
  1.00800000E+00  0.00000000E+00  1.60000000E+01  1.00800000E+00  1.00800000E+00
  0.00000000E+00  1.60000000E+01  1.00800000E+00  1.00800000E+00  0.00000000E+00
  1.60000000E+01  1.00800000E+00  1.00800000E+00  0.00000000E+00  1.60000000E+01
  1.00800000E+00  1.00800000E+00  0.00000000E+00  1.60000000E+01  1.00800000E+00
  1.00800000E+00  0.00000000E+00  1.60000000E+01  1.00800000E+00  1.00800000E+00
  0.00000000E+00  1.60000000E+01  1.00800000E+00  1.00800000E+00  0.00000000E+00
  1.60000000E+01  1.00800000E+00  1.00800000E+00  0.00000000E+00  1.60000000E+01
  1.00800000E+00  1.00800000E+00  0.00000000E+00  1.60000000E+01  1.00800000E+00
  1.00800000E+00  0.00000000E+00  1.60000000E+01  1.00800000E+00  1.00800000E+00
  0.00000000E+00  1.60000000E+01  1.00800000E+00  1.00800000E+00  0.00000000E+00
  1.60000000E+01  1.00800000E+00  1.00800000E+00  0.00000000E+00  1.60000000E+01
  1.00800000E+00  1.00800000E+00  0.00000000E+00  1.60000000E+01  1.00800000E+00
  1.00800000E+00  0.00000000E+00  1.60000000E+01  1.00800000E+00  1.00800000E+00
  0.00000000E+00  1.60000000E+01  1.00800000E+00  1.00800000E+00  0.00000000E+00
  1.60000000E+01  1.00800000E+00  1.00800000E+00  0.00000000E+00  1.60000000E+01
  1.00800000E+00  1.00800000E+00  0.00000000E+00  1.60000000E+01  1.00800000E+00
  1.00800000E+00  0.00000000E+00  1.60000000E+01  1.00800000E+00  1.00800000E+00
  0.00000000E+00  1.60000000E+01  1.00800000E+00  1.00800000E+00  0.00000000E+00
  1.60000000E+01  1.00800000E+00  1.00800000E+00  0.00000000E+00  1.60000000E+01
  1.00800000E+00  1.00800000E+00  0.00000000E+00  1.60000000E+01  1.00800000E+00
  1.00800000E+00  0.00000000E+00  1.60000000E+01  1.00800000E+00  1.00800000E+00
  0.00000000E+00  1.60000000E+01  1.00800000E+00  1.00800000E+00  0.00000000E+00
  1.60000000E+01  1.00800000E+00  1.00800000E+00  0.00000000E+00  1.60000000E+01
  1.00800000E+00  1.00800000E+00  0.00000000E+00  1.60000000E+01  1.00800000E+00
  1.00800000E+00  0.00000000E+00  1.60000000E+01  1.00800000E+00  1.00800000E+00
  0.00000000E+00  1.60000000E+01  1.00800000E+00  1.00800000E+00  0.00000000E+00
  1.60000000E+01  1.00800000E+00  1.00800000E+00  0.00000000E+00  1.60000000E+01
  1.00800000E+00  1.00800000E+00  0.00000000E+00  1.60000000E+01  1.00800000E+00
  1.00800000E+00  0.00000000E+00  1.60000000E+01  1.00800000E+00  1.00800000E+00
  0.00000000E+00  1.60000000E+01  1.00800000E+00  1.00800000E+00  0.00000000E+00
  1.60000000E+01  1.00800000E+00  1.00800000E+00  0.00000000E+00  1.60000000E+01
  1.00800000E+00  1.00800000E+00  0.00000000E+00  1.60000000E+01  1.00800000E+00
  1.00800000E+00  0.00000000E+00  1.60000000E+01  1.00800000E+00  1.00800000E+00
  0.00000000E+00  1.60000000E+01  1.00800000E+00  1.00800000E+00  0.00000000E+00
  1.60000000E+01  1.00800000E+00  1.00800000E+00  0.00000000E+00  1.60000000E+01
  1.00800000E+00  1.00800000E+00  0.00000000E+00  1.60000000E+01  1.00800000E+00
  1.00800000E+00  0.00000000E+00  1.60000000E+01  1.00800000E+00  1.00800000E+00
  0.00000000E+00  1.60000000E+01  1.00800000E+00  1.00800000E+00  0.00000000E+00
  1.60000000E+01  1.00800000E+00  1.00800000E+00  0.00000000E+00  1.60000000E+01
  1.00800000E+00  1.00800000E+00  0.00000000E+00  1.60000000E+01  1.00800000E+00
  1.00800000E+00  0.00000000E+00  1.60000000E+01  1.00800000E+00  1.00800000E+00
  0.00000000E+00  1.60000000E+01  1.00800000E+00  1.00800000E+00  0.00000000E+00
  1.60000000E+01  1.00800000E+00  1.00800000E+00  0.00000000E+00  1.60000000E+01
  1.00800000E+00  1.00800000E+00  0.00000000E+00  1.60000000E+01  1.00800000E+00
  1.00800000E+00  0.00000000E+00  1.60000000E+01  1.00800000E+00  1.00800000E+00
  0.00000000E+00  1.60000000E+01  1.00800000E+00  1.00800000E+00  0.00000000E+00
  1.60000000E+01  1.00800000E+00  1.00800000E+00  0.00000000E+00  1.60000000E+01
  1.00800000E+00  1.00800000E+00  0.00000000E+00  1.60000000E+01  1.00800000E+00
  1.00800000E+00  0.00000000E+00  1.60000000E+01  1.00800000E+00  1.00800000E+00
  0.00000000E+00  1.60000000E+01  1.00800000E+00  1.00800000E+00  0.00000000E+00
  1.60000000E+01  1.00800000E+00  1.00800000E+00  0.00000000E+00  1.60000000E+01
  1.00800000E+00  1.00800000E+00  0.00000000E+00  1.60000000E+01  1.00800000E+00
  1.00800000E+00  0.00000000E+00  1.60000000E+01  1.00800000E+00  1.00800000E+00
  0.00000000E+00  1.60000000E+01  1.00800000E+00  1.00800000E+00  0.00000000E+00
  1.60000000E+01  1.00800000E+00  1.00800000E+00  0.00000000E+00  1.60000000E+01
  1.00800000E+00  1.00800000E+00  0.00000000E+00  1.60000000E+01  1.00800000E+00
  1.00800000E+00  0.00000000E+00  1.60000000E+01  1.00800000E+00  1.00800000E+00
  0.00000000E+00  1.60000000E+01  1.00800000E+00  1.00800000E+00  0.00000000E+00
  1.60000000E+01  1.00800000E+00  1.00800000E+00  0.00000000E+00  1.60000000E+01
  1.00800000E+00  1.00800000E+00  0.00000000E+00  1.60000000E+01  1.00800000E+00
  1.00800000E+00  0.00000000E+00  1.60000000E+01  1.00800000E+00  1.00800000E+00
  0.00000000E+00  1.60000000E+01  1.00800000E+00  1.00800000E+00  0.00000000E+00
  1.60000000E+01  1.00800000E+00  1.00800000E+00  0.00000000E+00  1.60000000E+01
  1.00800000E+00  1.00800000E+00  0.00000000E+00  1.60000000E+01  1.00800000E+00
  1.00800000E+00  0.00000000E+00  1.60000000E+01  1.00800000E+00  1.00800000E+00
  0.00000000E+00  1.60000000E+01  1.00800000E+00  1.00800000E+00  0.00000000E+00
  1.60000000E+01  1.00800000E+00  1.00800000E+00  0.00000000E+00  1.60000000E+01
  1.00800000E+00  1.00800000E+00  0.00000000E+00  1.60000000E+01  1.00800000E+00
  1.00800000E+00  0.00000000E+00  1.60000000E+01  1.00800000E+00  1.00800000E+00
  0.00000000E+00  1.60000000E+01  1.00800000E+00  1.00800000E+00  0.00000000E+00
  1.60000000E+01  1.00800000E+00  1.00800000E+00  0.00000000E+00  1.60000000E+01
  1.00800000E+00  1.00800000E+00  0.00000000E+00  1.60000000E+01  1.00800000E+00
  1.00800000E+00  0.00000000E+00  1.60000000E+01  1.00800000E+00  1.00800000E+00
  0.00000000E+00  1.60000000E+01  1.00800000E+00  1.00800000E+00  0.00000000E+00
  1.60000000E+01  1.00800000E+00  1.00800000E+00  0.00000000E+00  1.60000000E+01
  1.00800000E+00  1.00800000E+00  0.00000000E+00  1.60000000E+01  1.00800000E+00
  1.00800000E+00  0.00000000E+00  1.60000000E+01  1.00800000E+00  1.00800000E+00
  0.00000000E+00  1.60000000E+01  1.00800000E+00  1.00800000E+00  0.00000000E+00
  1.60000000E+01  1.00800000E+00  1.00800000E+00  0.00000000E+00  1.60000000E+01
  1.00800000E+00  1.00800000E+00  0.00000000E+00  1.60000000E+01  1.00800000E+00
  1.00800000E+00  0.00000000E+00  1.60000000E+01  1.00800000E+00  1.00800000E+00
  0.00000000E+00  1.60000000E+01  1.00800000E+00  1.00800000E+00  0.00000000E+00
  1.60000000E+01  1.00800000E+00  1.00800000E+00  0.00000000E+00  1.60000000E+01
  1.00800000E+00  1.00800000E+00  0.00000000E+00  1.60000000E+01  1.00800000E+00
  1.00800000E+00  0.00000000E+00  1.60000000E+01  1.00800000E+00  1.00800000E+00
  0.00000000E+00  1.60000000E+01  1.00800000E+00  1.00800000E+00  0.00000000E+00
  1.60000000E+01  1.00800000E+00  1.00800000E+00  0.00000000E+00  1.60000000E+01
  1.00800000E+00  1.00800000E+00  0.00000000E+00  1.60000000E+01  1.00800000E+00
  1.00800000E+00  0.00000000E+00  1.60000000E+01  1.00800000E+00  1.00800000E+00
  0.00000000E+00  1.60000000E+01  1.00800000E+00  1.00800000E+00  0.00000000E+00
  1.60000000E+01  1.00800000E+00  1.00800000E+00  0.00000000E+00  1.60000000E+01
  1.00800000E+00  1.00800000E+00  0.00000000E+00  1.60000000E+01  1.00800000E+00
  1.00800000E+00  0.00000000E+00  1.60000000E+01  1.00800000E+00  1.00800000E+00
  0.00000000E+00  1.60000000E+01  1.00800000E+00  1.00800000E+00  0.00000000E+00
  1.60000000E+01  1.00800000E+00  1.00800000E+00  0.00000000E+00  1.60000000E+01
  1.00800000E+00  1.00800000E+00  0.00000000E+00  1.60000000E+01  1.00800000E+00
  1.00800000E+00  0.00000000E+00  1.60000000E+01  1.00800000E+00  1.00800000E+00
  0.00000000E+00  1.60000000E+01  1.00800000E+00  1.00800000E+00  0.00000000E+00
  1.60000000E+01  1.00800000E+00  1.00800000E+00  0.00000000E+00  1.60000000E+01
  1.00800000E+00  1.00800000E+00  0.00000000E+00  1.60000000E+01  1.00800000E+00
  1.00800000E+00  0.00000000E+00  1.60000000E+01  1.00800000E+00  1.00800000E+00
  0.00000000E+00  1.60000000E+01  1.00800000E+00  1.00800000E+00  0.00000000E+00
  1.60000000E+01  1.00800000E+00  1.00800000E+00  0.00000000E+00  1.60000000E+01
  1.00800000E+00  1.00800000E+00  0.00000000E+00  1.60000000E+01  1.00800000E+00
  1.00800000E+00  0.00000000E+00  1.60000000E+01  1.00800000E+00  1.00800000E+00
  0.00000000E+00  1.60000000E+01  1.00800000E+00  1.00800000E+00  0.00000000E+00
  1.60000000E+01  1.00800000E+00  1.00800000E+00  0.00000000E+00  1.60000000E+01
  1.00800000E+00  1.00800000E+00  0.00000000E+00  1.60000000E+01  1.00800000E+00
  1.00800000E+00  0.00000000E+00  1.60000000E+01  1.00800000E+00  1.00800000E+00
  0.00000000E+00  1.60000000E+01  1.00800000E+00  1.00800000E+00  0.00000000E+00
  1.60000000E+01  1.00800000E+00  1.00800000E+00  0.00000000E+00  1.60000000E+01
  1.00800000E+00  1.00800000E+00  0.00000000E+00  1.60000000E+01  1.00800000E+00
  1.00800000E+00  0.00000000E+00  1.60000000E+01  1.00800000E+00  1.00800000E+00
  0.00000000E+00  1.60000000E+01  1.00800000E+00  1.00800000E+00  0.00000000E+00
  1.60000000E+01  1.00800000E+00  1.00800000E+00  0.00000000E+00  1.60000000E+01
  1.00800000E+00  1.00800000E+00  0.00000000E+00  1.60000000E+01  1.00800000E+00
  1.00800000E+00  0.00000000E+00  1.60000000E+01  1.00800000E+00  1.00800000E+00
  0.00000000E+00  1.60000000E+01  1.00800000E+00  1.00800000E+00  0.00000000E+00
  1.60000000E+01  1.00800000E+00  1.00800000E+00  0.00000000E+00  1.60000000E+01
  1.00800000E+00  1.00800000E+00  0.00000000E+00  1.60000000E+01  1.00800000E+00
  1.00800000E+00  0.00000000E+00  1.60000000E+01  1.00800000E+00  1.00800000E+00
  0.00000000E+00  1.60000000E+01  1.00800000E+00  1.00800000E+00  0.00000000E+00
  1.60000000E+01  1.00800000E+00  1.00800000E+00  0.00000000E+00  1.60000000E+01
  1.00800000E+00  1.00800000E+00  0.00000000E+00  1.60000000E+01  1.00800000E+00
  1.00800000E+00  0.00000000E+00  1.60000000E+01  1.00800000E+00  1.00800000E+00
  0.00000000E+00  1.60000000E+01  1.00800000E+00  1.00800000E+00  0.00000000E+00
  1.60000000E+01  1.00800000E+00  1.00800000E+00  0.00000000E+00  1.60000000E+01
  1.00800000E+00  1.00800000E+00  0.00000000E+00  1.60000000E+01  1.00800000E+00
  1.00800000E+00  0.00000000E+00  1.60000000E+01  1.00800000E+00  1.00800000E+00
  0.00000000E+00  1.60000000E+01  1.00800000E+00  1.00800000E+00  0.00000000E+00
  1.60000000E+01  1.00800000E+00  1.00800000E+00  0.00000000E+00  1.60000000E+01
  1.00800000E+00  1.00800000E+00  0.00000000E+00  1.60000000E+01  1.00800000E+00
  1.00800000E+00  0.00000000E+00  1.60000000E+01  1.00800000E+00  1.00800000E+00
  0.00000000E+00  1.60000000E+01  1.00800000E+00  1.00800000E+00  0.00000000E+00
  1.60000000E+01  1.00800000E+00  1.00800000E+00  0.00000000E+00  1.60000000E+01
  1.00800000E+00  1.00800000E+00  0.00000000E+00  1.60000000E+01  1.00800000E+00
  1.00800000E+00  0.00000000E+00  1.60000000E+01  1.00800000E+00  1.00800000E+00
  0.00000000E+00  1.60000000E+01  1.00800000E+00  1.00800000E+00  0.00000000E+00
  1.60000000E+01  1.00800000E+00  1.00800000E+00  0.00000000E+00  1.60000000E+01
  1.00800000E+00  1.00800000E+00  0.00000000E+00  1.60000000E+01  1.00800000E+00
  1.00800000E+00  0.00000000E+00  1.60000000E+01  1.00800000E+00  1.00800000E+00
  0.00000000E+00  1.60000000E+01  1.00800000E+00  1.00800000E+00  0.00000000E+00
  1.60000000E+01  1.00800000E+00  1.00800000E+00  0.00000000E+00  1.60000000E+01
  1.00800000E+00  1.00800000E+00  0.00000000E+00  1.60000000E+01  1.00800000E+00
  1.00800000E+00  0.00000000E+00  1.60000000E+01  1.00800000E+00  1.00800000E+00
  0.00000000E+00  1.60000000E+01  1.00800000E+00  1.00800000E+00  0.00000000E+00
  1.60000000E+01  1.00800000E+00  1.00800000E+00  0.00000000E+00  1.60000000E+01
  1.00800000E+00  1.00800000E+00  0.00000000E+00  1.60000000E+01  1.00800000E+00
  1.00800000E+00  0.00000000E+00  1.60000000E+01  1.00800000E+00  1.00800000E+00
  0.00000000E+00  1.60000000E+01  1.00800000E+00  1.00800000E+00  0.00000000E+00
  1.60000000E+01  1.00800000E+00  1.00800000E+00  0.00000000E+00  1.60000000E+01
  1.00800000E+00  1.00800000E+00  0.00000000E+00  1.60000000E+01  1.00800000E+00
  1.00800000E+00  0.00000000E+00  1.60000000E+01  1.00800000E+00  1.00800000E+00
  0.00000000E+00  1.60000000E+01  1.00800000E+00  1.00800000E+00  0.00000000E+00
  1.60000000E+01  1.00800000E+00  1.00800000E+00  0.00000000E+00  1.60000000E+01
  1.00800000E+00  1.00800000E+00  0.00000000E+00  1.60000000E+01  1.00800000E+00
  1.00800000E+00  0.00000000E+00  1.60000000E+01  1.00800000E+00  1.00800000E+00
  0.00000000E+00  1.60000000E+01  1.00800000E+00  1.00800000E+00  0.00000000E+00
  1.60000000E+01  1.00800000E+00  1.00800000E+00  0.00000000E+00  1.60000000E+01
  1.00800000E+00  1.00800000E+00  0.00000000E+00  1.60000000E+01  1.00800000E+00
  1.00800000E+00  0.00000000E+00  1.60000000E+01  1.00800000E+00  1.00800000E+00
  0.00000000E+00  1.60000000E+01  1.00800000E+00  1.00800000E+00  0.00000000E+00
  1.60000000E+01  1.00800000E+00  1.00800000E+00  0.00000000E+00  1.60000000E+01
  1.00800000E+00  1.00800000E+00  0.00000000E+00  1.60000000E+01  1.00800000E+00
  1.00800000E+00  0.00000000E+00  1.60000000E+01  1.00800000E+00  1.00800000E+00
  0.00000000E+00  1.60000000E+01  1.00800000E+00  1.00800000E+00  0.00000000E+00
  1.60000000E+01  1.00800000E+00  1.00800000E+00  0.00000000E+00  1.60000000E+01
  1.00800000E+00  1.00800000E+00  0.00000000E+00  1.60000000E+01  1.00800000E+00
  1.00800000E+00  0.00000000E+00  1.60000000E+01  1.00800000E+00  1.00800000E+00
  0.00000000E+00  1.60000000E+01  1.00800000E+00  1.00800000E+00  0.00000000E+00
  1.60000000E+01  1.00800000E+00  1.00800000E+00  0.00000000E+00  1.60000000E+01
  1.00800000E+00  1.00800000E+00  0.00000000E+00  1.60000000E+01  1.00800000E+00
  1.00800000E+00  0.00000000E+00  1.60000000E+01  1.00800000E+00  1.00800000E+00
  0.00000000E+00  1.60000000E+01  1.00800000E+00  1.00800000E+00  0.00000000E+00
  1.60000000E+01  1.00800000E+00  1.00800000E+00  0.00000000E+00  1.60000000E+01
  1.00800000E+00  1.00800000E+00  0.00000000E+00  1.60000000E+01  1.00800000E+00
  1.00800000E+00  0.00000000E+00  1.60000000E+01  1.00800000E+00  1.00800000E+00
  0.00000000E+00  1.60000000E+01  1.00800000E+00  1.00800000E+00  0.00000000E+00
  1.60000000E+01  1.00800000E+00  1.00800000E+00  0.00000000E+00  1.60000000E+01
  1.00800000E+00  1.00800000E+00  0.00000000E+00  1.60000000E+01  1.00800000E+00
  1.00800000E+00  0.00000000E+00  1.60000000E+01  1.00800000E+00  1.00800000E+00
  0.00000000E+00  1.60000000E+01  1.00800000E+00  1.00800000E+00  0.00000000E+00
  1.60000000E+01  1.00800000E+00  1.00800000E+00  0.00000000E+00  1.60000000E+01
  1.00800000E+00  1.00800000E+00  0.00000000E+00  1.60000000E+01  1.00800000E+00
  1.00800000E+00  0.00000000E+00  1.60000000E+01  1.00800000E+00  1.00800000E+00
  0.00000000E+00  1.60000000E+01  1.00800000E+00  1.00800000E+00  0.00000000E+00
  1.60000000E+01  1.00800000E+00  1.00800000E+00  0.00000000E+00  1.60000000E+01
  1.00800000E+00  1.00800000E+00  0.00000000E+00  1.60000000E+01  1.00800000E+00
  1.00800000E+00  0.00000000E+00  1.60000000E+01  1.00800000E+00  1.00800000E+00
  0.00000000E+00  1.60000000E+01  1.00800000E+00  1.00800000E+00  0.00000000E+00
  1.60000000E+01  1.00800000E+00  1.00800000E+00  0.00000000E+00  1.60000000E+01
  1.00800000E+00  1.00800000E+00  0.00000000E+00  1.60000000E+01  1.00800000E+00
  1.00800000E+00  0.00000000E+00  1.60000000E+01  1.00800000E+00  1.00800000E+00
  0.00000000E+00  1.60000000E+01  1.00800000E+00  1.00800000E+00  0.00000000E+00
  1.60000000E+01  1.00800000E+00  1.00800000E+00  0.00000000E+00  1.60000000E+01
  1.00800000E+00  1.00800000E+00  0.00000000E+00  1.60000000E+01  1.00800000E+00
  1.00800000E+00  0.00000000E+00  1.60000000E+01  1.00800000E+00  1.00800000E+00
  0.00000000E+00  1.60000000E+01  1.00800000E+00  1.00800000E+00  0.00000000E+00
  1.60000000E+01  1.00800000E+00  1.00800000E+00  0.00000000E+00  1.60000000E+01
  1.00800000E+00  1.00800000E+00  0.00000000E+00  1.60000000E+01  1.00800000E+00
  1.00800000E+00  0.00000000E+00  1.60000000E+01  1.00800000E+00  1.00800000E+00
  0.00000000E+00  1.60000000E+01  1.00800000E+00  1.00800000E+00  0.00000000E+00
  1.60000000E+01  1.00800000E+00  1.00800000E+00  0.00000000E+00  1.60000000E+01
  1.00800000E+00  1.00800000E+00  0.00000000E+00  1.60000000E+01  1.00800000E+00
  1.00800000E+00  0.00000000E+00  1.60000000E+01  1.00800000E+00  1.00800000E+00
  0.00000000E+00  1.60000000E+01  1.00800000E+00  1.00800000E+00  0.00000000E+00
  1.60000000E+01  1.00800000E+00  1.00800000E+00  0.00000000E+00  1.60000000E+01
  1.00800000E+00  1.00800000E+00  0.00000000E+00  1.60000000E+01  1.00800000E+00
  1.00800000E+00  0.00000000E+00  1.60000000E+01  1.00800000E+00  1.00800000E+00
  0.00000000E+00  1.60000000E+01  1.00800000E+00  1.00800000E+00  0.00000000E+00
  1.60000000E+01  1.00800000E+00  1.00800000E+00  0.00000000E+00  1.60000000E+01
  1.00800000E+00  1.00800000E+00  0.00000000E+00  1.60000000E+01  1.00800000E+00
  1.00800000E+00  0.00000000E+00  1.60000000E+01  1.00800000E+00  1.00800000E+00
  0.00000000E+00  1.60000000E+01  1.00800000E+00  1.00800000E+00  0.00000000E+00
  1.60000000E+01  1.00800000E+00  1.00800000E+00  0.00000000E+00  1.60000000E+01
  1.00800000E+00  1.00800000E+00  0.00000000E+00  1.60000000E+01  1.00800000E+00
  1.00800000E+00  0.00000000E+00  1.60000000E+01  1.00800000E+00  1.00800000E+00
  0.00000000E+00  1.60000000E+01  1.00800000E+00  1.00800000E+00  0.00000000E+00
  1.60000000E+01  1.00800000E+00  1.00800000E+00  0.00000000E+00  1.60000000E+01
  1.00800000E+00  1.00800000E+00  0.00000000E+00  1.60000000E+01  1.00800000E+00
  1.00800000E+00  0.00000000E+00  1.60000000E+01  1.00800000E+00  1.00800000E+00
  0.00000000E+00  1.60000000E+01  1.00800000E+00  1.00800000E+00  0.00000000E+00
  1.60000000E+01  1.00800000E+00  1.00800000E+00  0.00000000E+00  1.60000000E+01
  1.00800000E+00  1.00800000E+00  0.00000000E+00  1.60000000E+01  1.00800000E+00
  1.00800000E+00  0.00000000E+00  1.60000000E+01  1.00800000E+00  1.00800000E+00
  0.00000000E+00  1.60000000E+01  1.00800000E+00  1.00800000E+00  0.00000000E+00
  1.60000000E+01  1.00800000E+00  1.00800000E+00  0.00000000E+00  1.60000000E+01
  1.00800000E+00  1.00800000E+00  0.00000000E+00  1.60000000E+01  1.00800000E+00
  1.00800000E+00  0.00000000E+00  1.60000000E+01  1.00800000E+00  1.00800000E+00
  0.00000000E+00  1.60000000E+01  1.00800000E+00  1.00800000E+00  0.00000000E+00
  1.60000000E+01  1.00800000E+00  1.00800000E+00  0.00000000E+00  1.60000000E+01
  1.00800000E+00  1.00800000E+00  0.00000000E+00  1.60000000E+01  1.00800000E+00
  1.00800000E+00  0.00000000E+00  1.60000000E+01  1.00800000E+00  1.00800000E+00
  0.00000000E+00  1.60000000E+01  1.00800000E+00  1.00800000E+00  0.00000000E+00
  1.60000000E+01  1.00800000E+00  1.00800000E+00  0.00000000E+00  1.60000000E+01
  1.00800000E+00  1.00800000E+00  0.00000000E+00  1.60000000E+01  1.00800000E+00
  1.00800000E+00  0.00000000E+00  1.60000000E+01  1.00800000E+00  1.00800000E+00
  0.00000000E+00  1.60000000E+01  1.00800000E+00  1.00800000E+00  0.00000000E+00
  1.60000000E+01  1.00800000E+00  1.00800000E+00  0.00000000E+00  1.60000000E+01
  1.00800000E+00  1.00800000E+00  0.00000000E+00  1.60000000E+01  1.00800000E+00
  1.00800000E+00  0.00000000E+00  1.60000000E+01  1.00800000E+00  1.00800000E+00
  0.00000000E+00  1.60000000E+01  1.00800000E+00  1.00800000E+00  0.00000000E+00
  1.60000000E+01  1.00800000E+00  1.00800000E+00  0.00000000E+00  1.60000000E+01
  1.00800000E+00  1.00800000E+00  0.00000000E+00  1.60000000E+01  1.00800000E+00
  1.00800000E+00  0.00000000E+00  1.60000000E+01  1.00800000E+00  1.00800000E+00
  0.00000000E+00  1.60000000E+01  1.00800000E+00  1.00800000E+00  0.00000000E+00
  1.60000000E+01  1.00800000E+00  1.00800000E+00  0.00000000E+00  1.60000000E+01
  1.00800000E+00  1.00800000E+00  0.00000000E+00  1.60000000E+01  1.00800000E+00
  1.00800000E+00  0.00000000E+00  1.60000000E+01  1.00800000E+00  1.00800000E+00
  0.00000000E+00  1.60000000E+01  1.00800000E+00  1.00800000E+00  0.00000000E+00
  1.60000000E+01  1.00800000E+00  1.00800000E+00  0.00000000E+00  1.60000000E+01
  1.00800000E+00  1.00800000E+00  0.00000000E+00  1.60000000E+01  1.00800000E+00
  1.00800000E+00  0.00000000E+00  1.60000000E+01  1.00800000E+00  1.00800000E+00
  0.00000000E+00  1.60000000E+01  1.00800000E+00  1.00800000E+00  0.00000000E+00
  1.60000000E+01  1.00800000E+00  1.00800000E+00  0.00000000E+00  1.60000000E+01
  1.00800000E+00  1.00800000E+00  0.00000000E+00  1.60000000E+01  1.00800000E+00
  1.00800000E+00  0.00000000E+00  1.60000000E+01  1.00800000E+00  1.00800000E+00
  0.00000000E+00  1.60000000E+01  1.00800000E+00  1.00800000E+00  0.00000000E+00
  1.60000000E+01  1.00800000E+00  1.00800000E+00  0.00000000E+00  1.60000000E+01
  1.00800000E+00  1.00800000E+00  0.00000000E+00  1.60000000E+01  1.00800000E+00
  1.00800000E+00  0.00000000E+00  1.60000000E+01  1.00800000E+00  1.00800000E+00
  0.00000000E+00  1.60000000E+01  1.00800000E+00  1.00800000E+00  0.00000000E+00
  1.60000000E+01  1.00800000E+00  1.00800000E+00  0.00000000E+00  1.60000000E+01
  1.00800000E+00  1.00800000E+00  0.00000000E+00  1.60000000E+01  1.00800000E+00
  1.00800000E+00  0.00000000E+00  1.60000000E+01  1.00800000E+00  1.00800000E+00
  0.00000000E+00  1.60000000E+01  1.00800000E+00  1.00800000E+00  0.00000000E+00
  1.60000000E+01  1.00800000E+00  1.00800000E+00  0.00000000E+00  1.60000000E+01
  1.00800000E+00  1.00800000E+00  0.00000000E+00  1.60000000E+01  1.00800000E+00
  1.00800000E+00  0.00000000E+00  1.60000000E+01  1.00800000E+00  1.00800000E+00
  0.00000000E+00  1.60000000E+01  1.00800000E+00  1.00800000E+00  0.00000000E+00
  1.60000000E+01  1.00800000E+00  1.00800000E+00  0.00000000E+00  1.60000000E+01
  1.00800000E+00  1.00800000E+00  0.00000000E+00  1.60000000E+01  1.00800000E+00
  1.00800000E+00  0.00000000E+00  1.60000000E+01  1.00800000E+00  1.00800000E+00
  0.00000000E+00  1.60000000E+01  1.00800000E+00  1.00800000E+00  0.00000000E+00
  1.60000000E+01  1.00800000E+00  1.00800000E+00  0.00000000E+00  1.60000000E+01
  1.00800000E+00  1.00800000E+00  0.00000000E+00  1.60000000E+01  1.00800000E+00
  1.00800000E+00  0.00000000E+00  1.60000000E+01  1.00800000E+00  1.00800000E+00
  0.00000000E+00  1.60000000E+01  1.00800000E+00  1.00800000E+00  0.00000000E+00
  1.60000000E+01  1.00800000E+00  1.00800000E+00  0.00000000E+00  1.60000000E+01
  1.00800000E+00  1.00800000E+00  0.00000000E+00  1.60000000E+01  1.00800000E+00
  1.00800000E+00  0.00000000E+00  1.60000000E+01  1.00800000E+00  1.00800000E+00
  0.00000000E+00  1.60000000E+01  1.00800000E+00  1.00800000E+00  0.00000000E+00
  1.60000000E+01  1.00800000E+00  1.00800000E+00  0.00000000E+00  1.60000000E+01
  1.00800000E+00  1.00800000E+00  0.00000000E+00  1.60000000E+01  1.00800000E+00
  1.00800000E+00  0.00000000E+00  1.60000000E+01  1.00800000E+00  1.00800000E+00
  0.00000000E+00  1.60000000E+01  1.00800000E+00  1.00800000E+00  0.00000000E+00
  1.60000000E+01  1.00800000E+00  1.00800000E+00  0.00000000E+00  1.60000000E+01
  1.00800000E+00  1.00800000E+00  0.00000000E+00  1.60000000E+01  1.00800000E+00
  1.00800000E+00  0.00000000E+00  1.60000000E+01  1.00800000E+00  1.00800000E+00
  0.00000000E+00  1.60000000E+01  1.00800000E+00  1.00800000E+00  0.00000000E+00
  1.60000000E+01  1.00800000E+00  1.00800000E+00  0.00000000E+00  1.60000000E+01
  1.00800000E+00  1.00800000E+00  0.00000000E+00  1.60000000E+01  1.00800000E+00
  1.00800000E+00  0.00000000E+00  1.60000000E+01  1.00800000E+00  1.00800000E+00
  0.00000000E+00  1.60000000E+01  1.00800000E+00  1.00800000E+00  0.00000000E+00
  1.60000000E+01  1.00800000E+00  1.00800000E+00  0.00000000E+00  1.60000000E+01
  1.00800000E+00  1.00800000E+00  0.00000000E+00  1.60000000E+01  1.00800000E+00
  1.00800000E+00  0.00000000E+00  1.60000000E+01  1.00800000E+00  1.00800000E+00
  0.00000000E+00  1.60000000E+01  1.00800000E+00  1.00800000E+00  0.00000000E+00
  1.60000000E+01  1.00800000E+00  1.00800000E+00  0.00000000E+00  1.60000000E+01
  1.00800000E+00  1.00800000E+00  0.00000000E+00  1.60000000E+01  1.00800000E+00
  1.00800000E+00  0.00000000E+00  1.60000000E+01  1.00800000E+00  1.00800000E+00
  0.00000000E+00  1.60000000E+01  1.00800000E+00  1.00800000E+00  0.00000000E+00
  1.60000000E+01  1.00800000E+00  1.00800000E+00  0.00000000E+00  1.60000000E+01
  1.00800000E+00  1.00800000E+00  0.00000000E+00  1.60000000E+01  1.00800000E+00
  1.00800000E+00  0.00000000E+00  1.60000000E+01  1.00800000E+00  1.00800000E+00
  0.00000000E+00  1.60000000E+01  1.00800000E+00  1.00800000E+00  0.00000000E+00
  1.60000000E+01  1.00800000E+00  1.00800000E+00  0.00000000E+00  1.60000000E+01
  1.00800000E+00  1.00800000E+00  0.00000000E+00  1.60000000E+01  1.00800000E+00
  1.00800000E+00  0.00000000E+00  1.60000000E+01  1.00800000E+00  1.00800000E+00
  0.00000000E+00  1.60000000E+01  1.00800000E+00  1.00800000E+00  0.00000000E+00
  1.60000000E+01  1.00800000E+00  1.00800000E+00  0.00000000E+00  1.60000000E+01
  1.00800000E+00  1.00800000E+00  0.00000000E+00  1.60000000E+01  1.00800000E+00
  1.00800000E+00  0.00000000E+00  1.60000000E+01  1.00800000E+00  1.00800000E+00
  0.00000000E+00  1.60000000E+01  1.00800000E+00  1.00800000E+00  0.00000000E+00
  1.60000000E+01  1.00800000E+00  1.00800000E+00  0.00000000E+00  1.60000000E+01
  1.00800000E+00  1.00800000E+00  0.00000000E+00  1.60000000E+01  1.00800000E+00
  1.00800000E+00  0.00000000E+00  1.60000000E+01  1.00800000E+00  1.00800000E+00
  0.00000000E+00  1.60000000E+01  1.00800000E+00  1.00800000E+00  0.00000000E+00
  1.60000000E+01  1.00800000E+00  1.00800000E+00  0.00000000E+00  1.60000000E+01
  1.00800000E+00  1.00800000E+00  0.00000000E+00  1.60000000E+01  1.00800000E+00
  1.00800000E+00  0.00000000E+00  1.60000000E+01  1.00800000E+00  1.00800000E+00
  0.00000000E+00  1.60000000E+01  1.00800000E+00  1.00800000E+00  0.00000000E+00
  1.60000000E+01  1.00800000E+00  1.00800000E+00  0.00000000E+00  1.60000000E+01
  1.00800000E+00  1.00800000E+00  0.00000000E+00  1.60000000E+01  1.00800000E+00
  1.00800000E+00  0.00000000E+00  1.60000000E+01  1.00800000E+00  1.00800000E+00
  0.00000000E+00  1.60000000E+01  1.00800000E+00  1.00800000E+00  0.00000000E+00
  1.60000000E+01  1.00800000E+00  1.00800000E+00  0.00000000E+00  1.60000000E+01
  1.00800000E+00  1.00800000E+00  0.00000000E+00  1.60000000E+01  1.00800000E+00
  1.00800000E+00  0.00000000E+00  1.60000000E+01  1.00800000E+00  1.00800000E+00
  0.00000000E+00  1.60000000E+01  1.00800000E+00  1.00800000E+00  0.00000000E+00
  1.60000000E+01  1.00800000E+00  1.00800000E+00  0.00000000E+00  1.60000000E+01
  1.00800000E+00  1.00800000E+00  0.00000000E+00  1.60000000E+01  1.00800000E+00
  1.00800000E+00  0.00000000E+00  1.60000000E+01  1.00800000E+00  1.00800000E+00
  0.00000000E+00  1.60000000E+01  1.00800000E+00  1.00800000E+00  0.00000000E+00
  1.60000000E+01  1.00800000E+00  1.00800000E+00  0.00000000E+00  1.60000000E+01
  1.00800000E+00  1.00800000E+00  0.00000000E+00  1.60000000E+01  1.00800000E+00
  1.00800000E+00  0.00000000E+00  1.60000000E+01  1.00800000E+00  1.00800000E+00
  0.00000000E+00  1.60000000E+01  1.00800000E+00  1.00800000E+00  0.00000000E+00
  1.60000000E+01  1.00800000E+00  1.00800000E+00  0.00000000E+00  1.60000000E+01
  1.00800000E+00  1.00800000E+00  0.00000000E+00  1.60000000E+01  1.00800000E+00
  1.00800000E+00  0.00000000E+00  1.60000000E+01  1.00800000E+00  1.00800000E+00
  0.00000000E+00  1.60000000E+01  1.00800000E+00  1.00800000E+00  0.00000000E+00
  1.60000000E+01  1.00800000E+00  1.00800000E+00  0.00000000E+00  1.60000000E+01
  1.00800000E+00  1.00800000E+00  0.00000000E+00  1.60000000E+01  1.00800000E+00
  1.00800000E+00  0.00000000E+00  1.60000000E+01  1.00800000E+00  1.00800000E+00
  0.00000000E+00  1.60000000E+01  1.00800000E+00  1.00800000E+00  0.00000000E+00
  1.60000000E+01  1.00800000E+00  1.00800000E+00  0.00000000E+00  1.60000000E+01
  1.00800000E+00  1.00800000E+00  0.00000000E+00  1.60000000E+01  1.00800000E+00
  1.00800000E+00  0.00000000E+00  1.60000000E+01  1.00800000E+00  1.00800000E+00
  0.00000000E+00  1.60000000E+01  1.00800000E+00  1.00800000E+00  0.00000000E+00
  1.60000000E+01  1.00800000E+00  1.00800000E+00  0.00000000E+00  1.60000000E+01
  1.00800000E+00  1.00800000E+00  0.00000000E+00  1.60000000E+01  1.00800000E+00
  1.00800000E+00  0.00000000E+00  1.60000000E+01  1.00800000E+00  1.00800000E+00
  0.00000000E+00  1.60000000E+01  1.00800000E+00  1.00800000E+00  0.00000000E+00
  1.60000000E+01  1.00800000E+00  1.00800000E+00  0.00000000E+00  1.60000000E+01
  1.00800000E+00  1.00800000E+00  0.00000000E+00  1.60000000E+01  1.00800000E+00
  1.00800000E+00  0.00000000E+00  1.60000000E+01  1.00800000E+00  1.00800000E+00
  0.00000000E+00  1.60000000E+01  1.00800000E+00  1.00800000E+00  0.00000000E+00
  1.60000000E+01  1.00800000E+00  1.00800000E+00  0.00000000E+00  1.60000000E+01
  1.00800000E+00  1.00800000E+00  0.00000000E+00  1.60000000E+01  1.00800000E+00
  1.00800000E+00  0.00000000E+00  1.60000000E+01  1.00800000E+00  1.00800000E+00
  0.00000000E+00  1.60000000E+01  1.00800000E+00  1.00800000E+00  0.00000000E+00
  1.60000000E+01  1.00800000E+00  1.00800000E+00  0.00000000E+00  1.60000000E+01
  1.00800000E+00  1.00800000E+00  0.00000000E+00  1.60000000E+01  1.00800000E+00
  1.00800000E+00  0.00000000E+00  1.60000000E+01  1.00800000E+00  1.00800000E+00
  0.00000000E+00  1.60000000E+01  1.00800000E+00  1.00800000E+00  0.00000000E+00
  1.60000000E+01  1.00800000E+00  1.00800000E+00  0.00000000E+00  1.60000000E+01
  1.00800000E+00  1.00800000E+00  0.00000000E+00  1.60000000E+01  1.00800000E+00
  1.00800000E+00  0.00000000E+00  1.60000000E+01  1.00800000E+00  1.00800000E+00
  0.00000000E+00  1.60000000E+01  1.00800000E+00  1.00800000E+00  0.00000000E+00
  1.60000000E+01  1.00800000E+00  1.00800000E+00  0.00000000E+00  1.60000000E+01
  1.00800000E+00  1.00800000E+00  0.00000000E+00  1.60000000E+01  1.00800000E+00
  1.00800000E+00  0.00000000E+00  1.60000000E+01  1.00800000E+00  1.00800000E+00
  0.00000000E+00  1.60000000E+01  1.00800000E+00  1.00800000E+00  0.00000000E+00
  1.60000000E+01  1.00800000E+00  1.00800000E+00  0.00000000E+00  1.60000000E+01
  1.00800000E+00  1.00800000E+00  0.00000000E+00  1.60000000E+01  1.00800000E+00
  1.00800000E+00  0.00000000E+00  1.60000000E+01  1.00800000E+00  1.00800000E+00
  0.00000000E+00  1.60000000E+01  1.00800000E+00  1.00800000E+00  0.00000000E+00
  1.60000000E+01  1.00800000E+00  1.00800000E+00  0.00000000E+00  1.60000000E+01
  1.00800000E+00  1.00800000E+00  0.00000000E+00  1.60000000E+01  1.00800000E+00
  1.00800000E+00  0.00000000E+00  1.60000000E+01  1.00800000E+00  1.00800000E+00
  0.00000000E+00  1.60000000E+01  1.00800000E+00  1.00800000E+00  0.00000000E+00
  1.60000000E+01  1.00800000E+00  1.00800000E+00  0.00000000E+00  1.60000000E+01
  1.00800000E+00  1.00800000E+00  0.00000000E+00  1.60000000E+01  1.00800000E+00
  1.00800000E+00  0.00000000E+00  1.60000000E+01  1.00800000E+00  1.00800000E+00
  0.00000000E+00  1.60000000E+01  1.00800000E+00  1.00800000E+00  0.00000000E+00
  1.60000000E+01  1.00800000E+00  1.00800000E+00  0.00000000E+00  1.60000000E+01
  1.00800000E+00  1.00800000E+00  0.00000000E+00  1.60000000E+01  1.00800000E+00
  1.00800000E+00  0.00000000E+00  1.60000000E+01  1.00800000E+00  1.00800000E+00
  0.00000000E+00  1.60000000E+01  1.00800000E+00  1.00800000E+00  0.00000000E+00
  1.60000000E+01  1.00800000E+00  1.00800000E+00  0.00000000E+00  1.60000000E+01
  1.00800000E+00  1.00800000E+00  0.00000000E+00  1.60000000E+01  1.00800000E+00
  1.00800000E+00  0.00000000E+00  1.60000000E+01  1.00800000E+00  1.00800000E+00
  0.00000000E+00  1.60000000E+01  1.00800000E+00  1.00800000E+00  0.00000000E+00
  1.60000000E+01  1.00800000E+00  1.00800000E+00  0.00000000E+00  1.60000000E+01
  1.00800000E+00  1.00800000E+00  0.00000000E+00  1.60000000E+01  1.00800000E+00
  1.00800000E+00  0.00000000E+00  1.60000000E+01  1.00800000E+00  1.00800000E+00
  0.00000000E+00  1.60000000E+01  1.00800000E+00  1.00800000E+00  0.00000000E+00
  1.60000000E+01  1.00800000E+00  1.00800000E+00  0.00000000E+00  1.60000000E+01
  1.00800000E+00  1.00800000E+00  0.00000000E+00  1.60000000E+01  1.00800000E+00
  1.00800000E+00  0.00000000E+00  1.60000000E+01  1.00800000E+00  1.00800000E+00
  0.00000000E+00  1.60000000E+01  1.00800000E+00  1.00800000E+00  0.00000000E+00
  1.60000000E+01  1.00800000E+00  1.00800000E+00  0.00000000E+00  1.60000000E+01
  1.00800000E+00  1.00800000E+00  0.00000000E+00  1.60000000E+01  1.00800000E+00
  1.00800000E+00  0.00000000E+00  1.60000000E+01  1.00800000E+00  1.00800000E+00
  0.00000000E+00  1.60000000E+01  1.00800000E+00  1.00800000E+00  0.00000000E+00
  1.60000000E+01  1.00800000E+00  1.00800000E+00  0.00000000E+00  1.60000000E+01
  1.00800000E+00  1.00800000E+00  0.00000000E+00  1.60000000E+01  1.00800000E+00
  1.00800000E+00  0.00000000E+00  1.60000000E+01  1.00800000E+00  1.00800000E+00
  0.00000000E+00  1.60000000E+01  1.00800000E+00  1.00800000E+00  0.00000000E+00
  1.60000000E+01  1.00800000E+00  1.00800000E+00  0.00000000E+00  1.60000000E+01
  1.00800000E+00  1.00800000E+00  0.00000000E+00  1.60000000E+01  1.00800000E+00
  1.00800000E+00  0.00000000E+00  1.60000000E+01  1.00800000E+00  1.00800000E+00
  0.00000000E+00  1.60000000E+01  1.00800000E+00  1.00800000E+00  0.00000000E+00
  1.60000000E+01  1.00800000E+00  1.00800000E+00  0.00000000E+00  1.60000000E+01
  1.00800000E+00  1.00800000E+00  0.00000000E+00  1.60000000E+01  1.00800000E+00
  1.00800000E+00  0.00000000E+00  1.60000000E+01  1.00800000E+00  1.00800000E+00
  0.00000000E+00  1.60000000E+01  1.00800000E+00  1.00800000E+00  0.00000000E+00
  1.60000000E+01  1.00800000E+00  1.00800000E+00  0.00000000E+00  1.60000000E+01
  1.00800000E+00  1.00800000E+00  0.00000000E+00  1.60000000E+01  1.00800000E+00
  1.00800000E+00  0.00000000E+00  1.60000000E+01  1.00800000E+00  1.00800000E+00
  0.00000000E+00  1.60000000E+01  1.00800000E+00  1.00800000E+00  0.00000000E+00
  1.60000000E+01  1.00800000E+00  1.00800000E+00  0.00000000E+00  1.60000000E+01
  1.00800000E+00  1.00800000E+00  0.00000000E+00  1.60000000E+01  1.00800000E+00
  1.00800000E+00  0.00000000E+00  1.60000000E+01  1.00800000E+00  1.00800000E+00
  0.00000000E+00  1.60000000E+01  1.00800000E+00  1.00800000E+00  0.00000000E+00
  1.60000000E+01  1.00800000E+00  1.00800000E+00  0.00000000E+00  1.60000000E+01
  1.00800000E+00  1.00800000E+00  0.00000000E+00  1.60000000E+01  1.00800000E+00
  1.00800000E+00  0.00000000E+00  1.60000000E+01  1.00800000E+00  1.00800000E+00
  0.00000000E+00  1.60000000E+01  1.00800000E+00  1.00800000E+00  0.00000000E+00
  1.60000000E+01  1.00800000E+00  1.00800000E+00  0.00000000E+00  1.60000000E+01
  1.00800000E+00  1.00800000E+00  0.00000000E+00  1.60000000E+01  1.00800000E+00
  1.00800000E+00  0.00000000E+00  1.60000000E+01  1.00800000E+00  1.00800000E+00
  0.00000000E+00  1.60000000E+01  1.00800000E+00  1.00800000E+00  0.00000000E+00
  1.60000000E+01  1.00800000E+00  1.00800000E+00  0.00000000E+00  1.60000000E+01
  1.00800000E+00  1.00800000E+00  0.00000000E+00  1.60000000E+01  1.00800000E+00
  1.00800000E+00  0.00000000E+00  1.60000000E+01  1.00800000E+00  1.00800000E+00
  0.00000000E+00  1.60000000E+01  1.00800000E+00  1.00800000E+00  0.00000000E+00
  1.60000000E+01  1.00800000E+00  1.00800000E+00  0.00000000E+00  1.60000000E+01
  1.00800000E+00  1.00800000E+00  0.00000000E+00  1.60000000E+01  1.00800000E+00
  1.00800000E+00  0.00000000E+00  1.60000000E+01  1.00800000E+00  1.00800000E+00
  0.00000000E+00  1.60000000E+01  1.00800000E+00  1.00800000E+00  0.00000000E+00
  1.60000000E+01  1.00800000E+00  1.00800000E+00  0.00000000E+00  1.60000000E+01
  1.00800000E+00  1.00800000E+00  0.00000000E+00  1.60000000E+01  1.00800000E+00
  1.00800000E+00  0.00000000E+00  1.60000000E+01  1.00800000E+00  1.00800000E+00
  0.00000000E+00  1.60000000E+01  1.00800000E+00  1.00800000E+00  0.00000000E+00
  1.60000000E+01  1.00800000E+00  1.00800000E+00  0.00000000E+00  1.60000000E+01
  1.00800000E+00  1.00800000E+00  0.00000000E+00  1.60000000E+01  1.00800000E+00
  1.00800000E+00  0.00000000E+00  1.60000000E+01  1.00800000E+00  1.00800000E+00
  0.00000000E+00  1.60000000E+01  1.00800000E+00  1.00800000E+00  0.00000000E+00
  1.60000000E+01  1.00800000E+00  1.00800000E+00  0.00000000E+00  1.60000000E+01
  1.00800000E+00  1.00800000E+00  0.00000000E+00  1.60000000E+01  1.00800000E+00
  1.00800000E+00  0.00000000E+00  1.60000000E+01  1.00800000E+00  1.00800000E+00
  0.00000000E+00  1.60000000E+01  1.00800000E+00  1.00800000E+00  0.00000000E+00
  1.60000000E+01  1.00800000E+00  1.00800000E+00  0.00000000E+00  1.60000000E+01
  1.00800000E+00  1.00800000E+00  0.00000000E+00  1.60000000E+01  1.00800000E+00
  1.00800000E+00  0.00000000E+00  1.60000000E+01  1.00800000E+00  1.00800000E+00
  0.00000000E+00  1.60000000E+01  1.00800000E+00  1.00800000E+00  0.00000000E+00
  1.60000000E+01  1.00800000E+00  1.00800000E+00  0.00000000E+00  1.60000000E+01
  1.00800000E+00  1.00800000E+00  0.00000000E+00  1.60000000E+01  1.00800000E+00
  1.00800000E+00  0.00000000E+00  1.60000000E+01  1.00800000E+00  1.00800000E+00
  0.00000000E+00  1.60000000E+01  1.00800000E+00  1.00800000E+00  0.00000000E+00
  1.60000000E+01  1.00800000E+00  1.00800000E+00  0.00000000E+00  1.60000000E+01
  1.00800000E+00  1.00800000E+00  0.00000000E+00  1.60000000E+01  1.00800000E+00
  1.00800000E+00  0.00000000E+00  1.60000000E+01  1.00800000E+00  1.00800000E+00
  0.00000000E+00  1.60000000E+01  1.00800000E+00  1.00800000E+00  0.00000000E+00
  1.60000000E+01  1.00800000E+00  1.00800000E+00  0.00000000E+00  1.60000000E+01
  1.00800000E+00  1.00800000E+00  0.00000000E+00  1.60000000E+01  1.00800000E+00
  1.00800000E+00  0.00000000E+00  1.60000000E+01  1.00800000E+00  1.00800000E+00
  0.00000000E+00  1.60000000E+01  1.00800000E+00  1.00800000E+00  0.00000000E+00
  1.60000000E+01  1.00800000E+00  1.00800000E+00  0.00000000E+00  1.60000000E+01
  1.00800000E+00  1.00800000E+00  0.00000000E+00  1.60000000E+01  1.00800000E+00
  1.00800000E+00  0.00000000E+00  1.60000000E+01  1.00800000E+00  1.00800000E+00
  0.00000000E+00  1.60000000E+01  1.00800000E+00  1.00800000E+00  0.00000000E+00
  1.60000000E+01  1.00800000E+00  1.00800000E+00  0.00000000E+00  1.60000000E+01
  1.00800000E+00  1.00800000E+00  0.00000000E+00  1.60000000E+01  1.00800000E+00
  1.00800000E+00  0.00000000E+00  1.60000000E+01  1.00800000E+00  1.00800000E+00
  0.00000000E+00  1.60000000E+01  1.00800000E+00  1.00800000E+00  0.00000000E+00
  1.60000000E+01  1.00800000E+00  1.00800000E+00  0.00000000E+00  1.60000000E+01
  1.00800000E+00  1.00800000E+00  0.00000000E+00  1.60000000E+01  1.00800000E+00
  1.00800000E+00  0.00000000E+00  1.60000000E+01  1.00800000E+00  1.00800000E+00
  0.00000000E+00  1.60000000E+01  1.00800000E+00  1.00800000E+00  0.00000000E+00
  1.60000000E+01  1.00800000E+00  1.00800000E+00  0.00000000E+00  1.60000000E+01
  1.00800000E+00  1.00800000E+00  0.00000000E+00  1.60000000E+01  1.00800000E+00
  1.00800000E+00  0.00000000E+00  1.60000000E+01  1.00800000E+00  1.00800000E+00
  0.00000000E+00  1.60000000E+01  1.00800000E+00  1.00800000E+00  0.00000000E+00
  1.60000000E+01  1.00800000E+00  1.00800000E+00  0.00000000E+00  1.60000000E+01
  1.00800000E+00  1.00800000E+00  0.00000000E+00  1.60000000E+01  1.00800000E+00
  1.00800000E+00  0.00000000E+00  1.60000000E+01  1.00800000E+00  1.00800000E+00
  0.00000000E+00  1.60000000E+01  1.00800000E+00  1.00800000E+00  0.00000000E+00
  1.60000000E+01  1.00800000E+00  1.00800000E+00  0.00000000E+00  1.60000000E+01
  1.00800000E+00  1.00800000E+00  0.00000000E+00  1.60000000E+01  1.00800000E+00
  1.00800000E+00  0.00000000E+00  1.60000000E+01  1.00800000E+00  1.00800000E+00
  0.00000000E+00  1.60000000E+01  1.00800000E+00  1.00800000E+00  0.00000000E+00
  1.60000000E+01  1.00800000E+00  1.00800000E+00  0.00000000E+00  1.60000000E+01
  1.00800000E+00  1.00800000E+00  0.00000000E+00  1.60000000E+01  1.00800000E+00
  1.00800000E+00  0.00000000E+00  1.60000000E+01  1.00800000E+00  1.00800000E+00
  0.00000000E+00  1.60000000E+01  1.00800000E+00  1.00800000E+00  0.00000000E+00
  1.60000000E+01  1.00800000E+00  1.00800000E+00  0.00000000E+00  1.60000000E+01
  1.00800000E+00  1.00800000E+00  0.00000000E+00  1.60000000E+01  1.00800000E+00
  1.00800000E+00  0.00000000E+00  1.60000000E+01  1.00800000E+00  1.00800000E+00
  0.00000000E+00  1.60000000E+01  1.00800000E+00  1.00800000E+00  0.00000000E+00
  1.60000000E+01  1.00800000E+00  1.00800000E+00  0.00000000E+00  1.60000000E+01
  1.00800000E+00  1.00800000E+00  0.00000000E+00  1.60000000E+01  1.00800000E+00
  1.00800000E+00  0.00000000E+00  1.60000000E+01  1.00800000E+00  1.00800000E+00
  0.00000000E+00  1.60000000E+01  1.00800000E+00  1.00800000E+00  0.00000000E+00
  1.60000000E+01  1.00800000E+00  1.00800000E+00  0.00000000E+00  1.60000000E+01
  1.00800000E+00  1.00800000E+00  0.00000000E+00  1.60000000E+01  1.00800000E+00
  1.00800000E+00  0.00000000E+00  1.60000000E+01  1.00800000E+00  1.00800000E+00
  0.00000000E+00  1.60000000E+01  1.00800000E+00  1.00800000E+00  0.00000000E+00
  1.60000000E+01  1.00800000E+00  1.00800000E+00  0.00000000E+00  1.60000000E+01
  1.00800000E+00  1.00800000E+00  0.00000000E+00  1.60000000E+01  1.00800000E+00
  1.00800000E+00  0.00000000E+00  1.60000000E+01  1.00800000E+00  1.00800000E+00
  0.00000000E+00  1.60000000E+01  1.00800000E+00  1.00800000E+00  0.00000000E+00
  1.60000000E+01  1.00800000E+00  1.00800000E+00  0.00000000E+00  1.60000000E+01
  1.00800000E+00  1.00800000E+00  0.00000000E+00  1.60000000E+01  1.00800000E+00
  1.00800000E+00  0.00000000E+00  1.60000000E+01  1.00800000E+00  1.00800000E+00
  0.00000000E+00  1.60000000E+01  1.00800000E+00  1.00800000E+00  0.00000000E+00
  1.60000000E+01  1.00800000E+00  1.00800000E+00  0.00000000E+00  1.60000000E+01
  1.00800000E+00  1.00800000E+00  0.00000000E+00  1.60000000E+01  1.00800000E+00
  1.00800000E+00  0.00000000E+00  1.60000000E+01  1.00800000E+00  1.00800000E+00
  0.00000000E+00  1.60000000E+01  1.00800000E+00  1.00800000E+00  0.00000000E+00
  1.60000000E+01  1.00800000E+00  1.00800000E+00  0.00000000E+00  1.60000000E+01
  1.00800000E+00  1.00800000E+00  0.00000000E+00  1.60000000E+01  1.00800000E+00
  1.00800000E+00  0.00000000E+00  1.60000000E+01  1.00800000E+00  1.00800000E+00
  0.00000000E+00  1.60000000E+01  1.00800000E+00  1.00800000E+00  0.00000000E+00
  1.60000000E+01  1.00800000E+00  1.00800000E+00  0.00000000E+00  1.60000000E+01
  1.00800000E+00  1.00800000E+00  0.00000000E+00  1.60000000E+01  1.00800000E+00
  1.00800000E+00  0.00000000E+00  1.60000000E+01  1.00800000E+00  1.00800000E+00
  0.00000000E+00  1.60000000E+01  1.00800000E+00  1.00800000E+00  0.00000000E+00
  1.60000000E+01  1.00800000E+00  1.00800000E+00  0.00000000E+00  1.60000000E+01
  1.00800000E+00  1.00800000E+00  0.00000000E+00  1.60000000E+01  1.00800000E+00
  1.00800000E+00  0.00000000E+00  1.60000000E+01  1.00800000E+00  1.00800000E+00
  0.00000000E+00  1.60000000E+01  1.00800000E+00  1.00800000E+00  0.00000000E+00
  1.60000000E+01  1.00800000E+00  1.00800000E+00  0.00000000E+00  1.60000000E+01
  1.00800000E+00  1.00800000E+00  0.00000000E+00  1.60000000E+01  1.00800000E+00
  1.00800000E+00  0.00000000E+00  1.60000000E+01  1.00800000E+00  1.00800000E+00
  0.00000000E+00  1.60000000E+01  1.00800000E+00  1.00800000E+00  0.00000000E+00
  1.60000000E+01  1.00800000E+00  1.00800000E+00  0.00000000E+00  1.60000000E+01
  1.00800000E+00  1.00800000E+00  0.00000000E+00  1.60000000E+01  1.00800000E+00
  1.00800000E+00  0.00000000E+00  1.60000000E+01  1.00800000E+00  1.00800000E+00
  0.00000000E+00  1.60000000E+01  1.00800000E+00  1.00800000E+00  0.00000000E+00
  1.60000000E+01  1.00800000E+00  1.00800000E+00  0.00000000E+00  1.60000000E+01
  1.00800000E+00  1.00800000E+00  0.00000000E+00  1.60000000E+01  1.00800000E+00
  1.00800000E+00  0.00000000E+00  1.60000000E+01  1.00800000E+00  1.00800000E+00
  0.00000000E+00  1.60000000E+01  1.00800000E+00  1.00800000E+00  0.00000000E+00
  1.60000000E+01  1.00800000E+00  1.00800000E+00  0.00000000E+00  1.60000000E+01
  1.00800000E+00  1.00800000E+00  0.00000000E+00  1.60000000E+01  1.00800000E+00
  1.00800000E+00  0.00000000E+00  1.60000000E+01  1.00800000E+00  1.00800000E+00
  0.00000000E+00  1.60000000E+01  1.00800000E+00  1.00800000E+00  0.00000000E+00
  1.60000000E+01  1.00800000E+00  1.00800000E+00  0.00000000E+00  1.60000000E+01
  1.00800000E+00  1.00800000E+00  0.00000000E+00  1.60000000E+01  1.00800000E+00
  1.00800000E+00  0.00000000E+00  1.60000000E+01  1.00800000E+00  1.00800000E+00
  0.00000000E+00  1.60000000E+01  1.00800000E+00  1.00800000E+00  0.00000000E+00
  1.60000000E+01  1.00800000E+00  1.00800000E+00  0.00000000E+00  1.60000000E+01
  1.00800000E+00  1.00800000E+00  0.00000000E+00  1.60000000E+01  1.00800000E+00
  1.00800000E+00  0.00000000E+00  1.60000000E+01  1.00800000E+00  1.00800000E+00
  0.00000000E+00  1.60000000E+01  1.00800000E+00  1.00800000E+00  0.00000000E+00
  1.60000000E+01  1.00800000E+00  1.00800000E+00  0.00000000E+00  1.60000000E+01
  1.00800000E+00  1.00800000E+00  0.00000000E+00  1.60000000E+01  1.00800000E+00
  1.00800000E+00  0.00000000E+00  1.60000000E+01  1.00800000E+00  1.00800000E+00
  0.00000000E+00  1.60000000E+01  1.00800000E+00  1.00800000E+00  0.00000000E+00
  1.60000000E+01  1.00800000E+00  1.00800000E+00  0.00000000E+00  1.60000000E+01
  1.00800000E+00  1.00800000E+00  0.00000000E+00  1.60000000E+01  1.00800000E+00
  1.00800000E+00  0.00000000E+00  1.60000000E+01  1.00800000E+00  1.00800000E+00
  0.00000000E+00  1.60000000E+01  1.00800000E+00  1.00800000E+00  0.00000000E+00
  1.60000000E+01  1.00800000E+00  1.00800000E+00  0.00000000E+00  1.60000000E+01
  1.00800000E+00  1.00800000E+00  0.00000000E+00  1.60000000E+01  1.00800000E+00
  1.00800000E+00  0.00000000E+00  1.60000000E+01  1.00800000E+00  1.00800000E+00
  0.00000000E+00  1.60000000E+01  1.00800000E+00  1.00800000E+00  0.00000000E+00
  1.60000000E+01  1.00800000E+00  1.00800000E+00  0.00000000E+00  1.60000000E+01
  1.00800000E+00  1.00800000E+00  0.00000000E+00  1.60000000E+01  1.00800000E+00
  1.00800000E+00  0.00000000E+00  1.60000000E+01  1.00800000E+00  1.00800000E+00
  0.00000000E+00  1.60000000E+01  1.00800000E+00  1.00800000E+00  0.00000000E+00
  1.60000000E+01  1.00800000E+00  1.00800000E+00  0.00000000E+00  1.60000000E+01
  1.00800000E+00  1.00800000E+00  0.00000000E+00  1.60000000E+01  1.00800000E+00
  1.00800000E+00  0.00000000E+00  1.60000000E+01  1.00800000E+00  1.00800000E+00
  0.00000000E+00  1.60000000E+01  1.00800000E+00  1.00800000E+00  0.00000000E+00
  1.60000000E+01  1.00800000E+00  1.00800000E+00  0.00000000E+00  1.60000000E+01
  1.00800000E+00  1.00800000E+00  0.00000000E+00  1.60000000E+01  1.00800000E+00
  1.00800000E+00  0.00000000E+00  1.60000000E+01  1.00800000E+00  1.00800000E+00
  0.00000000E+00  1.60000000E+01  1.00800000E+00  1.00800000E+00  0.00000000E+00
  1.60000000E+01  1.00800000E+00  1.00800000E+00  0.00000000E+00  1.60000000E+01
  1.00800000E+00  1.00800000E+00  0.00000000E+00  1.60000000E+01  1.00800000E+00
  1.00800000E+00  0.00000000E+00  1.60000000E+01  1.00800000E+00  1.00800000E+00
  0.00000000E+00  1.60000000E+01  1.00800000E+00  1.00800000E+00  0.00000000E+00
  1.60000000E+01  1.00800000E+00  1.00800000E+00  0.00000000E+00  1.60000000E+01
  1.00800000E+00  1.00800000E+00  0.00000000E+00  1.60000000E+01  1.00800000E+00
  1.00800000E+00  0.00000000E+00  1.60000000E+01  1.00800000E+00  1.00800000E+00
  0.00000000E+00  1.60000000E+01  1.00800000E+00  1.00800000E+00  0.00000000E+00
  1.60000000E+01  1.00800000E+00  1.00800000E+00  0.00000000E+00  1.60000000E+01
  1.00800000E+00  1.00800000E+00  0.00000000E+00  1.60000000E+01  1.00800000E+00
  1.00800000E+00  0.00000000E+00  1.60000000E+01  1.00800000E+00  1.00800000E+00
  0.00000000E+00  1.60000000E+01  1.00800000E+00  1.00800000E+00  0.00000000E+00
  1.60000000E+01  1.00800000E+00  1.00800000E+00  0.00000000E+00  1.60000000E+01
  1.00800000E+00  1.00800000E+00  0.00000000E+00  1.60000000E+01  1.00800000E+00
  1.00800000E+00  0.00000000E+00  1.60000000E+01  1.00800000E+00  1.00800000E+00
  0.00000000E+00  1.60000000E+01  1.00800000E+00  1.00800000E+00  0.00000000E+00
  1.60000000E+01  1.00800000E+00  1.00800000E+00  0.00000000E+00  1.60000000E+01
  1.00800000E+00  1.00800000E+00  0.00000000E+00  1.60000000E+01  1.00800000E+00
  1.00800000E+00  0.00000000E+00  1.60000000E+01  1.00800000E+00  1.00800000E+00
  0.00000000E+00  1.60000000E+01  1.00800000E+00  1.00800000E+00  0.00000000E+00
  1.60000000E+01  1.00800000E+00  1.00800000E+00  0.00000000E+00  1.60000000E+01
  1.00800000E+00  1.00800000E+00  0.00000000E+00  1.60000000E+01  1.00800000E+00
  1.00800000E+00  0.00000000E+00  1.60000000E+01  1.00800000E+00  1.00800000E+00
  0.00000000E+00  1.60000000E+01  1.00800000E+00  1.00800000E+00  0.00000000E+00
  1.60000000E+01  1.00800000E+00  1.00800000E+00  0.00000000E+00  1.60000000E+01
  1.00800000E+00  1.00800000E+00  0.00000000E+00  1.60000000E+01  1.00800000E+00
  1.00800000E+00  0.00000000E+00  1.60000000E+01  1.00800000E+00  1.00800000E+00
  0.00000000E+00  1.60000000E+01  1.00800000E+00  1.00800000E+00  0.00000000E+00
  1.60000000E+01  1.00800000E+00  1.00800000E+00  0.00000000E+00  1.60000000E+01
  1.00800000E+00  1.00800000E+00  0.00000000E+00  1.60000000E+01  1.00800000E+00
  1.00800000E+00  0.00000000E+00  1.60000000E+01  1.00800000E+00  1.00800000E+00
  0.00000000E+00  1.60000000E+01  1.00800000E+00  1.00800000E+00  0.00000000E+00
  1.60000000E+01  1.00800000E+00  1.00800000E+00  0.00000000E+00  1.60000000E+01
  1.00800000E+00  1.00800000E+00  0.00000000E+00  1.60000000E+01  1.00800000E+00
  1.00800000E+00  0.00000000E+00  1.60000000E+01  1.00800000E+00  1.00800000E+00
  0.00000000E+00  1.60000000E+01  1.00800000E+00  1.00800000E+00  0.00000000E+00
  1.60000000E+01  1.00800000E+00  1.00800000E+00  0.00000000E+00  1.60000000E+01
  1.00800000E+00  1.00800000E+00  0.00000000E+00  1.60000000E+01  1.00800000E+00
  1.00800000E+00  0.00000000E+00  1.60000000E+01  1.00800000E+00  1.00800000E+00
  0.00000000E+00  1.60000000E+01  1.00800000E+00  1.00800000E+00  0.00000000E+00
  1.60000000E+01  1.00800000E+00  1.00800000E+00  0.00000000E+00  1.60000000E+01
  1.00800000E+00  1.00800000E+00  0.00000000E+00  1.60000000E+01  1.00800000E+00
  1.00800000E+00  0.00000000E+00  1.60000000E+01  1.00800000E+00  1.00800000E+00
  0.00000000E+00  1.60000000E+01  1.00800000E+00  1.00800000E+00  0.00000000E+00
  1.60000000E+01  1.00800000E+00  1.00800000E+00  0.00000000E+00  1.60000000E+01
  1.00800000E+00  1.00800000E+00  0.00000000E+00  1.60000000E+01  1.00800000E+00
  1.00800000E+00  0.00000000E+00  1.60000000E+01  1.00800000E+00  1.00800000E+00
  0.00000000E+00  1.60000000E+01  1.00800000E+00  1.00800000E+00  0.00000000E+00
  1.60000000E+01  1.00800000E+00  1.00800000E+00  0.00000000E+00  1.60000000E+01
  1.00800000E+00  1.00800000E+00  0.00000000E+00  1.60000000E+01  1.00800000E+00
  1.00800000E+00  0.00000000E+00  1.60000000E+01  1.00800000E+00  1.00800000E+00
  0.00000000E+00  1.60000000E+01  1.00800000E+00  1.00800000E+00  0.00000000E+00
  1.60000000E+01  1.00800000E+00  1.00800000E+00  0.00000000E+00  1.60000000E+01
  1.00800000E+00  1.00800000E+00  0.00000000E+00  1.60000000E+01  1.00800000E+00
  1.00800000E+00  0.00000000E+00  1.60000000E+01  1.00800000E+00  1.00800000E+00
  0.00000000E+00  1.60000000E+01  1.00800000E+00  1.00800000E+00  0.00000000E+00
  1.60000000E+01  1.00800000E+00  1.00800000E+00  0.00000000E+00  1.60000000E+01
  1.00800000E+00  1.00800000E+00  0.00000000E+00  1.60000000E+01  1.00800000E+00
  1.00800000E+00  0.00000000E+00  1.60000000E+01  1.00800000E+00  1.00800000E+00
  0.00000000E+00  1.60000000E+01  1.00800000E+00  1.00800000E+00  0.00000000E+00
  1.60000000E+01  1.00800000E+00  1.00800000E+00  0.00000000E+00  1.60000000E+01
  1.00800000E+00  1.00800000E+00  0.00000000E+00  1.60000000E+01  1.00800000E+00
  1.00800000E+00  0.00000000E+00  1.60000000E+01  1.00800000E+00  1.00800000E+00
  0.00000000E+00  1.60000000E+01  1.00800000E+00  1.00800000E+00  0.00000000E+00
  1.60000000E+01  1.00800000E+00  1.00800000E+00  0.00000000E+00  1.60000000E+01
  1.00800000E+00  1.00800000E+00  0.00000000E+00  1.60000000E+01  1.00800000E+00
  1.00800000E+00  0.00000000E+00  1.60000000E+01  1.00800000E+00  1.00800000E+00
  0.00000000E+00  1.60000000E+01  1.00800000E+00  1.00800000E+00  0.00000000E+00
  1.60000000E+01  1.00800000E+00  1.00800000E+00  0.00000000E+00  1.60000000E+01
  1.00800000E+00  1.00800000E+00  0.00000000E+00  1.60000000E+01  1.00800000E+00
  1.00800000E+00  0.00000000E+00  1.60000000E+01  1.00800000E+00  1.00800000E+00
  0.00000000E+00  1.60000000E+01  1.00800000E+00  1.00800000E+00  0.00000000E+00
  1.60000000E+01  1.00800000E+00  1.00800000E+00  0.00000000E+00  1.60000000E+01
  1.00800000E+00  1.00800000E+00  0.00000000E+00  1.60000000E+01  1.00800000E+00
  1.00800000E+00  0.00000000E+00  1.60000000E+01  1.00800000E+00  1.00800000E+00
  0.00000000E+00  1.60000000E+01  1.00800000E+00  1.00800000E+00  0.00000000E+00
  1.60000000E+01  1.00800000E+00  1.00800000E+00  0.00000000E+00  1.60000000E+01
  1.00800000E+00  1.00800000E+00  0.00000000E+00  1.60000000E+01  1.00800000E+00
  1.00800000E+00  0.00000000E+00  1.60000000E+01  1.00800000E+00  1.00800000E+00
  0.00000000E+00  1.60000000E+01  1.00800000E+00  1.00800000E+00  0.00000000E+00
  1.60000000E+01  1.00800000E+00  1.00800000E+00  0.00000000E+00  1.60000000E+01
  1.00800000E+00  1.00800000E+00  0.00000000E+00  1.60000000E+01  1.00800000E+00
  1.00800000E+00  0.00000000E+00  1.60000000E+01  1.00800000E+00  1.00800000E+00
  0.00000000E+00  1.60000000E+01  1.00800000E+00  1.00800000E+00  0.00000000E+00
  1.60000000E+01  1.00800000E+00  1.00800000E+00  0.00000000E+00  1.60000000E+01
  1.00800000E+00  1.00800000E+00  0.00000000E+00  1.60000000E+01  1.00800000E+00
  1.00800000E+00  0.00000000E+00  1.60000000E+01  1.00800000E+00  1.00800000E+00
  0.00000000E+00  1.60000000E+01  1.00800000E+00  1.00800000E+00  0.00000000E+00
  1.60000000E+01  1.00800000E+00  1.00800000E+00  0.00000000E+00  1.60000000E+01
  1.00800000E+00  1.00800000E+00  0.00000000E+00  1.60000000E+01  1.00800000E+00
  1.00800000E+00  0.00000000E+00  1.60000000E+01  1.00800000E+00  1.00800000E+00
  0.00000000E+00  1.60000000E+01  1.00800000E+00  1.00800000E+00  0.00000000E+00
  1.60000000E+01  1.00800000E+00  1.00800000E+00  0.00000000E+00  1.60000000E+01
  1.00800000E+00  1.00800000E+00  0.00000000E+00  1.60000000E+01  1.00800000E+00
  1.00800000E+00  0.00000000E+00  1.60000000E+01  1.00800000E+00  1.00800000E+00
  0.00000000E+00  1.60000000E+01  1.00800000E+00  1.00800000E+00  0.00000000E+00
  1.60000000E+01  1.00800000E+00  1.00800000E+00  0.00000000E+00  1.60000000E+01
  1.00800000E+00  1.00800000E+00  0.00000000E+00  1.60000000E+01  1.00800000E+00
  1.00800000E+00  0.00000000E+00  1.60000000E+01  1.00800000E+00  1.00800000E+00
  0.00000000E+00  1.60000000E+01  1.00800000E+00  1.00800000E+00  0.00000000E+00
  1.60000000E+01  1.00800000E+00  1.00800000E+00  0.00000000E+00  1.60000000E+01
  1.00800000E+00  1.00800000E+00  0.00000000E+00  1.60000000E+01  1.00800000E+00
  1.00800000E+00  0.00000000E+00  1.60000000E+01  1.00800000E+00  1.00800000E+00
  0.00000000E+00  1.60000000E+01  1.00800000E+00  1.00800000E+00  0.00000000E+00
  1.60000000E+01  1.00800000E+00  1.00800000E+00  0.00000000E+00  1.60000000E+01
  1.00800000E+00  1.00800000E+00  0.00000000E+00  1.60000000E+01  1.00800000E+00
  1.00800000E+00  0.00000000E+00  1.60000000E+01  1.00800000E+00  1.00800000E+00
  0.00000000E+00  1.60000000E+01  1.00800000E+00  1.00800000E+00  0.00000000E+00
  1.60000000E+01  1.00800000E+00  1.00800000E+00  0.00000000E+00  1.60000000E+01
  1.00800000E+00  1.00800000E+00  0.00000000E+00  1.60000000E+01  1.00800000E+00
  1.00800000E+00  0.00000000E+00  1.60000000E+01  1.00800000E+00  1.00800000E+00
  0.00000000E+00  1.60000000E+01  1.00800000E+00  1.00800000E+00  0.00000000E+00
  1.60000000E+01  1.00800000E+00  1.00800000E+00  0.00000000E+00  1.60000000E+01
  1.00800000E+00  1.00800000E+00  0.00000000E+00  1.60000000E+01  1.00800000E+00
  1.00800000E+00  0.00000000E+00  1.60000000E+01  1.00800000E+00  1.00800000E+00
  0.00000000E+00  1.60000000E+01  1.00800000E+00  1.00800000E+00  0.00000000E+00
  1.60000000E+01  1.00800000E+00  1.00800000E+00  0.00000000E+00  1.60000000E+01
  1.00800000E+00  1.00800000E+00  0.00000000E+00  1.60000000E+01  1.00800000E+00
  1.00800000E+00  0.00000000E+00  1.60000000E+01  1.00800000E+00  1.00800000E+00
  0.00000000E+00  1.60000000E+01  1.00800000E+00  1.00800000E+00  0.00000000E+00
  1.60000000E+01  1.00800000E+00  1.00800000E+00  0.00000000E+00  1.60000000E+01
  1.00800000E+00  1.00800000E+00  0.00000000E+00  1.60000000E+01  1.00800000E+00
  1.00800000E+00  0.00000000E+00  1.60000000E+01  1.00800000E+00  1.00800000E+00
  0.00000000E+00  1.60000000E+01  1.00800000E+00  1.00800000E+00  0.00000000E+00
  1.60000000E+01  1.00800000E+00  1.00800000E+00  0.00000000E+00  1.60000000E+01
  1.00800000E+00  1.00800000E+00  0.00000000E+00  1.60000000E+01  1.00800000E+00
  1.00800000E+00  0.00000000E+00  1.60000000E+01  1.00800000E+00  1.00800000E+00
  0.00000000E+00  1.60000000E+01  1.00800000E+00  1.00800000E+00  0.00000000E+00
  1.60000000E+01  1.00800000E+00  1.00800000E+00  0.00000000E+00  1.60000000E+01
  1.00800000E+00  1.00800000E+00  0.00000000E+00  1.60000000E+01  1.00800000E+00
  1.00800000E+00  0.00000000E+00  1.60000000E+01  1.00800000E+00  1.00800000E+00
  0.00000000E+00  1.60000000E+01  1.00800000E+00  1.00800000E+00  0.00000000E+00
  1.60000000E+01  1.00800000E+00  1.00800000E+00  0.00000000E+00  1.60000000E+01
  1.00800000E+00  1.00800000E+00  0.00000000E+00  1.60000000E+01  1.00800000E+00
  1.00800000E+00  0.00000000E+00  1.60000000E+01  1.00800000E+00  1.00800000E+00
  0.00000000E+00  1.60000000E+01  1.00800000E+00  1.00800000E+00  0.00000000E+00
  1.60000000E+01  1.00800000E+00  1.00800000E+00  0.00000000E+00  1.60000000E+01
  1.00800000E+00  1.00800000E+00  0.00000000E+00  1.60000000E+01  1.00800000E+00
  1.00800000E+00  0.00000000E+00  1.60000000E+01  1.00800000E+00  1.00800000E+00
  0.00000000E+00  1.60000000E+01  1.00800000E+00  1.00800000E+00  0.00000000E+00
  1.60000000E+01  1.00800000E+00  1.00800000E+00  0.00000000E+00  1.60000000E+01
  1.00800000E+00  1.00800000E+00  0.00000000E+00  1.60000000E+01  1.00800000E+00
  1.00800000E+00  0.00000000E+00  1.60000000E+01  1.00800000E+00  1.00800000E+00
  0.00000000E+00  1.60000000E+01  1.00800000E+00  1.00800000E+00  0.00000000E+00
  1.60000000E+01  1.00800000E+00  1.00800000E+00  0.00000000E+00  1.60000000E+01
  1.00800000E+00  1.00800000E+00  0.00000000E+00  1.60000000E+01  1.00800000E+00
  1.00800000E+00  0.00000000E+00  1.60000000E+01  1.00800000E+00  1.00800000E+00
  0.00000000E+00  1.60000000E+01  1.00800000E+00  1.00800000E+00  0.00000000E+00
  1.60000000E+01  1.00800000E+00  1.00800000E+00  0.00000000E+00  1.60000000E+01
  1.00800000E+00  1.00800000E+00  0.00000000E+00  1.60000000E+01  1.00800000E+00
  1.00800000E+00  0.00000000E+00  1.60000000E+01  1.00800000E+00  1.00800000E+00
  0.00000000E+00  1.60000000E+01  1.00800000E+00  1.00800000E+00  0.00000000E+00
  1.60000000E+01  1.00800000E+00  1.00800000E+00  0.00000000E+00  1.60000000E+01
  1.00800000E+00  1.00800000E+00  0.00000000E+00  1.60000000E+01  1.00800000E+00
  1.00800000E+00  0.00000000E+00  1.60000000E+01  1.00800000E+00  1.00800000E+00
  0.00000000E+00  1.60000000E+01  1.00800000E+00  1.00800000E+00  0.00000000E+00
  1.60000000E+01  1.00800000E+00  1.00800000E+00  0.00000000E+00  1.60000000E+01
  1.00800000E+00  1.00800000E+00  0.00000000E+00  1.60000000E+01  1.00800000E+00
  1.00800000E+00  0.00000000E+00  1.60000000E+01  1.00800000E+00  1.00800000E+00
  0.00000000E+00  1.60000000E+01  1.00800000E+00  1.00800000E+00  0.00000000E+00
  1.60000000E+01  1.00800000E+00  1.00800000E+00  0.00000000E+00  1.60000000E+01
  1.00800000E+00  1.00800000E+00  0.00000000E+00  1.60000000E+01  1.00800000E+00
  1.00800000E+00  0.00000000E+00  1.60000000E+01  1.00800000E+00  1.00800000E+00
  0.00000000E+00  1.60000000E+01  1.00800000E+00  1.00800000E+00  0.00000000E+00
  1.60000000E+01  1.00800000E+00  1.00800000E+00  0.00000000E+00  1.60000000E+01
  1.00800000E+00  1.00800000E+00  0.00000000E+00  1.60000000E+01  1.00800000E+00
  1.00800000E+00  0.00000000E+00  1.60000000E+01  1.00800000E+00  1.00800000E+00
  0.00000000E+00  1.60000000E+01  1.00800000E+00  1.00800000E+00  0.00000000E+00
  1.60000000E+01  1.00800000E+00  1.00800000E+00  0.00000000E+00  1.60000000E+01
  1.00800000E+00  1.00800000E+00  0.00000000E+00  1.60000000E+01  1.00800000E+00
  1.00800000E+00  0.00000000E+00  1.60000000E+01  1.00800000E+00  1.00800000E+00
  0.00000000E+00  1.60000000E+01  1.00800000E+00  1.00800000E+00  0.00000000E+00
  1.60000000E+01  1.00800000E+00  1.00800000E+00  0.00000000E+00  1.60000000E+01
  1.00800000E+00  1.00800000E+00  0.00000000E+00  1.60000000E+01  1.00800000E+00
  1.00800000E+00  0.00000000E+00  1.60000000E+01  1.00800000E+00  1.00800000E+00
  0.00000000E+00  1.60000000E+01  1.00800000E+00  1.00800000E+00  0.00000000E+00
  1.60000000E+01  1.00800000E+00  1.00800000E+00  0.00000000E+00  1.60000000E+01
  1.00800000E+00  1.00800000E+00  0.00000000E+00  1.60000000E+01  1.00800000E+00
  1.00800000E+00  0.00000000E+00  1.60000000E+01  1.00800000E+00  1.00800000E+00
  0.00000000E+00  1.60000000E+01  1.00800000E+00  1.00800000E+00  0.00000000E+00
  1.60000000E+01  1.00800000E+00  1.00800000E+00  0.00000000E+00  1.60000000E+01
  1.00800000E+00  1.00800000E+00  0.00000000E+00  1.60000000E+01  1.00800000E+00
  1.00800000E+00  0.00000000E+00  1.60000000E+01  1.00800000E+00  1.00800000E+00
  0.00000000E+00  1.60000000E+01  1.00800000E+00  1.00800000E+00  0.00000000E+00
  1.60000000E+01  1.00800000E+00  1.00800000E+00  0.00000000E+00  1.60000000E+01
  1.00800000E+00  1.00800000E+00  0.00000000E+00  1.60000000E+01  1.00800000E+00
  1.00800000E+00  0.00000000E+00  1.60000000E+01  1.00800000E+00  1.00800000E+00
  0.00000000E+00  1.60000000E+01  1.00800000E+00  1.00800000E+00  0.00000000E+00
  1.60000000E+01  1.00800000E+00  1.00800000E+00  0.00000000E+00  1.60000000E+01
  1.00800000E+00  1.00800000E+00  0.00000000E+00  1.60000000E+01  1.00800000E+00
  1.00800000E+00  0.00000000E+00  1.60000000E+01  1.00800000E+00  1.00800000E+00
  0.00000000E+00  1.60000000E+01  1.00800000E+00  1.00800000E+00  0.00000000E+00
  1.60000000E+01  1.00800000E+00  1.00800000E+00  0.00000000E+00  1.60000000E+01
  1.00800000E+00  1.00800000E+00  0.00000000E+00  1.60000000E+01  1.00800000E+00
  1.00800000E+00  0.00000000E+00  1.60000000E+01  1.00800000E+00  1.00800000E+00
  0.00000000E+00  1.60000000E+01  1.00800000E+00  1.00800000E+00  0.00000000E+00
  1.60000000E+01  1.00800000E+00  1.00800000E+00  0.00000000E+00  1.60000000E+01
  1.00800000E+00  1.00800000E+00  0.00000000E+00  1.60000000E+01  1.00800000E+00
  1.00800000E+00  0.00000000E+00  1.60000000E+01  1.00800000E+00  1.00800000E+00
  0.00000000E+00  1.60000000E+01  1.00800000E+00  1.00800000E+00  0.00000000E+00
  1.60000000E+01  1.00800000E+00  1.00800000E+00  0.00000000E+00  1.60000000E+01
  1.00800000E+00  1.00800000E+00  0.00000000E+00  1.60000000E+01  1.00800000E+00
  1.00800000E+00  0.00000000E+00  1.60000000E+01  1.00800000E+00  1.00800000E+00
  0.00000000E+00  1.60000000E+01  1.00800000E+00  1.00800000E+00  0.00000000E+00
  1.60000000E+01  1.00800000E+00  1.00800000E+00  0.00000000E+00  1.60000000E+01
  1.00800000E+00  1.00800000E+00  0.00000000E+00  1.60000000E+01  1.00800000E+00
  1.00800000E+00  0.00000000E+00  1.60000000E+01  1.00800000E+00  1.00800000E+00
  0.00000000E+00  1.60000000E+01  1.00800000E+00  1.00800000E+00  0.00000000E+00
  1.60000000E+01  1.00800000E+00  1.00800000E+00  0.00000000E+00  1.60000000E+01
  1.00800000E+00  1.00800000E+00  0.00000000E+00  1.60000000E+01  1.00800000E+00
  1.00800000E+00  0.00000000E+00  1.60000000E+01  1.00800000E+00  1.00800000E+00
  0.00000000E+00  1.60000000E+01  1.00800000E+00  1.00800000E+00  0.00000000E+00
  1.60000000E+01  1.00800000E+00  1.00800000E+00  0.00000000E+00  1.60000000E+01
  1.00800000E+00  1.00800000E+00  0.00000000E+00  1.60000000E+01  1.00800000E+00
  1.00800000E+00  0.00000000E+00  1.60000000E+01  1.00800000E+00  1.00800000E+00
  0.00000000E+00  1.60000000E+01  1.00800000E+00  1.00800000E+00  0.00000000E+00
  1.60000000E+01  1.00800000E+00  1.00800000E+00  0.00000000E+00  1.60000000E+01
  1.00800000E+00  1.00800000E+00  0.00000000E+00  1.60000000E+01  1.00800000E+00
  1.00800000E+00  0.00000000E+00  1.60000000E+01  1.00800000E+00  1.00800000E+00
  0.00000000E+00  1.60000000E+01  1.00800000E+00  1.00800000E+00  0.00000000E+00
  1.60000000E+01  1.00800000E+00  1.00800000E+00  0.00000000E+00  1.60000000E+01
  1.00800000E+00  1.00800000E+00  0.00000000E+00  1.60000000E+01  1.00800000E+00
  1.00800000E+00  0.00000000E+00  1.60000000E+01  1.00800000E+00  1.00800000E+00
  0.00000000E+00  1.60000000E+01  1.00800000E+00  1.00800000E+00  0.00000000E+00
  1.60000000E+01  1.00800000E+00  1.00800000E+00  0.00000000E+00  1.60000000E+01
  1.00800000E+00  1.00800000E+00  0.00000000E+00  1.60000000E+01  1.00800000E+00
  1.00800000E+00  0.00000000E+00  1.60000000E+01  1.00800000E+00  1.00800000E+00
  0.00000000E+00  1.60000000E+01  1.00800000E+00  1.00800000E+00  0.00000000E+00
  1.60000000E+01  1.00800000E+00  1.00800000E+00  0.00000000E+00  1.60000000E+01
  1.00800000E+00  1.00800000E+00  0.00000000E+00  1.60000000E+01  1.00800000E+00
  1.00800000E+00  0.00000000E+00  1.60000000E+01  1.00800000E+00  1.00800000E+00
  0.00000000E+00  1.60000000E+01  1.00800000E+00  1.00800000E+00  0.00000000E+00
  1.60000000E+01  1.00800000E+00  1.00800000E+00  0.00000000E+00  1.60000000E+01
  1.00800000E+00  1.00800000E+00  0.00000000E+00  1.60000000E+01  1.00800000E+00
  1.00800000E+00  0.00000000E+00  1.60000000E+01  1.00800000E+00  1.00800000E+00
  0.00000000E+00  1.60000000E+01  1.00800000E+00  1.00800000E+00  0.00000000E+00
  1.60000000E+01  1.00800000E+00  1.00800000E+00  0.00000000E+00  1.60000000E+01
  1.00800000E+00  1.00800000E+00  0.00000000E+00  1.60000000E+01  1.00800000E+00
  1.00800000E+00  0.00000000E+00  1.60000000E+01  1.00800000E+00  1.00800000E+00
  0.00000000E+00  1.60000000E+01  1.00800000E+00  1.00800000E+00  0.00000000E+00
  1.60000000E+01  1.00800000E+00  1.00800000E+00  0.00000000E+00  1.60000000E+01
  1.00800000E+00  1.00800000E+00  0.00000000E+00  1.60000000E+01  1.00800000E+00
  1.00800000E+00  0.00000000E+00  1.60000000E+01  1.00800000E+00  1.00800000E+00
  0.00000000E+00  1.60000000E+01  1.00800000E+00  1.00800000E+00  0.00000000E+00
  1.60000000E+01  1.00800000E+00  1.00800000E+00  0.00000000E+00  1.60000000E+01
  1.00800000E+00  1.00800000E+00  0.00000000E+00  1.60000000E+01  1.00800000E+00
  1.00800000E+00  0.00000000E+00  1.60000000E+01  1.00800000E+00  1.00800000E+00
  0.00000000E+00  1.60000000E+01  1.00800000E+00  1.00800000E+00  0.00000000E+00
  1.60000000E+01  1.00800000E+00  1.00800000E+00  0.00000000E+00  1.60000000E+01
  1.00800000E+00  1.00800000E+00  0.00000000E+00  1.60000000E+01  1.00800000E+00
  1.00800000E+00  0.00000000E+00  1.60000000E+01  1.00800000E+00  1.00800000E+00
  0.00000000E+00  1.60000000E+01  1.00800000E+00  1.00800000E+00  0.00000000E+00
  1.60000000E+01  1.00800000E+00  1.00800000E+00  0.00000000E+00  1.60000000E+01
  1.00800000E+00  1.00800000E+00  0.00000000E+00  1.60000000E+01  1.00800000E+00
  1.00800000E+00  0.00000000E+00  1.60000000E+01  1.00800000E+00  1.00800000E+00
  0.00000000E+00  1.60000000E+01  1.00800000E+00  1.00800000E+00  0.00000000E+00
  1.60000000E+01  1.00800000E+00  1.00800000E+00  0.00000000E+00  1.60000000E+01
  1.00800000E+00  1.00800000E+00  0.00000000E+00  1.60000000E+01  1.00800000E+00
  1.00800000E+00  0.00000000E+00  1.60000000E+01  1.00800000E+00  1.00800000E+00
  0.00000000E+00  1.60000000E+01  1.00800000E+00  1.00800000E+00  0.00000000E+00
  1.60000000E+01  1.00800000E+00  1.00800000E+00  0.00000000E+00  1.60000000E+01
  1.00800000E+00  1.00800000E+00  0.00000000E+00  1.60000000E+01  1.00800000E+00
  1.00800000E+00  0.00000000E+00  1.60000000E+01  1.00800000E+00  1.00800000E+00
  0.00000000E+00  1.60000000E+01  1.00800000E+00  1.00800000E+00  0.00000000E+00
  1.60000000E+01  1.00800000E+00  1.00800000E+00  0.00000000E+00  1.60000000E+01
  1.00800000E+00  1.00800000E+00  0.00000000E+00  1.60000000E+01  1.00800000E+00
  1.00800000E+00  0.00000000E+00  1.60000000E+01  1.00800000E+00  1.00800000E+00
  0.00000000E+00  1.60000000E+01  1.00800000E+00  1.00800000E+00  0.00000000E+00
  1.60000000E+01  1.00800000E+00  1.00800000E+00  0.00000000E+00  1.60000000E+01
  1.00800000E+00  1.00800000E+00  0.00000000E+00  1.60000000E+01  1.00800000E+00
  1.00800000E+00  0.00000000E+00  1.60000000E+01  1.00800000E+00  1.00800000E+00
  0.00000000E+00  1.60000000E+01  1.00800000E+00  1.00800000E+00  0.00000000E+00
  1.60000000E+01  1.00800000E+00  1.00800000E+00  0.00000000E+00  1.60000000E+01
  1.00800000E+00  1.00800000E+00  0.00000000E+00  1.60000000E+01  1.00800000E+00
  1.00800000E+00  0.00000000E+00  1.60000000E+01  1.00800000E+00  1.00800000E+00
  0.00000000E+00  1.60000000E+01  1.00800000E+00  1.00800000E+00  0.00000000E+00
  1.60000000E+01  1.00800000E+00  1.00800000E+00  0.00000000E+00  1.60000000E+01
  1.00800000E+00  1.00800000E+00  0.00000000E+00  1.60000000E+01  1.00800000E+00
  1.00800000E+00  0.00000000E+00  1.60000000E+01  1.00800000E+00  1.00800000E+00
  0.00000000E+00  1.60000000E+01  1.00800000E+00  1.00800000E+00  0.00000000E+00
  1.60000000E+01  1.00800000E+00  1.00800000E+00  0.00000000E+00  1.60000000E+01
  1.00800000E+00  1.00800000E+00  0.00000000E+00  1.60000000E+01  1.00800000E+00
  1.00800000E+00  0.00000000E+00  1.60000000E+01  1.00800000E+00  1.00800000E+00
  0.00000000E+00  1.60000000E+01  1.00800000E+00  1.00800000E+00  0.00000000E+00
  1.60000000E+01  1.00800000E+00  1.00800000E+00  0.00000000E+00  1.60000000E+01
  1.00800000E+00  1.00800000E+00  0.00000000E+00  1.60000000E+01  1.00800000E+00
  1.00800000E+00  0.00000000E+00  1.60000000E+01  1.00800000E+00  1.00800000E+00
  0.00000000E+00  1.60000000E+01  1.00800000E+00  1.00800000E+00  0.00000000E+00
  1.60000000E+01  1.00800000E+00  1.00800000E+00  0.00000000E+00  1.60000000E+01
  1.00800000E+00  1.00800000E+00  0.00000000E+00  1.60000000E+01  1.00800000E+00
  1.00800000E+00  0.00000000E+00  1.60000000E+01  1.00800000E+00  1.00800000E+00
  0.00000000E+00  1.60000000E+01  1.00800000E+00  1.00800000E+00  0.00000000E+00
  1.60000000E+01  1.00800000E+00  1.00800000E+00  0.00000000E+00  1.60000000E+01
  1.00800000E+00  1.00800000E+00  0.00000000E+00  1.60000000E+01  1.00800000E+00
  1.00800000E+00  0.00000000E+00  1.60000000E+01  1.00800000E+00  1.00800000E+00
  0.00000000E+00  1.60000000E+01  1.00800000E+00  1.00800000E+00  0.00000000E+00
  1.60000000E+01  1.00800000E+00  1.00800000E+00  0.00000000E+00  1.60000000E+01
  1.00800000E+00  1.00800000E+00  0.00000000E+00  1.60000000E+01  1.00800000E+00
  1.00800000E+00  0.00000000E+00  1.60000000E+01  1.00800000E+00  1.00800000E+00
  0.00000000E+00  1.60000000E+01  1.00800000E+00  1.00800000E+00  0.00000000E+00
  1.60000000E+01  1.00800000E+00  1.00800000E+00  0.00000000E+00  1.60000000E+01
  1.00800000E+00  1.00800000E+00  0.00000000E+00  1.60000000E+01  1.00800000E+00
  1.00800000E+00  0.00000000E+00  1.60000000E+01  1.00800000E+00  1.00800000E+00
  0.00000000E+00  1.60000000E+01  1.00800000E+00  1.00800000E+00  0.00000000E+00
  1.60000000E+01  1.00800000E+00  1.00800000E+00  0.00000000E+00  1.60000000E+01
  1.00800000E+00  1.00800000E+00  0.00000000E+00  1.60000000E+01  1.00800000E+00
  1.00800000E+00  0.00000000E+00  1.60000000E+01  1.00800000E+00  1.00800000E+00
  0.00000000E+00  1.60000000E+01  1.00800000E+00  1.00800000E+00  0.00000000E+00
  1.60000000E+01  1.00800000E+00  1.00800000E+00  0.00000000E+00  1.60000000E+01
  1.00800000E+00  1.00800000E+00  0.00000000E+00  1.60000000E+01  1.00800000E+00
  1.00800000E+00  0.00000000E+00  1.60000000E+01  1.00800000E+00  1.00800000E+00
  0.00000000E+00  1.60000000E+01  1.00800000E+00  1.00800000E+00  0.00000000E+00
  1.60000000E+01  1.00800000E+00  1.00800000E+00  0.00000000E+00  1.60000000E+01
  1.00800000E+00  1.00800000E+00  0.00000000E+00  1.60000000E+01  1.00800000E+00
  1.00800000E+00  0.00000000E+00  1.60000000E+01  1.00800000E+00  1.00800000E+00
  0.00000000E+00  1.60000000E+01  1.00800000E+00  1.00800000E+00  0.00000000E+00
  1.60000000E+01  1.00800000E+00  1.00800000E+00  0.00000000E+00  1.60000000E+01
  1.00800000E+00  1.00800000E+00  0.00000000E+00  1.60000000E+01  1.00800000E+00
  1.00800000E+00  0.00000000E+00  1.60000000E+01  1.00800000E+00  1.00800000E+00
  0.00000000E+00  1.60000000E+01  1.00800000E+00  1.00800000E+00  0.00000000E+00
  1.60000000E+01  1.00800000E+00  1.00800000E+00  0.00000000E+00  1.60000000E+01
  1.00800000E+00  1.00800000E+00  0.00000000E+00  1.60000000E+01  1.00800000E+00
  1.00800000E+00  0.00000000E+00  1.60000000E+01  1.00800000E+00  1.00800000E+00
  0.00000000E+00  1.60000000E+01  1.00800000E+00  1.00800000E+00  0.00000000E+00
  1.60000000E+01  1.00800000E+00  1.00800000E+00  0.00000000E+00  1.60000000E+01
  1.00800000E+00  1.00800000E+00  0.00000000E+00  1.60000000E+01  1.00800000E+00
  1.00800000E+00  0.00000000E+00  1.60000000E+01  1.00800000E+00  1.00800000E+00
  0.00000000E+00  1.60000000E+01  1.00800000E+00  1.00800000E+00  0.00000000E+00
  1.60000000E+01  1.00800000E+00  1.00800000E+00  0.00000000E+00  1.60000000E+01
  1.00800000E+00  1.00800000E+00  0.00000000E+00  1.60000000E+01  1.00800000E+00
  1.00800000E+00  0.00000000E+00  1.60000000E+01  1.00800000E+00  1.00800000E+00
  0.00000000E+00  1.60000000E+01  1.00800000E+00  1.00800000E+00  0.00000000E+00
  1.60000000E+01  1.00800000E+00  1.00800000E+00  0.00000000E+00  1.60000000E+01
  1.00800000E+00  1.00800000E+00  0.00000000E+00  1.60000000E+01  1.00800000E+00
  1.00800000E+00  0.00000000E+00  1.60000000E+01  1.00800000E+00  1.00800000E+00
  0.00000000E+00  1.60000000E+01  1.00800000E+00  1.00800000E+00  0.00000000E+00
  1.60000000E+01  1.00800000E+00  1.00800000E+00  0.00000000E+00  1.60000000E+01
  1.00800000E+00  1.00800000E+00  0.00000000E+00  1.60000000E+01  1.00800000E+00
  1.00800000E+00  0.00000000E+00  1.60000000E+01  1.00800000E+00  1.00800000E+00
  0.00000000E+00  1.60000000E+01  1.00800000E+00  1.00800000E+00  0.00000000E+00
  1.60000000E+01  1.00800000E+00  1.00800000E+00  0.00000000E+00  1.60000000E+01
  1.00800000E+00  1.00800000E+00  0.00000000E+00  1.60000000E+01  1.00800000E+00
  1.00800000E+00  0.00000000E+00  1.60000000E+01  1.00800000E+00  1.00800000E+00
  0.00000000E+00  1.60000000E+01  1.00800000E+00  1.00800000E+00  0.00000000E+00
  1.60000000E+01  1.00800000E+00  1.00800000E+00  0.00000000E+00  1.60000000E+01
  1.00800000E+00  1.00800000E+00  0.00000000E+00  1.60000000E+01  1.00800000E+00
  1.00800000E+00  0.00000000E+00  1.60000000E+01  1.00800000E+00  1.00800000E+00
  0.00000000E+00  1.60000000E+01  1.00800000E+00  1.00800000E+00  0.00000000E+00
  1.60000000E+01  1.00800000E+00  1.00800000E+00  0.00000000E+00  1.60000000E+01
  1.00800000E+00  1.00800000E+00  0.00000000E+00  1.60000000E+01  1.00800000E+00
  1.00800000E+00  0.00000000E+00  1.60000000E+01  1.00800000E+00  1.00800000E+00
  0.00000000E+00  1.60000000E+01  1.00800000E+00  1.00800000E+00  0.00000000E+00
  1.60000000E+01  1.00800000E+00  1.00800000E+00  0.00000000E+00  1.60000000E+01
  1.00800000E+00  1.00800000E+00  0.00000000E+00  1.60000000E+01  1.00800000E+00
  1.00800000E+00  0.00000000E+00  1.60000000E+01  1.00800000E+00  1.00800000E+00
  0.00000000E+00  1.60000000E+01  1.00800000E+00  1.00800000E+00  0.00000000E+00
  1.60000000E+01  1.00800000E+00  1.00800000E+00  0.00000000E+00  1.60000000E+01
  1.00800000E+00  1.00800000E+00  0.00000000E+00  1.60000000E+01  1.00800000E+00
  1.00800000E+00  0.00000000E+00  1.60000000E+01  1.00800000E+00  1.00800000E+00
  0.00000000E+00  1.60000000E+01  1.00800000E+00  1.00800000E+00  0.00000000E+00
  1.60000000E+01  1.00800000E+00  1.00800000E+00  0.00000000E+00  1.60000000E+01
  1.00800000E+00  1.00800000E+00  0.00000000E+00  1.60000000E+01  1.00800000E+00
  1.00800000E+00  0.00000000E+00  1.60000000E+01  1.00800000E+00  1.00800000E+00
  0.00000000E+00  1.60000000E+01  1.00800000E+00  1.00800000E+00  0.00000000E+00
  1.60000000E+01  1.00800000E+00  1.00800000E+00  0.00000000E+00  1.60000000E+01
  1.00800000E+00  1.00800000E+00  0.00000000E+00  1.60000000E+01  1.00800000E+00
  1.00800000E+00  0.00000000E+00  1.60000000E+01  1.00800000E+00  1.00800000E+00
  0.00000000E+00  1.60000000E+01  1.00800000E+00  1.00800000E+00  0.00000000E+00
  1.60000000E+01  1.00800000E+00  1.00800000E+00  0.00000000E+00  1.60000000E+01
  1.00800000E+00  1.00800000E+00  0.00000000E+00  1.60000000E+01  1.00800000E+00
  1.00800000E+00  0.00000000E+00  1.60000000E+01  1.00800000E+00  1.00800000E+00
  0.00000000E+00  1.60000000E+01  1.00800000E+00  1.00800000E+00  0.00000000E+00
  1.60000000E+01  1.00800000E+00  1.00800000E+00  0.00000000E+00  1.60000000E+01
  1.00800000E+00  1.00800000E+00  0.00000000E+00  1.60000000E+01  1.00800000E+00
  1.00800000E+00  0.00000000E+00  1.60000000E+01  1.00800000E+00  1.00800000E+00
  0.00000000E+00  1.60000000E+01  1.00800000E+00  1.00800000E+00  0.00000000E+00
  1.60000000E+01  1.00800000E+00  1.00800000E+00  0.00000000E+00  1.60000000E+01
  1.00800000E+00  1.00800000E+00  0.00000000E+00  1.60000000E+01  1.00800000E+00
  1.00800000E+00  0.00000000E+00  1.60000000E+01  1.00800000E+00  1.00800000E+00
  0.00000000E+00  1.60000000E+01  1.00800000E+00  1.00800000E+00  0.00000000E+00
  1.60000000E+01  1.00800000E+00  1.00800000E+00  0.00000000E+00  1.60000000E+01
  1.00800000E+00  1.00800000E+00  0.00000000E+00  1.60000000E+01  1.00800000E+00
  1.00800000E+00  0.00000000E+00  1.60000000E+01  1.00800000E+00  1.00800000E+00
  0.00000000E+00  1.60000000E+01  1.00800000E+00  1.00800000E+00  0.00000000E+00
  1.60000000E+01  1.00800000E+00  1.00800000E+00  0.00000000E+00  1.60000000E+01
  1.00800000E+00  1.00800000E+00  0.00000000E+00  1.60000000E+01  1.00800000E+00
  1.00800000E+00  0.00000000E+00  1.60000000E+01  1.00800000E+00  1.00800000E+00
  0.00000000E+00  1.60000000E+01  1.00800000E+00  1.00800000E+00  0.00000000E+00
  1.60000000E+01  1.00800000E+00  1.00800000E+00  0.00000000E+00  1.60000000E+01
  1.00800000E+00  1.00800000E+00  0.00000000E+00  1.60000000E+01  1.00800000E+00
  1.00800000E+00  0.00000000E+00  1.60000000E+01  1.00800000E+00  1.00800000E+00
  0.00000000E+00  1.60000000E+01  1.00800000E+00  1.00800000E+00  0.00000000E+00
  1.60000000E+01  1.00800000E+00  1.00800000E+00  0.00000000E+00  1.60000000E+01
  1.00800000E+00  1.00800000E+00  0.00000000E+00  1.60000000E+01  1.00800000E+00
  1.00800000E+00  0.00000000E+00  1.60000000E+01  1.00800000E+00  1.00800000E+00
  0.00000000E+00  1.60000000E+01  1.00800000E+00  1.00800000E+00  0.00000000E+00
  1.60000000E+01  1.00800000E+00  1.00800000E+00  0.00000000E+00  1.60000000E+01
  1.00800000E+00  1.00800000E+00  0.00000000E+00  1.60000000E+01  1.00800000E+00
  1.00800000E+00  0.00000000E+00  1.60000000E+01  1.00800000E+00  1.00800000E+00
  0.00000000E+00  1.60000000E+01  1.00800000E+00  1.00800000E+00  0.00000000E+00
  1.60000000E+01  1.00800000E+00  1.00800000E+00  0.00000000E+00  1.60000000E+01
  1.00800000E+00  1.00800000E+00  0.00000000E+00  1.60000000E+01  1.00800000E+00
  1.00800000E+00  0.00000000E+00  1.60000000E+01  1.00800000E+00  1.00800000E+00
  0.00000000E+00  1.60000000E+01  1.00800000E+00  1.00800000E+00  0.00000000E+00
  1.60000000E+01  1.00800000E+00  1.00800000E+00  0.00000000E+00  1.60000000E+01
  1.00800000E+00  1.00800000E+00  0.00000000E+00  1.60000000E+01  1.00800000E+00
  1.00800000E+00  0.00000000E+00  1.60000000E+01  1.00800000E+00  1.00800000E+00
  0.00000000E+00  1.60000000E+01  1.00800000E+00  1.00800000E+00  0.00000000E+00
  1.60000000E+01  1.00800000E+00  1.00800000E+00  0.00000000E+00  1.60000000E+01
  1.00800000E+00  1.00800000E+00  0.00000000E+00  1.60000000E+01  1.00800000E+00
  1.00800000E+00  0.00000000E+00  1.60000000E+01  1.00800000E+00  1.00800000E+00
  0.00000000E+00  1.60000000E+01  1.00800000E+00  1.00800000E+00  0.00000000E+00
  1.60000000E+01  1.00800000E+00  1.00800000E+00  0.00000000E+00  1.60000000E+01
  1.00800000E+00  1.00800000E+00  0.00000000E+00  1.60000000E+01  1.00800000E+00
  1.00800000E+00  0.00000000E+00  1.60000000E+01  1.00800000E+00  1.00800000E+00
  0.00000000E+00  1.60000000E+01  1.00800000E+00  1.00800000E+00  0.00000000E+00
  1.60000000E+01  1.00800000E+00  1.00800000E+00  0.00000000E+00  1.60000000E+01
  1.00800000E+00  1.00800000E+00  0.00000000E+00  1.60000000E+01  1.00800000E+00
  1.00800000E+00  0.00000000E+00  1.60000000E+01  1.00800000E+00  1.00800000E+00
  0.00000000E+00  1.60000000E+01  1.00800000E+00  1.00800000E+00  0.00000000E+00
  1.60000000E+01  1.00800000E+00  1.00800000E+00  0.00000000E+00  1.60000000E+01
  1.00800000E+00  1.00800000E+00  0.00000000E+00  1.60000000E+01  1.00800000E+00
  1.00800000E+00  0.00000000E+00  1.60000000E+01  1.00800000E+00  1.00800000E+00
  0.00000000E+00  1.60000000E+01  1.00800000E+00  1.00800000E+00  0.00000000E+00
  1.60000000E+01  1.00800000E+00  1.00800000E+00  0.00000000E+00  1.60000000E+01
  1.00800000E+00  1.00800000E+00  0.00000000E+00  1.60000000E+01  1.00800000E+00
  1.00800000E+00  0.00000000E+00  1.60000000E+01  1.00800000E+00  1.00800000E+00
  0.00000000E+00  1.60000000E+01  1.00800000E+00  1.00800000E+00  0.00000000E+00
  1.60000000E+01  1.00800000E+00  1.00800000E+00  0.00000000E+00  1.60000000E+01
  1.00800000E+00  1.00800000E+00  0.00000000E+00  1.60000000E+01  1.00800000E+00
  1.00800000E+00  0.00000000E+00  1.60000000E+01  1.00800000E+00  1.00800000E+00
  0.00000000E+00  1.60000000E+01  1.00800000E+00  1.00800000E+00  0.00000000E+00
  1.60000000E+01  1.00800000E+00  1.00800000E+00  0.00000000E+00  1.60000000E+01
  1.00800000E+00  1.00800000E+00  0.00000000E+00  1.60000000E+01  1.00800000E+00
  1.00800000E+00  0.00000000E+00  1.60000000E+01  1.00800000E+00  1.00800000E+00
  0.00000000E+00  1.60000000E+01  1.00800000E+00  1.00800000E+00  0.00000000E+00
  1.60000000E+01  1.00800000E+00  1.00800000E+00  0.00000000E+00  1.60000000E+01
  1.00800000E+00  1.00800000E+00  0.00000000E+00  1.60000000E+01  1.00800000E+00
  1.00800000E+00  0.00000000E+00  1.60000000E+01  1.00800000E+00  1.00800000E+00
  0.00000000E+00  1.60000000E+01  1.00800000E+00  1.00800000E+00  0.00000000E+00
  1.60000000E+01  1.00800000E+00  1.00800000E+00  0.00000000E+00  1.60000000E+01
  1.00800000E+00  1.00800000E+00  0.00000000E+00  1.60000000E+01  1.00800000E+00
  1.00800000E+00  0.00000000E+00  1.60000000E+01  1.00800000E+00  1.00800000E+00
  0.00000000E+00  1.60000000E+01  1.00800000E+00  1.00800000E+00  0.00000000E+00
  1.60000000E+01  1.00800000E+00  1.00800000E+00  0.00000000E+00  1.60000000E+01
  1.00800000E+00  1.00800000E+00  0.00000000E+00  1.60000000E+01  1.00800000E+00
  1.00800000E+00  0.00000000E+00  1.60000000E+01  1.00800000E+00  1.00800000E+00
  0.00000000E+00  1.60000000E+01  1.00800000E+00  1.00800000E+00  0.00000000E+00
  1.60000000E+01  1.00800000E+00  1.00800000E+00  0.00000000E+00  1.60000000E+01
  1.00800000E+00  1.00800000E+00  0.00000000E+00  1.60000000E+01  1.00800000E+00
  1.00800000E+00  0.00000000E+00  1.60000000E+01  1.00800000E+00  1.00800000E+00
  0.00000000E+00  1.60000000E+01  1.00800000E+00  1.00800000E+00  0.00000000E+00
  1.60000000E+01  1.00800000E+00  1.00800000E+00  0.00000000E+00  1.60000000E+01
  1.00800000E+00  1.00800000E+00  0.00000000E+00  1.60000000E+01  1.00800000E+00
  1.00800000E+00  0.00000000E+00  1.60000000E+01  1.00800000E+00  1.00800000E+00
  0.00000000E+00  1.60000000E+01  1.00800000E+00  1.00800000E+00  0.00000000E+00
  1.60000000E+01  1.00800000E+00  1.00800000E+00  0.00000000E+00  1.60000000E+01
  1.00800000E+00  1.00800000E+00  0.00000000E+00  1.60000000E+01  1.00800000E+00
  1.00800000E+00  0.00000000E+00  1.60000000E+01  1.00800000E+00  1.00800000E+00
  0.00000000E+00  1.60000000E+01  1.00800000E+00  1.00800000E+00  0.00000000E+00
  1.60000000E+01  1.00800000E+00  1.00800000E+00  0.00000000E+00  1.60000000E+01
  1.00800000E+00  1.00800000E+00  0.00000000E+00  1.60000000E+01  1.00800000E+00
  1.00800000E+00  0.00000000E+00  1.60000000E+01  1.00800000E+00  1.00800000E+00
  0.00000000E+00  1.60000000E+01  1.00800000E+00  1.00800000E+00  0.00000000E+00
  1.60000000E+01  1.00800000E+00  1.00800000E+00  0.00000000E+00  1.60000000E+01
  1.00800000E+00  1.00800000E+00  0.00000000E+00  1.60000000E+01  1.00800000E+00
  1.00800000E+00  0.00000000E+00  1.60000000E+01  1.00800000E+00  1.00800000E+00
  0.00000000E+00  1.60000000E+01  1.00800000E+00  1.00800000E+00  0.00000000E+00
  1.60000000E+01  1.00800000E+00  1.00800000E+00  0.00000000E+00  1.60000000E+01
  1.00800000E+00  1.00800000E+00  0.00000000E+00  1.60000000E+01  1.00800000E+00
  1.00800000E+00  0.00000000E+00  1.60000000E+01  1.00800000E+00  1.00800000E+00
  0.00000000E+00  1.60000000E+01  1.00800000E+00  1.00800000E+00  0.00000000E+00
  1.60000000E+01  1.00800000E+00  1.00800000E+00  0.00000000E+00  1.60000000E+01
  1.00800000E+00  1.00800000E+00  0.00000000E+00  1.60000000E+01  1.00800000E+00
  1.00800000E+00  0.00000000E+00  1.60000000E+01  1.00800000E+00  1.00800000E+00
  0.00000000E+00  1.60000000E+01  1.00800000E+00  1.00800000E+00  0.00000000E+00
  1.60000000E+01  1.00800000E+00  1.00800000E+00  0.00000000E+00  1.60000000E+01
  1.00800000E+00  1.00800000E+00  0.00000000E+00  1.60000000E+01  1.00800000E+00
  1.00800000E+00  0.00000000E+00  1.60000000E+01  1.00800000E+00  1.00800000E+00
  0.00000000E+00  1.60000000E+01  1.00800000E+00  1.00800000E+00  0.00000000E+00
  1.60000000E+01  1.00800000E+00  1.00800000E+00  0.00000000E+00  1.60000000E+01
  1.00800000E+00  1.00800000E+00  0.00000000E+00  1.60000000E+01  1.00800000E+00
  1.00800000E+00  0.00000000E+00  1.60000000E+01  1.00800000E+00  1.00800000E+00
  0.00000000E+00  1.60000000E+01  1.00800000E+00  1.00800000E+00  0.00000000E+00
  1.60000000E+01  1.00800000E+00  1.00800000E+00  0.00000000E+00  1.60000000E+01
  1.00800000E+00  1.00800000E+00  0.00000000E+00  1.60000000E+01  1.00800000E+00
  1.00800000E+00  0.00000000E+00  1.60000000E+01  1.00800000E+00  1.00800000E+00
  0.00000000E+00  1.60000000E+01  1.00800000E+00  1.00800000E+00  0.00000000E+00
  1.60000000E+01  1.00800000E+00  1.00800000E+00  0.00000000E+00  1.60000000E+01
  1.00800000E+00  1.00800000E+00  0.00000000E+00  1.60000000E+01  1.00800000E+00
  1.00800000E+00  0.00000000E+00  1.60000000E+01  1.00800000E+00  1.00800000E+00
  0.00000000E+00  1.60000000E+01  1.00800000E+00  1.00800000E+00  0.00000000E+00
  1.60000000E+01  1.00800000E+00  1.00800000E+00  0.00000000E+00  1.60000000E+01
  1.00800000E+00  1.00800000E+00  0.00000000E+00  1.60000000E+01  1.00800000E+00
  1.00800000E+00  0.00000000E+00  1.60000000E+01  1.00800000E+00  1.00800000E+00
  0.00000000E+00  1.60000000E+01  1.00800000E+00  1.00800000E+00  0.00000000E+00
  1.60000000E+01  1.00800000E+00  1.00800000E+00  0.00000000E+00  1.60000000E+01
  1.00800000E+00  1.00800000E+00  0.00000000E+00  1.60000000E+01  1.00800000E+00
  1.00800000E+00  0.00000000E+00  1.60000000E+01  1.00800000E+00  1.00800000E+00
  0.00000000E+00  1.60000000E+01  1.00800000E+00  1.00800000E+00  0.00000000E+00
  1.60000000E+01  1.00800000E+00  1.00800000E+00  0.00000000E+00  1.60000000E+01
  1.00800000E+00  1.00800000E+00  0.00000000E+00  1.60000000E+01  1.00800000E+00
  1.00800000E+00  0.00000000E+00  1.60000000E+01  1.00800000E+00  1.00800000E+00
  0.00000000E+00  1.60000000E+01  1.00800000E+00  1.00800000E+00  0.00000000E+00
  1.60000000E+01  1.00800000E+00  1.00800000E+00  0.00000000E+00  1.60000000E+01
  1.00800000E+00  1.00800000E+00  0.00000000E+00  1.60000000E+01  1.00800000E+00
  1.00800000E+00  0.00000000E+00  1.60000000E+01  1.00800000E+00  1.00800000E+00
  0.00000000E+00  1.60000000E+01  1.00800000E+00  1.00800000E+00  0.00000000E+00
  1.60000000E+01  1.00800000E+00  1.00800000E+00  0.00000000E+00  1.60000000E+01
  1.00800000E+00  1.00800000E+00  0.00000000E+00  1.60000000E+01  1.00800000E+00
  1.00800000E+00  0.00000000E+00  1.60000000E+01  1.00800000E+00  1.00800000E+00
  0.00000000E+00  1.60000000E+01  1.00800000E+00  1.00800000E+00  0.00000000E+00
  1.60000000E+01  1.00800000E+00  1.00800000E+00  0.00000000E+00  1.60000000E+01
  1.00800000E+00  1.00800000E+00  0.00000000E+00  1.60000000E+01  1.00800000E+00
  1.00800000E+00  0.00000000E+00  1.60000000E+01  1.00800000E+00  1.00800000E+00
  0.00000000E+00  1.60000000E+01  1.00800000E+00  1.00800000E+00  0.00000000E+00
  1.60000000E+01  1.00800000E+00  1.00800000E+00  0.00000000E+00  1.60000000E+01
  1.00800000E+00  1.00800000E+00  0.00000000E+00  1.60000000E+01  1.00800000E+00
  1.00800000E+00  0.00000000E+00  1.60000000E+01  1.00800000E+00  1.00800000E+00
  0.00000000E+00  1.60000000E+01  1.00800000E+00  1.00800000E+00  0.00000000E+00
  1.60000000E+01  1.00800000E+00  1.00800000E+00  0.00000000E+00  1.60000000E+01
  1.00800000E+00  1.00800000E+00  0.00000000E+00  1.60000000E+01  1.00800000E+00
  1.00800000E+00  0.00000000E+00  1.60000000E+01  1.00800000E+00  1.00800000E+00
  0.00000000E+00  1.60000000E+01  1.00800000E+00  1.00800000E+00  0.00000000E+00
  1.60000000E+01  1.00800000E+00  1.00800000E+00  0.00000000E+00  1.60000000E+01
  1.00800000E+00  1.00800000E+00  0.00000000E+00  1.60000000E+01  1.00800000E+00
  1.00800000E+00  0.00000000E+00  1.60000000E+01  1.00800000E+00  1.00800000E+00
  0.00000000E+00  1.60000000E+01  1.00800000E+00  1.00800000E+00  0.00000000E+00
  1.60000000E+01  1.00800000E+00  1.00800000E+00  0.00000000E+00  1.60000000E+01
  1.00800000E+00  1.00800000E+00  0.00000000E+00  1.60000000E+01  1.00800000E+00
  1.00800000E+00  0.00000000E+00  1.60000000E+01  1.00800000E+00  1.00800000E+00
  0.00000000E+00  1.60000000E+01  1.00800000E+00  1.00800000E+00  0.00000000E+00
  1.60000000E+01  1.00800000E+00  1.00800000E+00  0.00000000E+00  1.60000000E+01
  1.00800000E+00  1.00800000E+00  0.00000000E+00  1.60000000E+01  1.00800000E+00
  1.00800000E+00  0.00000000E+00  1.60000000E+01  1.00800000E+00  1.00800000E+00
  0.00000000E+00  1.60000000E+01  1.00800000E+00  1.00800000E+00  0.00000000E+00
  1.60000000E+01  1.00800000E+00  1.00800000E+00  0.00000000E+00  1.60000000E+01
  1.00800000E+00  1.00800000E+00  0.00000000E+00  1.60000000E+01  1.00800000E+00
  1.00800000E+00  0.00000000E+00  1.60000000E+01  1.00800000E+00  1.00800000E+00
  0.00000000E+00  1.60000000E+01  1.00800000E+00  1.00800000E+00  0.00000000E+00
  1.60000000E+01  1.00800000E+00  1.00800000E+00  0.00000000E+00  1.60000000E+01
  1.00800000E+00  1.00800000E+00  0.00000000E+00  1.60000000E+01  1.00800000E+00
  1.00800000E+00  0.00000000E+00  1.60000000E+01  1.00800000E+00  1.00800000E+00
  0.00000000E+00  1.60000000E+01  1.00800000E+00  1.00800000E+00  0.00000000E+00
  1.60000000E+01  1.00800000E+00  1.00800000E+00  0.00000000E+00  1.60000000E+01
  1.00800000E+00  1.00800000E+00  0.00000000E+00  1.60000000E+01  1.00800000E+00
  1.00800000E+00  0.00000000E+00  1.60000000E+01  1.00800000E+00  1.00800000E+00
  0.00000000E+00  1.60000000E+01  1.00800000E+00  1.00800000E+00  0.00000000E+00
  1.60000000E+01  1.00800000E+00  1.00800000E+00  0.00000000E+00  1.60000000E+01
  1.00800000E+00  1.00800000E+00  0.00000000E+00  1.60000000E+01  1.00800000E+00
  1.00800000E+00  0.00000000E+00  1.60000000E+01  1.00800000E+00  1.00800000E+00
  0.00000000E+00  1.60000000E+01  1.00800000E+00  1.00800000E+00  0.00000000E+00
  1.60000000E+01  1.00800000E+00  1.00800000E+00  0.00000000E+00  1.60000000E+01
  1.00800000E+00  1.00800000E+00  0.00000000E+00  1.60000000E+01  1.00800000E+00
  1.00800000E+00  0.00000000E+00  1.60000000E+01  1.00800000E+00  1.00800000E+00
  0.00000000E+00  1.60000000E+01  1.00800000E+00  1.00800000E+00  0.00000000E+00
  1.60000000E+01  1.00800000E+00  1.00800000E+00  0.00000000E+00  1.60000000E+01
  1.00800000E+00  1.00800000E+00  0.00000000E+00  1.60000000E+01  1.00800000E+00
  1.00800000E+00  0.00000000E+00  1.60000000E+01  1.00800000E+00  1.00800000E+00
  0.00000000E+00  1.60000000E+01  1.00800000E+00  1.00800000E+00  0.00000000E+00
  1.60000000E+01  1.00800000E+00  1.00800000E+00  0.00000000E+00  1.60000000E+01
  1.00800000E+00  1.00800000E+00  0.00000000E+00  1.60000000E+01  1.00800000E+00
  1.00800000E+00  0.00000000E+00  1.60000000E+01  1.00800000E+00  1.00800000E+00
  0.00000000E+00  1.60000000E+01  1.00800000E+00  1.00800000E+00  0.00000000E+00
  1.60000000E+01  1.00800000E+00  1.00800000E+00  0.00000000E+00  1.60000000E+01
  1.00800000E+00  1.00800000E+00  0.00000000E+00  1.60000000E+01  1.00800000E+00
  1.00800000E+00  0.00000000E+00  1.60000000E+01  1.00800000E+00  1.00800000E+00
  0.00000000E+00  1.60000000E+01  1.00800000E+00  1.00800000E+00  0.00000000E+00
  1.60000000E+01  1.00800000E+00  1.00800000E+00  0.00000000E+00  1.60000000E+01
  1.00800000E+00  1.00800000E+00  0.00000000E+00  1.60000000E+01  1.00800000E+00
  1.00800000E+00  0.00000000E+00  1.60000000E+01  1.00800000E+00  1.00800000E+00
  0.00000000E+00  1.60000000E+01  1.00800000E+00  1.00800000E+00  0.00000000E+00
  1.60000000E+01  1.00800000E+00  1.00800000E+00  0.00000000E+00  1.60000000E+01
  1.00800000E+00  1.00800000E+00  0.00000000E+00  1.60000000E+01  1.00800000E+00
  1.00800000E+00  0.00000000E+00  1.60000000E+01  1.00800000E+00  1.00800000E+00
  0.00000000E+00  1.60000000E+01  1.00800000E+00  1.00800000E+00  0.00000000E+00
  1.60000000E+01  1.00800000E+00  1.00800000E+00  0.00000000E+00  1.60000000E+01
  1.00800000E+00  1.00800000E+00  0.00000000E+00  1.60000000E+01  1.00800000E+00
  1.00800000E+00  0.00000000E+00  1.60000000E+01  1.00800000E+00  1.00800000E+00
  0.00000000E+00  1.60000000E+01  1.00800000E+00  1.00800000E+00  0.00000000E+00
  1.60000000E+01  1.00800000E+00  1.00800000E+00  0.00000000E+00  1.60000000E+01
  1.00800000E+00  1.00800000E+00  0.00000000E+00  1.60000000E+01  1.00800000E+00
  1.00800000E+00  0.00000000E+00  1.60000000E+01  1.00800000E+00  1.00800000E+00
  0.00000000E+00  1.60000000E+01  1.00800000E+00  1.00800000E+00  0.00000000E+00
  1.60000000E+01  1.00800000E+00  1.00800000E+00  0.00000000E+00  1.60000000E+01
  1.00800000E+00  1.00800000E+00  0.00000000E+00  1.60000000E+01  1.00800000E+00
  1.00800000E+00  0.00000000E+00  1.60000000E+01  1.00800000E+00  1.00800000E+00
  0.00000000E+00  1.60000000E+01  1.00800000E+00  1.00800000E+00  0.00000000E+00
  1.60000000E+01  1.00800000E+00  1.00800000E+00  0.00000000E+00  1.60000000E+01
  1.00800000E+00  1.00800000E+00  0.00000000E+00  1.60000000E+01  1.00800000E+00
  1.00800000E+00  0.00000000E+00  1.60000000E+01  1.00800000E+00  1.00800000E+00
  0.00000000E+00  1.60000000E+01  1.00800000E+00  1.00800000E+00  0.00000000E+00
  1.60000000E+01  1.00800000E+00  1.00800000E+00  0.00000000E+00  1.60000000E+01
  1.00800000E+00  1.00800000E+00  0.00000000E+00  1.60000000E+01  1.00800000E+00
  1.00800000E+00  0.00000000E+00  1.60000000E+01  1.00800000E+00  1.00800000E+00
  0.00000000E+00  1.60000000E+01  1.00800000E+00  1.00800000E+00  0.00000000E+00
  1.60000000E+01  1.00800000E+00  1.00800000E+00  0.00000000E+00  1.60000000E+01
  1.00800000E+00  1.00800000E+00  0.00000000E+00  1.60000000E+01  1.00800000E+00
  1.00800000E+00  0.00000000E+00  1.60000000E+01  1.00800000E+00  1.00800000E+00
  0.00000000E+00  1.60000000E+01  1.00800000E+00  1.00800000E+00  0.00000000E+00
  1.60000000E+01  1.00800000E+00  1.00800000E+00  0.00000000E+00  1.60000000E+01
  1.00800000E+00  1.00800000E+00  0.00000000E+00  1.60000000E+01  1.00800000E+00
  1.00800000E+00  0.00000000E+00  1.60000000E+01  1.00800000E+00  1.00800000E+00
  0.00000000E+00  1.60000000E+01  1.00800000E+00  1.00800000E+00  0.00000000E+00
  1.60000000E+01  1.00800000E+00  1.00800000E+00  0.00000000E+00  1.60000000E+01
  1.00800000E+00  1.00800000E+00  0.00000000E+00  1.60000000E+01  1.00800000E+00
  1.00800000E+00  0.00000000E+00  1.60000000E+01  1.00800000E+00  1.00800000E+00
  0.00000000E+00  1.60000000E+01  1.00800000E+00  1.00800000E+00  0.00000000E+00
  1.60000000E+01  1.00800000E+00  1.00800000E+00  0.00000000E+00  1.60000000E+01
  1.00800000E+00  1.00800000E+00  0.00000000E+00  1.60000000E+01  1.00800000E+00
  1.00800000E+00  0.00000000E+00  1.60000000E+01  1.00800000E+00  1.00800000E+00
  0.00000000E+00  1.60000000E+01  1.00800000E+00  1.00800000E+00  0.00000000E+00
  1.60000000E+01  1.00800000E+00  1.00800000E+00  0.00000000E+00  1.60000000E+01
  1.00800000E+00  1.00800000E+00  0.00000000E+00  1.60000000E+01  1.00800000E+00
  1.00800000E+00  0.00000000E+00  1.60000000E+01  1.00800000E+00  1.00800000E+00
  0.00000000E+00  1.60000000E+01  1.00800000E+00  1.00800000E+00  0.00000000E+00
  1.60000000E+01  1.00800000E+00  1.00800000E+00  0.00000000E+00  1.60000000E+01
  1.00800000E+00  1.00800000E+00  0.00000000E+00  1.60000000E+01  1.00800000E+00
  1.00800000E+00  0.00000000E+00  1.60000000E+01  1.00800000E+00  1.00800000E+00
  0.00000000E+00  1.60000000E+01  1.00800000E+00  1.00800000E+00  0.00000000E+00
  1.60000000E+01  1.00800000E+00  1.00800000E+00  0.00000000E+00  1.60000000E+01
  1.00800000E+00  1.00800000E+00  0.00000000E+00  1.60000000E+01  1.00800000E+00
  1.00800000E+00  0.00000000E+00  1.60000000E+01  1.00800000E+00  1.00800000E+00
  0.00000000E+00  1.60000000E+01  1.00800000E+00  1.00800000E+00  0.00000000E+00
  1.60000000E+01  1.00800000E+00  1.00800000E+00  0.00000000E+00  1.60000000E+01
  1.00800000E+00  1.00800000E+00  0.00000000E+00  1.60000000E+01  1.00800000E+00
  1.00800000E+00  0.00000000E+00  1.60000000E+01  1.00800000E+00  1.00800000E+00
  0.00000000E+00  1.60000000E+01  1.00800000E+00  1.00800000E+00  0.00000000E+00
  1.60000000E+01  1.00800000E+00  1.00800000E+00  0.00000000E+00  1.60000000E+01
  1.00800000E+00  1.00800000E+00  0.00000000E+00  1.60000000E+01  1.00800000E+00
  1.00800000E+00  0.00000000E+00  1.60000000E+01  1.00800000E+00  1.00800000E+00
  0.00000000E+00  1.60000000E+01  1.00800000E+00  1.00800000E+00  0.00000000E+00
  1.60000000E+01  1.00800000E+00  1.00800000E+00  0.00000000E+00  1.60000000E+01
  1.00800000E+00  1.00800000E+00  0.00000000E+00  1.60000000E+01  1.00800000E+00
  1.00800000E+00  0.00000000E+00  1.60000000E+01  1.00800000E+00  1.00800000E+00
  0.00000000E+00  1.60000000E+01  1.00800000E+00  1.00800000E+00  0.00000000E+00
  1.60000000E+01  1.00800000E+00  1.00800000E+00  0.00000000E+00  1.60000000E+01
  1.00800000E+00  1.00800000E+00  0.00000000E+00  1.60000000E+01  1.00800000E+00
  1.00800000E+00  0.00000000E+00  1.60000000E+01  1.00800000E+00  1.00800000E+00
  0.00000000E+00  1.60000000E+01  1.00800000E+00  1.00800000E+00  0.00000000E+00
  1.60000000E+01  1.00800000E+00  1.00800000E+00  0.00000000E+00  1.60000000E+01
  1.00800000E+00  1.00800000E+00  0.00000000E+00  1.60000000E+01  1.00800000E+00
  1.00800000E+00  0.00000000E+00  1.60000000E+01  1.00800000E+00  1.00800000E+00
  0.00000000E+00  1.60000000E+01  1.00800000E+00  1.00800000E+00  0.00000000E+00
  1.60000000E+01  1.00800000E+00  1.00800000E+00  0.00000000E+00  1.60000000E+01
  1.00800000E+00  1.00800000E+00  0.00000000E+00  1.60000000E+01  1.00800000E+00
  1.00800000E+00  0.00000000E+00  1.60000000E+01  1.00800000E+00  1.00800000E+00
  0.00000000E+00  1.60000000E+01  1.00800000E+00  1.00800000E+00  0.00000000E+00
  1.60000000E+01  1.00800000E+00  1.00800000E+00  0.00000000E+00  1.60000000E+01
  1.00800000E+00  1.00800000E+00  0.00000000E+00  1.60000000E+01  1.00800000E+00
  1.00800000E+00  0.00000000E+00  1.60000000E+01  1.00800000E+00  1.00800000E+00
  0.00000000E+00  1.60000000E+01  1.00800000E+00  1.00800000E+00  0.00000000E+00
  1.60000000E+01  1.00800000E+00  1.00800000E+00  0.00000000E+00  1.60000000E+01
  1.00800000E+00  1.00800000E+00  0.00000000E+00  1.60000000E+01  1.00800000E+00
  1.00800000E+00  0.00000000E+00  1.60000000E+01  1.00800000E+00  1.00800000E+00
  0.00000000E+00  1.60000000E+01  1.00800000E+00  1.00800000E+00  0.00000000E+00
  1.60000000E+01  1.00800000E+00  1.00800000E+00  0.00000000E+00  1.60000000E+01
  1.00800000E+00  1.00800000E+00  0.00000000E+00  1.60000000E+01  1.00800000E+00
  1.00800000E+00  0.00000000E+00  1.60000000E+01  1.00800000E+00  1.00800000E+00
  0.00000000E+00  1.60000000E+01  1.00800000E+00  1.00800000E+00  0.00000000E+00
  1.60000000E+01  1.00800000E+00  1.00800000E+00  0.00000000E+00  1.60000000E+01
  1.00800000E+00  1.00800000E+00  0.00000000E+00  1.60000000E+01  1.00800000E+00
  1.00800000E+00  0.00000000E+00  1.60000000E+01  1.00800000E+00  1.00800000E+00
  0.00000000E+00  1.60000000E+01  1.00800000E+00  1.00800000E+00  0.00000000E+00
  1.60000000E+01  1.00800000E+00  1.00800000E+00  0.00000000E+00  1.60000000E+01
  1.00800000E+00  1.00800000E+00  0.00000000E+00  1.60000000E+01  1.00800000E+00
  1.00800000E+00  0.00000000E+00  1.60000000E+01  1.00800000E+00  1.00800000E+00
  0.00000000E+00  1.60000000E+01  1.00800000E+00  1.00800000E+00  0.00000000E+00
  1.60000000E+01  1.00800000E+00  1.00800000E+00  0.00000000E+00  1.60000000E+01
  1.00800000E+00  1.00800000E+00  0.00000000E+00  1.60000000E+01  1.00800000E+00
  1.00800000E+00  0.00000000E+00  1.60000000E+01  1.00800000E+00  1.00800000E+00
  0.00000000E+00  1.60000000E+01  1.00800000E+00  1.00800000E+00  0.00000000E+00
  1.60000000E+01  1.00800000E+00  1.00800000E+00  0.00000000E+00  1.60000000E+01
  1.00800000E+00  1.00800000E+00  0.00000000E+00  1.60000000E+01  1.00800000E+00
  1.00800000E+00  0.00000000E+00  1.60000000E+01  1.00800000E+00  1.00800000E+00
  0.00000000E+00  1.60000000E+01  1.00800000E+00  1.00800000E+00  0.00000000E+00
  1.60000000E+01  1.00800000E+00  1.00800000E+00  0.00000000E+00  1.60000000E+01
  1.00800000E+00  1.00800000E+00  0.00000000E+00  1.60000000E+01  1.00800000E+00
  1.00800000E+00  0.00000000E+00  1.60000000E+01  1.00800000E+00  1.00800000E+00
  0.00000000E+00  1.60000000E+01  1.00800000E+00  1.00800000E+00  0.00000000E+00
  1.60000000E+01  1.00800000E+00  1.00800000E+00  0.00000000E+00  1.60000000E+01
  1.00800000E+00  1.00800000E+00  0.00000000E+00  1.60000000E+01  1.00800000E+00
  1.00800000E+00  0.00000000E+00  1.60000000E+01  1.00800000E+00  1.00800000E+00
  0.00000000E+00  1.60000000E+01  1.00800000E+00  1.00800000E+00  0.00000000E+00
  1.60000000E+01  1.00800000E+00  1.00800000E+00  0.00000000E+00  1.60000000E+01
  1.00800000E+00  1.00800000E+00  0.00000000E+00  1.60000000E+01  1.00800000E+00
  1.00800000E+00  0.00000000E+00  1.60000000E+01  1.00800000E+00  1.00800000E+00
  0.00000000E+00  1.60000000E+01  1.00800000E+00  1.00800000E+00  0.00000000E+00
  1.60000000E+01  1.00800000E+00  1.00800000E+00  0.00000000E+00  1.60000000E+01
  1.00800000E+00  1.00800000E+00  0.00000000E+00  1.60000000E+01  1.00800000E+00
  1.00800000E+00  0.00000000E+00  1.60000000E+01  1.00800000E+00  1.00800000E+00
  0.00000000E+00  1.60000000E+01  1.00800000E+00  1.00800000E+00  0.00000000E+00
  1.60000000E+01  1.00800000E+00  1.00800000E+00  0.00000000E+00  1.60000000E+01
  1.00800000E+00  1.00800000E+00  0.00000000E+00  1.60000000E+01  1.00800000E+00
  1.00800000E+00  0.00000000E+00  1.60000000E+01  1.00800000E+00  1.00800000E+00
  0.00000000E+00  1.60000000E+01  1.00800000E+00  1.00800000E+00  0.00000000E+00
  1.60000000E+01  1.00800000E+00  1.00800000E+00  0.00000000E+00  1.60000000E+01
  1.00800000E+00  1.00800000E+00  0.00000000E+00  1.60000000E+01  1.00800000E+00
  1.00800000E+00  0.00000000E+00  1.60000000E+01  1.00800000E+00  1.00800000E+00
  0.00000000E+00  1.60000000E+01  1.00800000E+00  1.00800000E+00  0.00000000E+00
  1.60000000E+01  1.00800000E+00  1.00800000E+00  0.00000000E+00  1.60000000E+01
  1.00800000E+00  1.00800000E+00  0.00000000E+00  1.60000000E+01  1.00800000E+00
  1.00800000E+00  0.00000000E+00  1.60000000E+01  1.00800000E+00  1.00800000E+00
  0.00000000E+00  1.60000000E+01  1.00800000E+00  1.00800000E+00  0.00000000E+00
  1.60000000E+01  1.00800000E+00  1.00800000E+00  0.00000000E+00  1.60000000E+01
  1.00800000E+00  1.00800000E+00  0.00000000E+00  1.60000000E+01  1.00800000E+00
  1.00800000E+00  0.00000000E+00  1.60000000E+01  1.00800000E+00  1.00800000E+00
  0.00000000E+00  1.60000000E+01  1.00800000E+00  1.00800000E+00  0.00000000E+00
  1.60000000E+01  1.00800000E+00  1.00800000E+00  0.00000000E+00  1.60000000E+01
  1.00800000E+00  1.00800000E+00  0.00000000E+00  1.60000000E+01  1.00800000E+00
  1.00800000E+00  0.00000000E+00  1.60000000E+01  1.00800000E+00  1.00800000E+00
  0.00000000E+00  1.60000000E+01  1.00800000E+00  1.00800000E+00  0.00000000E+00
  1.60000000E+01  1.00800000E+00  1.00800000E+00  0.00000000E+00  1.60000000E+01
  1.00800000E+00  1.00800000E+00  0.00000000E+00  1.60000000E+01  1.00800000E+00
  1.00800000E+00  0.00000000E+00  1.60000000E+01  1.00800000E+00  1.00800000E+00
  0.00000000E+00  1.60000000E+01  1.00800000E+00  1.00800000E+00  0.00000000E+00
  1.60000000E+01  1.00800000E+00  1.00800000E+00  0.00000000E+00  1.60000000E+01
  1.00800000E+00  1.00800000E+00  0.00000000E+00  1.60000000E+01  1.00800000E+00
  1.00800000E+00  0.00000000E+00  1.60000000E+01  1.00800000E+00  1.00800000E+00
  0.00000000E+00  1.60000000E+01  1.00800000E+00  1.00800000E+00  0.00000000E+00
  1.60000000E+01  1.00800000E+00  1.00800000E+00  0.00000000E+00  1.60000000E+01
  1.00800000E+00  1.00800000E+00  0.00000000E+00  1.60000000E+01  1.00800000E+00
  1.00800000E+00  0.00000000E+00  1.60000000E+01  1.00800000E+00  1.00800000E+00
  0.00000000E+00  1.60000000E+01  1.00800000E+00  1.00800000E+00  0.00000000E+00
  1.60000000E+01  1.00800000E+00  1.00800000E+00  0.00000000E+00  1.60000000E+01
  1.00800000E+00  1.00800000E+00  0.00000000E+00  1.60000000E+01  1.00800000E+00
  1.00800000E+00  0.00000000E+00  1.60000000E+01  1.00800000E+00  1.00800000E+00
  0.00000000E+00  1.60000000E+01  1.00800000E+00  1.00800000E+00  0.00000000E+00
  1.60000000E+01  1.00800000E+00  1.00800000E+00  0.00000000E+00  1.60000000E+01
  1.00800000E+00  1.00800000E+00  0.00000000E+00  1.60000000E+01  1.00800000E+00
  1.00800000E+00  0.00000000E+00  1.60000000E+01  1.00800000E+00  1.00800000E+00
  0.00000000E+00  1.60000000E+01  1.00800000E+00  1.00800000E+00  0.00000000E+00
  1.60000000E+01  1.00800000E+00  1.00800000E+00  0.00000000E+00  1.60000000E+01
  1.00800000E+00  1.00800000E+00  0.00000000E+00  1.60000000E+01  1.00800000E+00
  1.00800000E+00  0.00000000E+00  1.60000000E+01  1.00800000E+00  1.00800000E+00
  0.00000000E+00  1.60000000E+01  1.00800000E+00  1.00800000E+00  0.00000000E+00
  1.60000000E+01  1.00800000E+00  1.00800000E+00  0.00000000E+00  1.60000000E+01
  1.00800000E+00  1.00800000E+00  0.00000000E+00  1.60000000E+01  1.00800000E+00
  1.00800000E+00  0.00000000E+00  1.60000000E+01  1.00800000E+00  1.00800000E+00
  0.00000000E+00  1.60000000E+01  1.00800000E+00  1.00800000E+00  0.00000000E+00
  1.60000000E+01  1.00800000E+00  1.00800000E+00  0.00000000E+00  1.60000000E+01
  1.00800000E+00  1.00800000E+00  0.00000000E+00  1.60000000E+01  1.00800000E+00
  1.00800000E+00  0.00000000E+00  1.60000000E+01  1.00800000E+00  1.00800000E+00
  0.00000000E+00  1.60000000E+01  1.00800000E+00  1.00800000E+00  0.00000000E+00
  1.60000000E+01  1.00800000E+00  1.00800000E+00  0.00000000E+00  1.60000000E+01
  1.00800000E+00  1.00800000E+00  0.00000000E+00  1.60000000E+01  1.00800000E+00
  1.00800000E+00  0.00000000E+00  1.60000000E+01  1.00800000E+00  1.00800000E+00
  0.00000000E+00  1.60000000E+01  1.00800000E+00  1.00800000E+00  0.00000000E+00
  1.60000000E+01  1.00800000E+00  1.00800000E+00  0.00000000E+00  1.60000000E+01
  1.00800000E+00  1.00800000E+00  0.00000000E+00  1.60000000E+01  1.00800000E+00
  1.00800000E+00  0.00000000E+00  1.60000000E+01  1.00800000E+00  1.00800000E+00
  0.00000000E+00  1.60000000E+01  1.00800000E+00  1.00800000E+00  0.00000000E+00
  1.60000000E+01  1.00800000E+00  1.00800000E+00  0.00000000E+00  1.60000000E+01
  1.00800000E+00  1.00800000E+00  0.00000000E+00  1.60000000E+01  1.00800000E+00
  1.00800000E+00  0.00000000E+00  1.60000000E+01  1.00800000E+00  1.00800000E+00
  0.00000000E+00  1.60000000E+01  1.00800000E+00  1.00800000E+00  0.00000000E+00
  1.60000000E+01  1.00800000E+00  1.00800000E+00  0.00000000E+00  1.60000000E+01
  1.00800000E+00  1.00800000E+00  0.00000000E+00  1.60000000E+01  1.00800000E+00
  1.00800000E+00  0.00000000E+00  1.60000000E+01  1.00800000E+00  1.00800000E+00
  0.00000000E+00  1.60000000E+01  1.00800000E+00  1.00800000E+00  0.00000000E+00
  1.60000000E+01  1.00800000E+00  1.00800000E+00  0.00000000E+00  1.60000000E+01
  1.00800000E+00  1.00800000E+00  0.00000000E+00  1.60000000E+01  1.00800000E+00
  1.00800000E+00  0.00000000E+00  1.60000000E+01  1.00800000E+00  1.00800000E+00
  0.00000000E+00  1.60000000E+01  1.00800000E+00  1.00800000E+00  0.00000000E+00
  1.60000000E+01  1.00800000E+00  1.00800000E+00  0.00000000E+00  1.60000000E+01
  1.00800000E+00  1.00800000E+00  0.00000000E+00  1.60000000E+01  1.00800000E+00
  1.00800000E+00  0.00000000E+00  1.60000000E+01  1.00800000E+00  1.00800000E+00
  0.00000000E+00  1.60000000E+01  1.00800000E+00  1.00800000E+00  0.00000000E+00
  1.60000000E+01  1.00800000E+00  1.00800000E+00  0.00000000E+00  1.60000000E+01
  1.00800000E+00  1.00800000E+00  0.00000000E+00  1.60000000E+01  1.00800000E+00
  1.00800000E+00  0.00000000E+00  1.60000000E+01  1.00800000E+00  1.00800000E+00
  0.00000000E+00  1.60000000E+01  1.00800000E+00  1.00800000E+00  0.00000000E+00
  1.60000000E+01  1.00800000E+00  1.00800000E+00  0.00000000E+00  1.60000000E+01
  1.00800000E+00  1.00800000E+00  0.00000000E+00  1.60000000E+01  1.00800000E+00
  1.00800000E+00  0.00000000E+00  1.60000000E+01  1.00800000E+00  1.00800000E+00
  0.00000000E+00  1.60000000E+01  1.00800000E+00  1.00800000E+00  0.00000000E+00
  1.60000000E+01  1.00800000E+00  1.00800000E+00  0.00000000E+00  1.60000000E+01
  1.00800000E+00  1.00800000E+00  0.00000000E+00  1.60000000E+01  1.00800000E+00
  1.00800000E+00  0.00000000E+00  1.60000000E+01  1.00800000E+00  1.00800000E+00
  0.00000000E+00  1.60000000E+01  1.00800000E+00  1.00800000E+00  0.00000000E+00
  1.60000000E+01  1.00800000E+00  1.00800000E+00  0.00000000E+00  1.60000000E+01
  1.00800000E+00  1.00800000E+00  0.00000000E+00  1.60000000E+01  1.00800000E+00
  1.00800000E+00  0.00000000E+00  1.60000000E+01  1.00800000E+00  1.00800000E+00
  0.00000000E+00  1.60000000E+01  1.00800000E+00  1.00800000E+00  0.00000000E+00
  1.60000000E+01  1.00800000E+00  1.00800000E+00  0.00000000E+00  1.60000000E+01
  1.00800000E+00  1.00800000E+00  0.00000000E+00  1.60000000E+01  1.00800000E+00
  1.00800000E+00  0.00000000E+00  1.60000000E+01  1.00800000E+00  1.00800000E+00
  0.00000000E+00  1.60000000E+01  1.00800000E+00  1.00800000E+00  0.00000000E+00
  1.60000000E+01  1.00800000E+00  1.00800000E+00  0.00000000E+00  1.60000000E+01
  1.00800000E+00  1.00800000E+00  0.00000000E+00  1.60000000E+01  1.00800000E+00
  1.00800000E+00  0.00000000E+00  1.60000000E+01  1.00800000E+00  1.00800000E+00
  0.00000000E+00  1.60000000E+01  1.00800000E+00  1.00800000E+00  0.00000000E+00
  1.60000000E+01  1.00800000E+00  1.00800000E+00  0.00000000E+00  1.60000000E+01
  1.00800000E+00  1.00800000E+00  0.00000000E+00  1.60000000E+01  1.00800000E+00
  1.00800000E+00  0.00000000E+00  1.60000000E+01  1.00800000E+00  1.00800000E+00
  0.00000000E+00  1.60000000E+01  1.00800000E+00  1.00800000E+00  0.00000000E+00
  1.60000000E+01  1.00800000E+00  1.00800000E+00  0.00000000E+00  1.60000000E+01
  1.00800000E+00  1.00800000E+00  0.00000000E+00  1.60000000E+01  1.00800000E+00
  1.00800000E+00  0.00000000E+00  1.60000000E+01  1.00800000E+00  1.00800000E+00
  0.00000000E+00  1.60000000E+01  1.00800000E+00  1.00800000E+00  0.00000000E+00
  1.60000000E+01  1.00800000E+00  1.00800000E+00  0.00000000E+00  1.60000000E+01
  1.00800000E+00  1.00800000E+00  0.00000000E+00  1.60000000E+01  1.00800000E+00
  1.00800000E+00  0.00000000E+00  1.60000000E+01  1.00800000E+00  1.00800000E+00
  0.00000000E+00  1.60000000E+01  1.00800000E+00  1.00800000E+00  0.00000000E+00
  1.60000000E+01  1.00800000E+00  1.00800000E+00  0.00000000E+00  1.60000000E+01
  1.00800000E+00  1.00800000E+00  0.00000000E+00  1.60000000E+01  1.00800000E+00
  1.00800000E+00  0.00000000E+00  1.60000000E+01  1.00800000E+00  1.00800000E+00
  0.00000000E+00  1.60000000E+01  1.00800000E+00  1.00800000E+00  0.00000000E+00
  1.60000000E+01  1.00800000E+00  1.00800000E+00  0.00000000E+00  1.60000000E+01
  1.00800000E+00  1.00800000E+00  0.00000000E+00  1.60000000E+01  1.00800000E+00
  1.00800000E+00  0.00000000E+00  1.60000000E+01  1.00800000E+00  1.00800000E+00
  0.00000000E+00  1.60000000E+01  1.00800000E+00  1.00800000E+00  0.00000000E+00
  1.60000000E+01  1.00800000E+00  1.00800000E+00  0.00000000E+00  1.60000000E+01
  1.00800000E+00  1.00800000E+00  0.00000000E+00  1.60000000E+01  1.00800000E+00
  1.00800000E+00  0.00000000E+00  1.60000000E+01  1.00800000E+00  1.00800000E+00
  0.00000000E+00  1.60000000E+01  1.00800000E+00  1.00800000E+00  0.00000000E+00
  1.60000000E+01  1.00800000E+00  1.00800000E+00  0.00000000E+00  1.60000000E+01
  1.00800000E+00  1.00800000E+00  0.00000000E+00  1.60000000E+01  1.00800000E+00
  1.00800000E+00  0.00000000E+00  1.60000000E+01  1.00800000E+00  1.00800000E+00
  0.00000000E+00  1.60000000E+01  1.00800000E+00  1.00800000E+00  0.00000000E+00
  1.60000000E+01  1.00800000E+00  1.00800000E+00  0.00000000E+00  1.60000000E+01
  1.00800000E+00  1.00800000E+00  0.00000000E+00  1.60000000E+01  1.00800000E+00
  1.00800000E+00  0.00000000E+00  1.60000000E+01  1.00800000E+00  1.00800000E+00
  0.00000000E+00  1.60000000E+01  1.00800000E+00  1.00800000E+00  0.00000000E+00
  1.60000000E+01  1.00800000E+00  1.00800000E+00  0.00000000E+00  1.60000000E+01
  1.00800000E+00  1.00800000E+00  0.00000000E+00  1.60000000E+01  1.00800000E+00
  1.00800000E+00  0.00000000E+00  1.60000000E+01  1.00800000E+00  1.00800000E+00
  0.00000000E+00  1.60000000E+01  1.00800000E+00  1.00800000E+00  0.00000000E+00
  1.60000000E+01  1.00800000E+00  1.00800000E+00  0.00000000E+00  1.60000000E+01
  1.00800000E+00  1.00800000E+00  0.00000000E+00  1.60000000E+01  1.00800000E+00
  1.00800000E+00  0.00000000E+00  1.60000000E+01  1.00800000E+00  1.00800000E+00
  0.00000000E+00  1.60000000E+01  1.00800000E+00  1.00800000E+00  0.00000000E+00
  1.60000000E+01  1.00800000E+00  1.00800000E+00  0.00000000E+00  1.60000000E+01
  1.00800000E+00  1.00800000E+00  0.00000000E+00  1.60000000E+01  1.00800000E+00
  1.00800000E+00  0.00000000E+00  1.60000000E+01  1.00800000E+00  1.00800000E+00
  0.00000000E+00  1.60000000E+01  1.00800000E+00  1.00800000E+00  0.00000000E+00
  1.60000000E+01  1.00800000E+00  1.00800000E+00  0.00000000E+00  1.60000000E+01
  1.00800000E+00  1.00800000E+00  0.00000000E+00  1.60000000E+01  1.00800000E+00
  1.00800000E+00  0.00000000E+00  1.60000000E+01  1.00800000E+00  1.00800000E+00
  0.00000000E+00  1.60000000E+01  1.00800000E+00  1.00800000E+00  0.00000000E+00
  1.60000000E+01  1.00800000E+00  1.00800000E+00  0.00000000E+00  1.60000000E+01
  1.00800000E+00  1.00800000E+00  0.00000000E+00  1.60000000E+01  1.00800000E+00
  1.00800000E+00  0.00000000E+00  1.60000000E+01  1.00800000E+00  1.00800000E+00
  0.00000000E+00  1.60000000E+01  1.00800000E+00  1.00800000E+00  0.00000000E+00
  1.60000000E+01  1.00800000E+00  1.00800000E+00  0.00000000E+00  1.60000000E+01
  1.00800000E+00  1.00800000E+00  0.00000000E+00  1.60000000E+01  1.00800000E+00
  1.00800000E+00  0.00000000E+00  1.60000000E+01  1.00800000E+00  1.00800000E+00
  0.00000000E+00  1.60000000E+01  1.00800000E+00  1.00800000E+00  0.00000000E+00
  1.60000000E+01  1.00800000E+00  1.00800000E+00  0.00000000E+00  1.60000000E+01
  1.00800000E+00  1.00800000E+00  0.00000000E+00  1.60000000E+01  1.00800000E+00
  1.00800000E+00  0.00000000E+00  1.60000000E+01  1.00800000E+00  1.00800000E+00
  0.00000000E+00  1.60000000E+01  1.00800000E+00  1.00800000E+00  0.00000000E+00
  1.60000000E+01  1.00800000E+00  1.00800000E+00  0.00000000E+00  1.60000000E+01
  1.00800000E+00  1.00800000E+00  0.00000000E+00  1.60000000E+01  1.00800000E+00
  1.00800000E+00  0.00000000E+00  1.60000000E+01  1.00800000E+00  1.00800000E+00
  0.00000000E+00  1.60000000E+01  1.00800000E+00  1.00800000E+00  0.00000000E+00
  1.60000000E+01  1.00800000E+00  1.00800000E+00  0.00000000E+00  1.60000000E+01
  1.00800000E+00  1.00800000E+00  0.00000000E+00  1.60000000E+01  1.00800000E+00
  1.00800000E+00  0.00000000E+00  1.60000000E+01  1.00800000E+00  1.00800000E+00
  0.00000000E+00  1.60000000E+01  1.00800000E+00  1.00800000E+00  0.00000000E+00
  1.60000000E+01  1.00800000E+00  1.00800000E+00  0.00000000E+00  1.60000000E+01
  1.00800000E+00  1.00800000E+00  0.00000000E+00  1.60000000E+01  1.00800000E+00
  1.00800000E+00  0.00000000E+00  1.60000000E+01  1.00800000E+00  1.00800000E+00
  0.00000000E+00  1.60000000E+01  1.00800000E+00  1.00800000E+00  0.00000000E+00
  1.60000000E+01  1.00800000E+00  1.00800000E+00  0.00000000E+00  1.60000000E+01
  1.00800000E+00  1.00800000E+00  0.00000000E+00  1.60000000E+01  1.00800000E+00
  1.00800000E+00  0.00000000E+00  1.60000000E+01  1.00800000E+00  1.00800000E+00
  0.00000000E+00  1.60000000E+01  1.00800000E+00  1.00800000E+00  0.00000000E+00
  1.60000000E+01  1.00800000E+00  1.00800000E+00  0.00000000E+00  1.60000000E+01
  1.00800000E+00  1.00800000E+00  0.00000000E+00  1.60000000E+01  1.00800000E+00
  1.00800000E+00  0.00000000E+00  1.60000000E+01  1.00800000E+00  1.00800000E+00
  0.00000000E+00  1.60000000E+01  1.00800000E+00  1.00800000E+00  0.00000000E+00
  1.60000000E+01  1.00800000E+00  1.00800000E+00  0.00000000E+00  1.60000000E+01
  1.00800000E+00  1.00800000E+00  0.00000000E+00  1.60000000E+01  1.00800000E+00
  1.00800000E+00  0.00000000E+00  1.60000000E+01  1.00800000E+00  1.00800000E+00
  0.00000000E+00  1.60000000E+01  1.00800000E+00  1.00800000E+00  0.00000000E+00
  1.60000000E+01  1.00800000E+00  1.00800000E+00  0.00000000E+00  1.60000000E+01
  1.00800000E+00  1.00800000E+00  0.00000000E+00  1.60000000E+01  1.00800000E+00
  1.00800000E+00  0.00000000E+00  1.60000000E+01  1.00800000E+00  1.00800000E+00
  0.00000000E+00  1.60000000E+01  1.00800000E+00  1.00800000E+00  0.00000000E+00
  1.60000000E+01  1.00800000E+00  1.00800000E+00  0.00000000E+00  1.60000000E+01
  1.00800000E+00  1.00800000E+00  0.00000000E+00  1.60000000E+01  1.00800000E+00
  1.00800000E+00  0.00000000E+00  1.60000000E+01  1.00800000E+00  1.00800000E+00
  0.00000000E+00  1.60000000E+01  1.00800000E+00  1.00800000E+00  0.00000000E+00
  1.60000000E+01  1.00800000E+00  1.00800000E+00  0.00000000E+00  1.60000000E+01
  1.00800000E+00  1.00800000E+00  0.00000000E+00  1.60000000E+01  1.00800000E+00
  1.00800000E+00  0.00000000E+00  1.60000000E+01  1.00800000E+00  1.00800000E+00
  0.00000000E+00  1.60000000E+01  1.00800000E+00  1.00800000E+00  0.00000000E+00
  1.60000000E+01  1.00800000E+00  1.00800000E+00  0.00000000E+00  1.60000000E+01
  1.00800000E+00  1.00800000E+00  0.00000000E+00  1.60000000E+01  1.00800000E+00
  1.00800000E+00  0.00000000E+00  1.60000000E+01  1.00800000E+00  1.00800000E+00
  0.00000000E+00  1.60000000E+01  1.00800000E+00  1.00800000E+00  0.00000000E+00
  1.60000000E+01  1.00800000E+00  1.00800000E+00  0.00000000E+00  1.60000000E+01
  1.00800000E+00  1.00800000E+00  0.00000000E+00  1.60000000E+01  1.00800000E+00
  1.00800000E+00  0.00000000E+00  1.60000000E+01  1.00800000E+00  1.00800000E+00
  0.00000000E+00  1.60000000E+01  1.00800000E+00  1.00800000E+00  0.00000000E+00
  1.60000000E+01  1.00800000E+00  1.00800000E+00  0.00000000E+00  1.60000000E+01
  1.00800000E+00  1.00800000E+00  0.00000000E+00  1.60000000E+01  1.00800000E+00
  1.00800000E+00  0.00000000E+00  1.60000000E+01  1.00800000E+00  1.00800000E+00
  0.00000000E+00  1.60000000E+01  1.00800000E+00  1.00800000E+00  0.00000000E+00
  1.60000000E+01  1.00800000E+00  1.00800000E+00  0.00000000E+00  1.60000000E+01
  1.00800000E+00  1.00800000E+00  0.00000000E+00  1.60000000E+01  1.00800000E+00
  1.00800000E+00  0.00000000E+00  1.60000000E+01  1.00800000E+00  1.00800000E+00
  0.00000000E+00  1.60000000E+01  1.00800000E+00  1.00800000E+00  0.00000000E+00
  1.60000000E+01  1.00800000E+00  1.00800000E+00  0.00000000E+00  1.60000000E+01
  1.00800000E+00  1.00800000E+00  0.00000000E+00  1.60000000E+01  1.00800000E+00
  1.00800000E+00  0.00000000E+00  1.60000000E+01  1.00800000E+00  1.00800000E+00
  0.00000000E+00  1.60000000E+01  1.00800000E+00  1.00800000E+00  0.00000000E+00
  1.60000000E+01  1.00800000E+00  1.00800000E+00  0.00000000E+00  1.60000000E+01
  1.00800000E+00  1.00800000E+00  0.00000000E+00  1.60000000E+01  1.00800000E+00
  1.00800000E+00  0.00000000E+00  1.60000000E+01  1.00800000E+00  1.00800000E+00
  0.00000000E+00  1.60000000E+01  1.00800000E+00  1.00800000E+00  0.00000000E+00
  1.60000000E+01  1.00800000E+00  1.00800000E+00  0.00000000E+00  1.60000000E+01
  1.00800000E+00  1.00800000E+00  0.00000000E+00  1.60000000E+01  1.00800000E+00
  1.00800000E+00  0.00000000E+00  1.60000000E+01  1.00800000E+00  1.00800000E+00
  0.00000000E+00  1.60000000E+01  1.00800000E+00  1.00800000E+00  0.00000000E+00
  1.60000000E+01  1.00800000E+00  1.00800000E+00  0.00000000E+00  1.60000000E+01
  1.00800000E+00  1.00800000E+00  0.00000000E+00  1.60000000E+01  1.00800000E+00
  1.00800000E+00  0.00000000E+00  1.60000000E+01  1.00800000E+00  1.00800000E+00
  0.00000000E+00  1.60000000E+01  1.00800000E+00  1.00800000E+00  0.00000000E+00
  1.60000000E+01  1.00800000E+00  1.00800000E+00  0.00000000E+00  1.60000000E+01
  1.00800000E+00  1.00800000E+00  0.00000000E+00  1.60000000E+01  1.00800000E+00
  1.00800000E+00  0.00000000E+00  1.60000000E+01  1.00800000E+00  1.00800000E+00
  0.00000000E+00  1.60000000E+01  1.00800000E+00  1.00800000E+00  0.00000000E+00
  1.60000000E+01  1.00800000E+00  1.00800000E+00  0.00000000E+00  1.60000000E+01
  1.00800000E+00  1.00800000E+00  0.00000000E+00  1.60000000E+01  1.00800000E+00
  1.00800000E+00  0.00000000E+00  1.60000000E+01  1.00800000E+00  1.00800000E+00
  0.00000000E+00  1.60000000E+01  1.00800000E+00  1.00800000E+00  0.00000000E+00
  1.60000000E+01  1.00800000E+00  1.00800000E+00  0.00000000E+00  1.60000000E+01
  1.00800000E+00  1.00800000E+00  0.00000000E+00  1.60000000E+01  1.00800000E+00
  1.00800000E+00  0.00000000E+00  1.60000000E+01  1.00800000E+00  1.00800000E+00
  0.00000000E+00  1.60000000E+01  1.00800000E+00  1.00800000E+00  0.00000000E+00
  1.60000000E+01  1.00800000E+00  1.00800000E+00  0.00000000E+00  1.60000000E+01
  1.00800000E+00  1.00800000E+00  0.00000000E+00  1.60000000E+01  1.00800000E+00
  1.00800000E+00  0.00000000E+00  1.60000000E+01  1.00800000E+00  1.00800000E+00
  0.00000000E+00  1.60000000E+01  1.00800000E+00  1.00800000E+00  0.00000000E+00
  1.60000000E+01  1.00800000E+00  1.00800000E+00  0.00000000E+00  1.60000000E+01
  1.00800000E+00  1.00800000E+00  0.00000000E+00  1.60000000E+01  1.00800000E+00
  1.00800000E+00  0.00000000E+00  1.60000000E+01  1.00800000E+00  1.00800000E+00
  0.00000000E+00  1.60000000E+01  1.00800000E+00  1.00800000E+00  0.00000000E+00
  1.60000000E+01  1.00800000E+00  1.00800000E+00  0.00000000E+00  1.60000000E+01
  1.00800000E+00  1.00800000E+00  0.00000000E+00  1.60000000E+01  1.00800000E+00
  1.00800000E+00  0.00000000E+00  1.60000000E+01  1.00800000E+00  1.00800000E+00
  0.00000000E+00  1.60000000E+01  1.00800000E+00  1.00800000E+00  0.00000000E+00
  1.60000000E+01  1.00800000E+00  1.00800000E+00  0.00000000E+00  1.60000000E+01
  1.00800000E+00  1.00800000E+00  0.00000000E+00  1.60000000E+01  1.00800000E+00
  1.00800000E+00  0.00000000E+00  1.60000000E+01  1.00800000E+00  1.00800000E+00
  0.00000000E+00  1.60000000E+01  1.00800000E+00  1.00800000E+00  0.00000000E+00
  1.60000000E+01  1.00800000E+00  1.00800000E+00  0.00000000E+00  1.60000000E+01
  1.00800000E+00  1.00800000E+00  0.00000000E+00  1.60000000E+01  1.00800000E+00
  1.00800000E+00  0.00000000E+00  1.60000000E+01  1.00800000E+00  1.00800000E+00
  0.00000000E+00  1.60000000E+01  1.00800000E+00  1.00800000E+00  0.00000000E+00
  1.60000000E+01  1.00800000E+00  1.00800000E+00  0.00000000E+00  1.60000000E+01
  1.00800000E+00  1.00800000E+00  0.00000000E+00  1.60000000E+01  1.00800000E+00
  1.00800000E+00  0.00000000E+00  1.60000000E+01  1.00800000E+00  1.00800000E+00
  0.00000000E+00  1.60000000E+01  1.00800000E+00  1.00800000E+00  0.00000000E+00
  1.60000000E+01  1.00800000E+00  1.00800000E+00  0.00000000E+00  1.60000000E+01
  1.00800000E+00  1.00800000E+00  0.00000000E+00  1.60000000E+01  1.00800000E+00
  1.00800000E+00  0.00000000E+00  1.60000000E+01  1.00800000E+00  1.00800000E+00
  0.00000000E+00  1.60000000E+01  1.00800000E+00  1.00800000E+00  0.00000000E+00
  1.60000000E+01  1.00800000E+00  1.00800000E+00  0.00000000E+00  1.60000000E+01
  1.00800000E+00  1.00800000E+00  0.00000000E+00  1.60000000E+01  1.00800000E+00
  1.00800000E+00  0.00000000E+00  1.60000000E+01  1.00800000E+00  1.00800000E+00
  0.00000000E+00  1.60000000E+01  1.00800000E+00  1.00800000E+00  0.00000000E+00
  1.60000000E+01  1.00800000E+00  1.00800000E+00  0.00000000E+00  1.60000000E+01
  1.00800000E+00  1.00800000E+00  0.00000000E+00  1.60000000E+01  1.00800000E+00
  1.00800000E+00  0.00000000E+00  1.60000000E+01  1.00800000E+00  1.00800000E+00
  0.00000000E+00  1.60000000E+01  1.00800000E+00  1.00800000E+00  0.00000000E+00
  1.60000000E+01  1.00800000E+00  1.00800000E+00  0.00000000E+00  1.60000000E+01
  1.00800000E+00  1.00800000E+00  0.00000000E+00  1.60000000E+01  1.00800000E+00
  1.00800000E+00  0.00000000E+00  1.60000000E+01  1.00800000E+00  1.00800000E+00
  0.00000000E+00  1.60000000E+01  1.00800000E+00  1.00800000E+00  0.00000000E+00
  1.60000000E+01  1.00800000E+00  1.00800000E+00  0.00000000E+00  1.60000000E+01
  1.00800000E+00  1.00800000E+00  0.00000000E+00  1.60000000E+01  1.00800000E+00
  1.00800000E+00  0.00000000E+00  1.60000000E+01  1.00800000E+00  1.00800000E+00
  0.00000000E+00  1.60000000E+01  1.00800000E+00  1.00800000E+00  0.00000000E+00
  1.60000000E+01  1.00800000E+00  1.00800000E+00  0.00000000E+00  1.60000000E+01
  1.00800000E+00  1.00800000E+00  0.00000000E+00  1.60000000E+01  1.00800000E+00
  1.00800000E+00  0.00000000E+00  1.60000000E+01  1.00800000E+00  1.00800000E+00
  0.00000000E+00  1.60000000E+01  1.00800000E+00  1.00800000E+00  0.00000000E+00
  1.60000000E+01  1.00800000E+00  1.00800000E+00  0.00000000E+00  1.60000000E+01
  1.00800000E+00  1.00800000E+00  0.00000000E+00  1.60000000E+01  1.00800000E+00
  1.00800000E+00  0.00000000E+00  1.60000000E+01  1.00800000E+00  1.00800000E+00
  0.00000000E+00  1.60000000E+01  1.00800000E+00  1.00800000E+00  0.00000000E+00
  1.60000000E+01  1.00800000E+00  1.00800000E+00  0.00000000E+00  1.60000000E+01
  1.00800000E+00  1.00800000E+00  0.00000000E+00  1.60000000E+01  1.00800000E+00
  1.00800000E+00  0.00000000E+00  1.60000000E+01  1.00800000E+00  1.00800000E+00
  0.00000000E+00  1.60000000E+01  1.00800000E+00  1.00800000E+00  0.00000000E+00
  1.60000000E+01  1.00800000E+00  1.00800000E+00  0.00000000E+00  1.60000000E+01
  1.00800000E+00  1.00800000E+00  0.00000000E+00  1.60000000E+01  1.00800000E+00
  1.00800000E+00  0.00000000E+00  1.60000000E+01  1.00800000E+00  1.00800000E+00
  0.00000000E+00  1.60000000E+01  1.00800000E+00  1.00800000E+00  0.00000000E+00
  1.60000000E+01  1.00800000E+00  1.00800000E+00  0.00000000E+00  1.60000000E+01
  1.00800000E+00  1.00800000E+00  0.00000000E+00  1.60000000E+01  1.00800000E+00
  1.00800000E+00  0.00000000E+00  1.60000000E+01  1.00800000E+00  1.00800000E+00
  0.00000000E+00  1.60000000E+01  1.00800000E+00  1.00800000E+00  0.00000000E+00
  1.60000000E+01  1.00800000E+00  1.00800000E+00  0.00000000E+00  1.60000000E+01
  1.00800000E+00  1.00800000E+00  0.00000000E+00  1.60000000E+01  1.00800000E+00
  1.00800000E+00  0.00000000E+00  1.60000000E+01  1.00800000E+00  1.00800000E+00
  0.00000000E+00  1.60000000E+01  1.00800000E+00  1.00800000E+00  0.00000000E+00
  1.60000000E+01  1.00800000E+00  1.00800000E+00  0.00000000E+00  1.60000000E+01
  1.00800000E+00  1.00800000E+00  0.00000000E+00  1.60000000E+01  1.00800000E+00
  1.00800000E+00  0.00000000E+00  1.60000000E+01  1.00800000E+00  1.00800000E+00
  0.00000000E+00  1.60000000E+01  1.00800000E+00  1.00800000E+00  0.00000000E+00
  1.60000000E+01  1.00800000E+00  1.00800000E+00  0.00000000E+00  1.60000000E+01
  1.00800000E+00  1.00800000E+00  0.00000000E+00  1.60000000E+01  1.00800000E+00
  1.00800000E+00  0.00000000E+00  1.60000000E+01  1.00800000E+00  1.00800000E+00
  0.00000000E+00  1.60000000E+01  1.00800000E+00  1.00800000E+00  0.00000000E+00
  1.60000000E+01  1.00800000E+00  1.00800000E+00  0.00000000E+00  1.60000000E+01
  1.00800000E+00  1.00800000E+00  0.00000000E+00  1.60000000E+01  1.00800000E+00
  1.00800000E+00  0.00000000E+00  1.60000000E+01  1.00800000E+00  1.00800000E+00
  0.00000000E+00  1.60000000E+01  1.00800000E+00  1.00800000E+00  0.00000000E+00
  1.60000000E+01  1.00800000E+00  1.00800000E+00  0.00000000E+00  1.60000000E+01
  1.00800000E+00  1.00800000E+00  0.00000000E+00  1.60000000E+01  1.00800000E+00
  1.00800000E+00  0.00000000E+00  1.60000000E+01  1.00800000E+00  1.00800000E+00
  0.00000000E+00  1.60000000E+01  1.00800000E+00  1.00800000E+00  0.00000000E+00
  1.60000000E+01  1.00800000E+00  1.00800000E+00  0.00000000E+00  1.60000000E+01
  1.00800000E+00  1.00800000E+00  0.00000000E+00  1.60000000E+01  1.00800000E+00
  1.00800000E+00  0.00000000E+00  1.60000000E+01  1.00800000E+00  1.00800000E+00
  0.00000000E+00  1.60000000E+01  1.00800000E+00  1.00800000E+00  0.00000000E+00
  1.60000000E+01  1.00800000E+00  1.00800000E+00  0.00000000E+00  1.60000000E+01
  1.00800000E+00  1.00800000E+00  0.00000000E+00  1.60000000E+01  1.00800000E+00
  1.00800000E+00  0.00000000E+00  1.60000000E+01  1.00800000E+00  1.00800000E+00
  0.00000000E+00  1.60000000E+01  1.00800000E+00  1.00800000E+00  0.00000000E+00
  1.60000000E+01  1.00800000E+00  1.00800000E+00  0.00000000E+00  1.60000000E+01
  1.00800000E+00  1.00800000E+00  0.00000000E+00  1.60000000E+01  1.00800000E+00
  1.00800000E+00  0.00000000E+00  1.60000000E+01  1.00800000E+00  1.00800000E+00
  0.00000000E+00  1.60000000E+01  1.00800000E+00  1.00800000E+00  0.00000000E+00
  1.60000000E+01  1.00800000E+00  1.00800000E+00  0.00000000E+00  1.60000000E+01
  1.00800000E+00  1.00800000E+00  0.00000000E+00  1.60000000E+01  1.00800000E+00
  1.00800000E+00  0.00000000E+00  1.60000000E+01  1.00800000E+00  1.00800000E+00
  0.00000000E+00  1.60000000E+01  1.00800000E+00  1.00800000E+00  0.00000000E+00
  1.60000000E+01  1.00800000E+00  1.00800000E+00  0.00000000E+00  1.60000000E+01
  1.00800000E+00  1.00800000E+00  0.00000000E+00  1.60000000E+01  1.00800000E+00
  1.00800000E+00  0.00000000E+00  1.60000000E+01  1.00800000E+00  1.00800000E+00
  0.00000000E+00  1.60000000E+01  1.00800000E+00  1.00800000E+00  0.00000000E+00
  1.60000000E+01  1.00800000E+00  1.00800000E+00  0.00000000E+00  1.60000000E+01
  1.00800000E+00  1.00800000E+00  0.00000000E+00  1.60000000E+01  1.00800000E+00
  1.00800000E+00  0.00000000E+00  1.60000000E+01  1.00800000E+00  1.00800000E+00
  0.00000000E+00  1.60000000E+01  1.00800000E+00  1.00800000E+00  0.00000000E+00
  1.60000000E+01  1.00800000E+00  1.00800000E+00  0.00000000E+00  1.60000000E+01
  1.00800000E+00  1.00800000E+00  0.00000000E+00  1.60000000E+01  1.00800000E+00
  1.00800000E+00  0.00000000E+00  1.60000000E+01  1.00800000E+00  1.00800000E+00
  0.00000000E+00  1.60000000E+01  1.00800000E+00  1.00800000E+00  0.00000000E+00
  1.60000000E+01  1.00800000E+00  1.00800000E+00  0.00000000E+00  1.60000000E+01
  1.00800000E+00  1.00800000E+00  0.00000000E+00  1.60000000E+01  1.00800000E+00
  1.00800000E+00  0.00000000E+00  1.60000000E+01  1.00800000E+00  1.00800000E+00
  0.00000000E+00  1.60000000E+01  1.00800000E+00  1.00800000E+00  0.00000000E+00
  1.60000000E+01  1.00800000E+00  1.00800000E+00  0.00000000E+00  1.60000000E+01
  1.00800000E+00  1.00800000E+00  0.00000000E+00  1.60000000E+01  1.00800000E+00
  1.00800000E+00  0.00000000E+00  1.60000000E+01  1.00800000E+00  1.00800000E+00
  0.00000000E+00  1.60000000E+01  1.00800000E+00  1.00800000E+00  0.00000000E+00
  1.60000000E+01  1.00800000E+00  1.00800000E+00  0.00000000E+00  1.60000000E+01
  1.00800000E+00  1.00800000E+00  0.00000000E+00  1.60000000E+01  1.00800000E+00
  1.00800000E+00  0.00000000E+00  1.60000000E+01  1.00800000E+00  1.00800000E+00
  0.00000000E+00  1.60000000E+01  1.00800000E+00  1.00800000E+00  0.00000000E+00
  1.60000000E+01  1.00800000E+00  1.00800000E+00  0.00000000E+00  1.60000000E+01
  1.00800000E+00  1.00800000E+00  0.00000000E+00  1.60000000E+01  1.00800000E+00
  1.00800000E+00  0.00000000E+00  1.60000000E+01  1.00800000E+00  1.00800000E+00
  0.00000000E+00  1.60000000E+01  1.00800000E+00  1.00800000E+00  0.00000000E+00
  1.60000000E+01  1.00800000E+00  1.00800000E+00  0.00000000E+00  1.60000000E+01
  1.00800000E+00  1.00800000E+00  0.00000000E+00  1.60000000E+01  1.00800000E+00
  1.00800000E+00  0.00000000E+00  1.60000000E+01  1.00800000E+00  1.00800000E+00
  0.00000000E+00  1.60000000E+01  1.00800000E+00  1.00800000E+00  0.00000000E+00
  1.60000000E+01  1.00800000E+00  1.00800000E+00  0.00000000E+00  1.60000000E+01
  1.00800000E+00  1.00800000E+00  0.00000000E+00  1.60000000E+01  1.00800000E+00
  1.00800000E+00  0.00000000E+00  1.60000000E+01  1.00800000E+00  1.00800000E+00
  0.00000000E+00  1.60000000E+01  1.00800000E+00  1.00800000E+00  0.00000000E+00
  1.60000000E+01  1.00800000E+00  1.00800000E+00  0.00000000E+00  1.60000000E+01
  1.00800000E+00  1.00800000E+00  0.00000000E+00  1.60000000E+01  1.00800000E+00
  1.00800000E+00  0.00000000E+00  1.60000000E+01  1.00800000E+00  1.00800000E+00
  0.00000000E+00  1.60000000E+01  1.00800000E+00  1.00800000E+00  0.00000000E+00
  1.60000000E+01  1.00800000E+00  1.00800000E+00  0.00000000E+00  1.60000000E+01
  1.00800000E+00  1.00800000E+00  0.00000000E+00  1.60000000E+01  1.00800000E+00
  1.00800000E+00  0.00000000E+00  1.60000000E+01  1.00800000E+00  1.00800000E+00
  0.00000000E+00  1.60000000E+01  1.00800000E+00  1.00800000E+00  0.00000000E+00
  1.60000000E+01  1.00800000E+00  1.00800000E+00  0.00000000E+00  1.60000000E+01
  1.00800000E+00  1.00800000E+00  0.00000000E+00  1.60000000E+01  1.00800000E+00
  1.00800000E+00  0.00000000E+00  1.60000000E+01  1.00800000E+00  1.00800000E+00
  0.00000000E+00  1.60000000E+01  1.00800000E+00  1.00800000E+00  0.00000000E+00
  1.60000000E+01  1.00800000E+00  1.00800000E+00  0.00000000E+00  1.60000000E+01
  1.00800000E+00  1.00800000E+00  0.00000000E+00  1.60000000E+01  1.00800000E+00
  1.00800000E+00  0.00000000E+00  1.60000000E+01  1.00800000E+00  1.00800000E+00
  0.00000000E+00  1.60000000E+01  1.00800000E+00  1.00800000E+00  0.00000000E+00
  1.60000000E+01  1.00800000E+00  1.00800000E+00  0.00000000E+00  1.60000000E+01
  1.00800000E+00  1.00800000E+00  0.00000000E+00  1.60000000E+01  1.00800000E+00
  1.00800000E+00  0.00000000E+00  1.60000000E+01  1.00800000E+00  1.00800000E+00
  0.00000000E+00  1.60000000E+01  1.00800000E+00  1.00800000E+00  0.00000000E+00
  1.60000000E+01  1.00800000E+00  1.00800000E+00  0.00000000E+00  1.60000000E+01
  1.00800000E+00  1.00800000E+00  0.00000000E+00  1.60000000E+01  1.00800000E+00
  1.00800000E+00  0.00000000E+00  1.60000000E+01  1.00800000E+00  1.00800000E+00
  0.00000000E+00  1.60000000E+01  1.00800000E+00  1.00800000E+00  0.00000000E+00
  1.60000000E+01  1.00800000E+00  1.00800000E+00  0.00000000E+00  1.60000000E+01
  1.00800000E+00  1.00800000E+00  0.00000000E+00  1.60000000E+01  1.00800000E+00
  1.00800000E+00  0.00000000E+00  1.60000000E+01  1.00800000E+00  1.00800000E+00
  0.00000000E+00  1.60000000E+01  1.00800000E+00  1.00800000E+00  0.00000000E+00
  1.60000000E+01  1.00800000E+00  1.00800000E+00  0.00000000E+00  1.60000000E+01
  1.00800000E+00  1.00800000E+00  0.00000000E+00  1.60000000E+01  1.00800000E+00
  1.00800000E+00  0.00000000E+00  1.60000000E+01  1.00800000E+00  1.00800000E+00
  0.00000000E+00  1.60000000E+01  1.00800000E+00  1.00800000E+00  0.00000000E+00
  1.60000000E+01  1.00800000E+00  1.00800000E+00  0.00000000E+00  1.60000000E+01
  1.00800000E+00  1.00800000E+00  0.00000000E+00  1.60000000E+01  1.00800000E+00
  1.00800000E+00  0.00000000E+00  1.60000000E+01  1.00800000E+00  1.00800000E+00
  0.00000000E+00  1.60000000E+01  1.00800000E+00  1.00800000E+00  0.00000000E+00
  1.60000000E+01  1.00800000E+00  1.00800000E+00  0.00000000E+00  1.60000000E+01
  1.00800000E+00  1.00800000E+00  0.00000000E+00  1.60000000E+01  1.00800000E+00
  1.00800000E+00  0.00000000E+00  1.60000000E+01  1.00800000E+00  1.00800000E+00
  0.00000000E+00  1.60000000E+01  1.00800000E+00  1.00800000E+00  0.00000000E+00
  1.60000000E+01  1.00800000E+00  1.00800000E+00  0.00000000E+00  1.60000000E+01
  1.00800000E+00  1.00800000E+00  0.00000000E+00  1.60000000E+01  1.00800000E+00
  1.00800000E+00  0.00000000E+00  1.60000000E+01  1.00800000E+00  1.00800000E+00
  0.00000000E+00  1.60000000E+01  1.00800000E+00  1.00800000E+00  0.00000000E+00
  1.60000000E+01  1.00800000E+00  1.00800000E+00  0.00000000E+00  1.60000000E+01
  1.00800000E+00  1.00800000E+00  0.00000000E+00  1.60000000E+01  1.00800000E+00
  1.00800000E+00  0.00000000E+00  1.60000000E+01  1.00800000E+00  1.00800000E+00
  0.00000000E+00  1.60000000E+01  1.00800000E+00  1.00800000E+00  0.00000000E+00
  1.60000000E+01  1.00800000E+00  1.00800000E+00  0.00000000E+00  1.60000000E+01
  1.00800000E+00  1.00800000E+00  0.00000000E+00  1.60000000E+01  1.00800000E+00
  1.00800000E+00  0.00000000E+00  1.60000000E+01  1.00800000E+00  1.00800000E+00
  0.00000000E+00  1.60000000E+01  1.00800000E+00  1.00800000E+00  0.00000000E+00
  1.60000000E+01  1.00800000E+00  1.00800000E+00  0.00000000E+00  1.60000000E+01
  1.00800000E+00  1.00800000E+00  0.00000000E+00  1.60000000E+01  1.00800000E+00
  1.00800000E+00  0.00000000E+00  1.60000000E+01  1.00800000E+00  1.00800000E+00
  0.00000000E+00  1.60000000E+01  1.00800000E+00  1.00800000E+00  0.00000000E+00
  1.60000000E+01  1.00800000E+00  1.00800000E+00  0.00000000E+00  1.60000000E+01
  1.00800000E+00  1.00800000E+00  0.00000000E+00  1.60000000E+01  1.00800000E+00
  1.00800000E+00  0.00000000E+00  1.60000000E+01  1.00800000E+00  1.00800000E+00
  0.00000000E+00  1.60000000E+01  1.00800000E+00  1.00800000E+00  0.00000000E+00
  1.60000000E+01  1.00800000E+00  1.00800000E+00  0.00000000E+00  1.60000000E+01
  1.00800000E+00  1.00800000E+00  0.00000000E+00  1.60000000E+01  1.00800000E+00
  1.00800000E+00  0.00000000E+00  1.60000000E+01  1.00800000E+00  1.00800000E+00
  0.00000000E+00  1.60000000E+01  1.00800000E+00  1.00800000E+00  0.00000000E+00
  1.60000000E+01  1.00800000E+00  1.00800000E+00  0.00000000E+00  1.60000000E+01
  1.00800000E+00  1.00800000E+00  0.00000000E+00  1.60000000E+01  1.00800000E+00
  1.00800000E+00  0.00000000E+00  1.60000000E+01  1.00800000E+00  1.00800000E+00
  0.00000000E+00  1.60000000E+01  1.00800000E+00  1.00800000E+00  0.00000000E+00
  1.60000000E+01  1.00800000E+00  1.00800000E+00  0.00000000E+00  1.60000000E+01
  1.00800000E+00  1.00800000E+00  0.00000000E+00  1.60000000E+01  1.00800000E+00
  1.00800000E+00  0.00000000E+00  1.60000000E+01  1.00800000E+00  1.00800000E+00
  0.00000000E+00  1.60000000E+01  1.00800000E+00  1.00800000E+00  0.00000000E+00
  1.60000000E+01  1.00800000E+00  1.00800000E+00  0.00000000E+00  1.60000000E+01
  1.00800000E+00  1.00800000E+00  0.00000000E+00  1.60000000E+01  1.00800000E+00
  1.00800000E+00  0.00000000E+00  1.60000000E+01  1.00800000E+00  1.00800000E+00
  0.00000000E+00  1.60000000E+01  1.00800000E+00  1.00800000E+00  0.00000000E+00
  1.60000000E+01  1.00800000E+00  1.00800000E+00  0.00000000E+00  1.60000000E+01
  1.00800000E+00  1.00800000E+00  0.00000000E+00  1.60000000E+01  1.00800000E+00
  1.00800000E+00  0.00000000E+00  1.60000000E+01  1.00800000E+00  1.00800000E+00
  0.00000000E+00  1.60000000E+01  1.00800000E+00  1.00800000E+00  0.00000000E+00
  1.60000000E+01  1.00800000E+00  1.00800000E+00  0.00000000E+00  1.60000000E+01
  1.00800000E+00  1.00800000E+00  0.00000000E+00  1.60000000E+01  1.00800000E+00
  1.00800000E+00  0.00000000E+00  1.60000000E+01  1.00800000E+00  1.00800000E+00
  0.00000000E+00  1.60000000E+01  1.00800000E+00  1.00800000E+00  0.00000000E+00
  1.60000000E+01  1.00800000E+00  1.00800000E+00  0.00000000E+00  1.60000000E+01
  1.00800000E+00  1.00800000E+00  0.00000000E+00  1.60000000E+01  1.00800000E+00
  1.00800000E+00  0.00000000E+00  1.60000000E+01  1.00800000E+00  1.00800000E+00
  0.00000000E+00  1.60000000E+01  1.00800000E+00  1.00800000E+00  0.00000000E+00
  1.60000000E+01  1.00800000E+00  1.00800000E+00  0.00000000E+00  1.60000000E+01
  1.00800000E+00  1.00800000E+00  0.00000000E+00  1.60000000E+01  1.00800000E+00
  1.00800000E+00  0.00000000E+00  1.60000000E+01  1.00800000E+00  1.00800000E+00
  0.00000000E+00  1.60000000E+01  1.00800000E+00  1.00800000E+00  0.00000000E+00
  1.60000000E+01  1.00800000E+00  1.00800000E+00  0.00000000E+00  1.60000000E+01
  1.00800000E+00  1.00800000E+00  0.00000000E+00  1.60000000E+01  1.00800000E+00
  1.00800000E+00  0.00000000E+00  1.60000000E+01  1.00800000E+00  1.00800000E+00
  0.00000000E+00  1.60000000E+01  1.00800000E+00  1.00800000E+00  0.00000000E+00
  1.60000000E+01  1.00800000E+00  1.00800000E+00  0.00000000E+00  1.60000000E+01
  1.00800000E+00  1.00800000E+00  0.00000000E+00  1.60000000E+01  1.00800000E+00
  1.00800000E+00  0.00000000E+00  1.60000000E+01  1.00800000E+00  1.00800000E+00
  0.00000000E+00  1.60000000E+01  1.00800000E+00  1.00800000E+00  0.00000000E+00
  1.60000000E+01  1.00800000E+00  1.00800000E+00  0.00000000E+00  1.60000000E+01
  1.00800000E+00  1.00800000E+00  0.00000000E+00  1.60000000E+01  1.00800000E+00
  1.00800000E+00  0.00000000E+00  1.60000000E+01  1.00800000E+00  1.00800000E+00
  0.00000000E+00  1.60000000E+01  1.00800000E+00  1.00800000E+00  0.00000000E+00
  1.60000000E+01  1.00800000E+00  1.00800000E+00  0.00000000E+00  1.60000000E+01
  1.00800000E+00  1.00800000E+00  0.00000000E+00  1.60000000E+01  1.00800000E+00
  1.00800000E+00  0.00000000E+00  1.60000000E+01  1.00800000E+00  1.00800000E+00
  0.00000000E+00  1.60000000E+01  1.00800000E+00  1.00800000E+00  0.00000000E+00
  1.60000000E+01  1.00800000E+00  1.00800000E+00  0.00000000E+00  1.60000000E+01
  1.00800000E+00  1.00800000E+00  0.00000000E+00  1.60000000E+01  1.00800000E+00
  1.00800000E+00  0.00000000E+00  1.60000000E+01  1.00800000E+00  1.00800000E+00
  0.00000000E+00  1.60000000E+01  1.00800000E+00  1.00800000E+00  0.00000000E+00
  1.60000000E+01  1.00800000E+00  1.00800000E+00  0.00000000E+00  1.60000000E+01
  1.00800000E+00  1.00800000E+00  0.00000000E+00  1.60000000E+01  1.00800000E+00
  1.00800000E+00  0.00000000E+00  1.60000000E+01  1.00800000E+00  1.00800000E+00
  0.00000000E+00  1.60000000E+01  1.00800000E+00  1.00800000E+00  0.00000000E+00
  1.60000000E+01  1.00800000E+00  1.00800000E+00  0.00000000E+00  1.60000000E+01
  1.00800000E+00  1.00800000E+00  0.00000000E+00  1.60000000E+01  1.00800000E+00
  1.00800000E+00  0.00000000E+00  1.60000000E+01  1.00800000E+00  1.00800000E+00
  0.00000000E+00  1.60000000E+01  1.00800000E+00  1.00800000E+00  0.00000000E+00
  1.60000000E+01  1.00800000E+00  1.00800000E+00  0.00000000E+00  1.60000000E+01
  1.00800000E+00  1.00800000E+00  0.00000000E+00  1.60000000E+01  1.00800000E+00
  1.00800000E+00  0.00000000E+00  1.60000000E+01  1.00800000E+00  1.00800000E+00
  0.00000000E+00  1.60000000E+01  1.00800000E+00  1.00800000E+00  0.00000000E+00
  1.60000000E+01  1.00800000E+00  1.00800000E+00  0.00000000E+00  1.60000000E+01
  1.00800000E+00  1.00800000E+00  0.00000000E+00  1.60000000E+01  1.00800000E+00
  1.00800000E+00  0.00000000E+00  1.60000000E+01  1.00800000E+00  1.00800000E+00
  0.00000000E+00  1.60000000E+01  1.00800000E+00  1.00800000E+00  0.00000000E+00
  1.60000000E+01  1.00800000E+00  1.00800000E+00  0.00000000E+00  1.60000000E+01
  1.00800000E+00  1.00800000E+00  0.00000000E+00  1.60000000E+01  1.00800000E+00
  1.00800000E+00  0.00000000E+00  1.60000000E+01  1.00800000E+00  1.00800000E+00
  0.00000000E+00  1.60000000E+01  1.00800000E+00  1.00800000E+00  0.00000000E+00
  1.60000000E+01  1.00800000E+00  1.00800000E+00  0.00000000E+00  1.60000000E+01
  1.00800000E+00  1.00800000E+00  0.00000000E+00  1.60000000E+01  1.00800000E+00
  1.00800000E+00  0.00000000E+00  1.60000000E+01  1.00800000E+00  1.00800000E+00
  0.00000000E+00  1.60000000E+01  1.00800000E+00  1.00800000E+00  0.00000000E+00
  1.60000000E+01  1.00800000E+00  1.00800000E+00  0.00000000E+00  1.60000000E+01
  1.00800000E+00  1.00800000E+00  0.00000000E+00  1.60000000E+01  1.00800000E+00
  1.00800000E+00  0.00000000E+00  1.60000000E+01  1.00800000E+00  1.00800000E+00
  0.00000000E+00  1.60000000E+01  1.00800000E+00  1.00800000E+00  0.00000000E+00
  1.60000000E+01  1.00800000E+00  1.00800000E+00  0.00000000E+00  1.60000000E+01
  1.00800000E+00  1.00800000E+00  0.00000000E+00  1.60000000E+01  1.00800000E+00
  1.00800000E+00  0.00000000E+00  1.60000000E+01  1.00800000E+00  1.00800000E+00
  0.00000000E+00  1.60000000E+01  1.00800000E+00  1.00800000E+00  0.00000000E+00
  1.60000000E+01  1.00800000E+00  1.00800000E+00  0.00000000E+00  1.60000000E+01
  1.00800000E+00  1.00800000E+00  0.00000000E+00  1.60000000E+01  1.00800000E+00
  1.00800000E+00  0.00000000E+00  1.60000000E+01  1.00800000E+00  1.00800000E+00
  0.00000000E+00  1.60000000E+01  1.00800000E+00  1.00800000E+00  0.00000000E+00
  1.60000000E+01  1.00800000E+00  1.00800000E+00  0.00000000E+00  1.60000000E+01
  1.00800000E+00  1.00800000E+00  0.00000000E+00  1.60000000E+01  1.00800000E+00
  1.00800000E+00  0.00000000E+00  1.60000000E+01  1.00800000E+00  1.00800000E+00
  0.00000000E+00  1.60000000E+01  1.00800000E+00  1.00800000E+00  0.00000000E+00
  1.60000000E+01  1.00800000E+00  1.00800000E+00  0.00000000E+00  1.60000000E+01
  1.00800000E+00  1.00800000E+00  0.00000000E+00  1.60000000E+01  1.00800000E+00
  1.00800000E+00  0.00000000E+00  1.60000000E+01  1.00800000E+00  1.00800000E+00
  0.00000000E+00  1.60000000E+01  1.00800000E+00  1.00800000E+00  0.00000000E+00
  1.60000000E+01  1.00800000E+00  1.00800000E+00  0.00000000E+00  1.60000000E+01
  1.00800000E+00  1.00800000E+00  0.00000000E+00  1.60000000E+01  1.00800000E+00
  1.00800000E+00  0.00000000E+00  1.60000000E+01  1.00800000E+00  1.00800000E+00
  0.00000000E+00  1.60000000E+01  1.00800000E+00  1.00800000E+00  0.00000000E+00
  1.60000000E+01  1.00800000E+00  1.00800000E+00  0.00000000E+00  1.60000000E+01
  1.00800000E+00  1.00800000E+00  0.00000000E+00  1.60000000E+01  1.00800000E+00
  1.00800000E+00  0.00000000E+00  1.60000000E+01  1.00800000E+00  1.00800000E+00
  0.00000000E+00  1.60000000E+01  1.00800000E+00  1.00800000E+00  0.00000000E+00
  1.60000000E+01  1.00800000E+00  1.00800000E+00  0.00000000E+00  1.60000000E+01
  1.00800000E+00  1.00800000E+00  0.00000000E+00  1.60000000E+01  1.00800000E+00
  1.00800000E+00  0.00000000E+00  1.60000000E+01  1.00800000E+00  1.00800000E+00
  0.00000000E+00  1.60000000E+01  1.00800000E+00  1.00800000E+00  0.00000000E+00
  1.60000000E+01  1.00800000E+00  1.00800000E+00  0.00000000E+00  1.60000000E+01
  1.00800000E+00  1.00800000E+00  0.00000000E+00  1.60000000E+01  1.00800000E+00
  1.00800000E+00  0.00000000E+00  1.60000000E+01  1.00800000E+00  1.00800000E+00
  0.00000000E+00  1.60000000E+01  1.00800000E+00  1.00800000E+00  0.00000000E+00
  1.60000000E+01  1.00800000E+00  1.00800000E+00  0.00000000E+00  1.60000000E+01
  1.00800000E+00  1.00800000E+00  0.00000000E+00  1.60000000E+01  1.00800000E+00
  1.00800000E+00  0.00000000E+00  1.60000000E+01  1.00800000E+00  1.00800000E+00
  0.00000000E+00  1.60000000E+01  1.00800000E+00  1.00800000E+00  0.00000000E+00
  1.60000000E+01  1.00800000E+00  1.00800000E+00  0.00000000E+00  1.60000000E+01
  1.00800000E+00  1.00800000E+00  0.00000000E+00  1.60000000E+01  1.00800000E+00
  1.00800000E+00  0.00000000E+00  1.60000000E+01  1.00800000E+00  1.00800000E+00
  0.00000000E+00  1.60000000E+01  1.00800000E+00  1.00800000E+00  0.00000000E+00
  1.60000000E+01  1.00800000E+00  1.00800000E+00  0.00000000E+00  1.60000000E+01
  1.00800000E+00  1.00800000E+00  0.00000000E+00  1.60000000E+01  1.00800000E+00
  1.00800000E+00  0.00000000E+00  1.60000000E+01  1.00800000E+00  1.00800000E+00
  0.00000000E+00  1.60000000E+01  1.00800000E+00  1.00800000E+00  0.00000000E+00
  1.60000000E+01  1.00800000E+00  1.00800000E+00  0.00000000E+00  1.60000000E+01
  1.00800000E+00  1.00800000E+00  0.00000000E+00  1.60000000E+01  1.00800000E+00
  1.00800000E+00  0.00000000E+00  1.60000000E+01  1.00800000E+00  1.00800000E+00
  0.00000000E+00  1.60000000E+01  1.00800000E+00  1.00800000E+00  0.00000000E+00
  1.60000000E+01  1.00800000E+00  1.00800000E+00  0.00000000E+00  1.60000000E+01
  1.00800000E+00  1.00800000E+00  0.00000000E+00  1.60000000E+01  1.00800000E+00
  1.00800000E+00  0.00000000E+00  1.60000000E+01  1.00800000E+00  1.00800000E+00
  0.00000000E+00  1.60000000E+01  1.00800000E+00  1.00800000E+00  0.00000000E+00
  1.60000000E+01  1.00800000E+00  1.00800000E+00  0.00000000E+00  1.60000000E+01
  1.00800000E+00  1.00800000E+00  0.00000000E+00  1.60000000E+01  1.00800000E+00
  1.00800000E+00  0.00000000E+00  1.60000000E+01  1.00800000E+00  1.00800000E+00
  0.00000000E+00  1.60000000E+01  1.00800000E+00  1.00800000E+00  0.00000000E+00
  1.60000000E+01  1.00800000E+00  1.00800000E+00  0.00000000E+00  1.60000000E+01
  1.00800000E+00  1.00800000E+00  0.00000000E+00  1.60000000E+01  1.00800000E+00
  1.00800000E+00  0.00000000E+00  1.60000000E+01  1.00800000E+00  1.00800000E+00
  0.00000000E+00  1.60000000E+01  1.00800000E+00  1.00800000E+00  0.00000000E+00
  1.60000000E+01  1.00800000E+00  1.00800000E+00  0.00000000E+00  1.60000000E+01
  1.00800000E+00  1.00800000E+00  0.00000000E+00  1.60000000E+01  1.00800000E+00
  1.00800000E+00  0.00000000E+00  1.60000000E+01  1.00800000E+00  1.00800000E+00
  0.00000000E+00  1.60000000E+01  1.00800000E+00  1.00800000E+00  0.00000000E+00
  1.60000000E+01  1.00800000E+00  1.00800000E+00  0.00000000E+00  1.60000000E+01
  1.00800000E+00  1.00800000E+00  0.00000000E+00  1.60000000E+01  1.00800000E+00
  1.00800000E+00  0.00000000E+00  1.60000000E+01  1.00800000E+00  1.00800000E+00
  0.00000000E+00  1.60000000E+01  1.00800000E+00  1.00800000E+00  0.00000000E+00
  1.60000000E+01  1.00800000E+00  1.00800000E+00  0.00000000E+00  1.60000000E+01
  1.00800000E+00  1.00800000E+00  0.00000000E+00  1.60000000E+01  1.00800000E+00
  1.00800000E+00  0.00000000E+00  1.60000000E+01  1.00800000E+00  1.00800000E+00
  0.00000000E+00  1.60000000E+01  1.00800000E+00  1.00800000E+00  0.00000000E+00
  1.60000000E+01  1.00800000E+00  1.00800000E+00  0.00000000E+00  1.60000000E+01
  1.00800000E+00  1.00800000E+00  0.00000000E+00  1.60000000E+01  1.00800000E+00
  1.00800000E+00  0.00000000E+00  1.60000000E+01  1.00800000E+00  1.00800000E+00
  0.00000000E+00  1.60000000E+01  1.00800000E+00  1.00800000E+00  0.00000000E+00
  1.60000000E+01  1.00800000E+00  1.00800000E+00  0.00000000E+00  1.60000000E+01
  1.00800000E+00  1.00800000E+00  0.00000000E+00  1.60000000E+01  1.00800000E+00
  1.00800000E+00  0.00000000E+00  1.60000000E+01  1.00800000E+00  1.00800000E+00
  0.00000000E+00  1.60000000E+01  1.00800000E+00  1.00800000E+00  0.00000000E+00
  1.60000000E+01  1.00800000E+00  1.00800000E+00  0.00000000E+00  1.60000000E+01
  1.00800000E+00  1.00800000E+00  0.00000000E+00  1.60000000E+01  1.00800000E+00
  1.00800000E+00  0.00000000E+00  1.60000000E+01  1.00800000E+00  1.00800000E+00
  0.00000000E+00  1.60000000E+01  1.00800000E+00  1.00800000E+00  0.00000000E+00
  1.60000000E+01  1.00800000E+00  1.00800000E+00  0.00000000E+00  1.60000000E+01
  1.00800000E+00  1.00800000E+00  0.00000000E+00  1.60000000E+01  1.00800000E+00
  1.00800000E+00  0.00000000E+00  1.60000000E+01  1.00800000E+00  1.00800000E+00
  0.00000000E+00  1.60000000E+01  1.00800000E+00  1.00800000E+00  0.00000000E+00
  1.60000000E+01  1.00800000E+00  1.00800000E+00  0.00000000E+00  1.60000000E+01
  1.00800000E+00  1.00800000E+00  0.00000000E+00  1.60000000E+01  1.00800000E+00
  1.00800000E+00  0.00000000E+00  1.60000000E+01  1.00800000E+00  1.00800000E+00
  0.00000000E+00  1.60000000E+01  1.00800000E+00  1.00800000E+00  0.00000000E+00
  1.60000000E+01  1.00800000E+00  1.00800000E+00  0.00000000E+00  1.60000000E+01
  1.00800000E+00  1.00800000E+00  0.00000000E+00  1.60000000E+01  1.00800000E+00
  1.00800000E+00  0.00000000E+00  1.60000000E+01  1.00800000E+00  1.00800000E+00
  0.00000000E+00  1.60000000E+01  1.00800000E+00  1.00800000E+00  0.00000000E+00
  1.60000000E+01  1.00800000E+00  1.00800000E+00  0.00000000E+00  1.60000000E+01
  1.00800000E+00  1.00800000E+00  0.00000000E+00  1.60000000E+01  1.00800000E+00
  1.00800000E+00  0.00000000E+00  1.60000000E+01  1.00800000E+00  1.00800000E+00
  0.00000000E+00  1.60000000E+01  1.00800000E+00  1.00800000E+00  0.00000000E+00
  1.60000000E+01  1.00800000E+00  1.00800000E+00  0.00000000E+00  1.60000000E+01
  1.00800000E+00  1.00800000E+00  0.00000000E+00  1.60000000E+01  1.00800000E+00
  1.00800000E+00  0.00000000E+00  1.60000000E+01  1.00800000E+00  1.00800000E+00
  0.00000000E+00  1.60000000E+01  1.00800000E+00  1.00800000E+00  0.00000000E+00
  1.60000000E+01  1.00800000E+00  1.00800000E+00  0.00000000E+00  1.60000000E+01
  1.00800000E+00  1.00800000E+00  0.00000000E+00  1.60000000E+01  1.00800000E+00
  1.00800000E+00  0.00000000E+00  1.60000000E+01  1.00800000E+00  1.00800000E+00
  0.00000000E+00  1.60000000E+01  1.00800000E+00  1.00800000E+00  0.00000000E+00
  1.60000000E+01  1.00800000E+00  1.00800000E+00  0.00000000E+00  1.60000000E+01
  1.00800000E+00  1.00800000E+00  0.00000000E+00  1.60000000E+01  1.00800000E+00
  1.00800000E+00  0.00000000E+00  1.60000000E+01  1.00800000E+00  1.00800000E+00
  0.00000000E+00  1.60000000E+01  1.00800000E+00  1.00800000E+00  0.00000000E+00
  1.60000000E+01  1.00800000E+00  1.00800000E+00  0.00000000E+00  1.60000000E+01
  1.00800000E+00  1.00800000E+00  0.00000000E+00  1.60000000E+01  1.00800000E+00
  1.00800000E+00  0.00000000E+00  1.60000000E+01  1.00800000E+00  1.00800000E+00
  0.00000000E+00  1.60000000E+01  1.00800000E+00  1.00800000E+00  0.00000000E+00
  1.60000000E+01  1.00800000E+00  1.00800000E+00  0.00000000E+00  1.60000000E+01
  1.00800000E+00  1.00800000E+00  0.00000000E+00  1.60000000E+01  1.00800000E+00
  1.00800000E+00  0.00000000E+00  1.60000000E+01  1.00800000E+00  1.00800000E+00
  0.00000000E+00  1.60000000E+01  1.00800000E+00  1.00800000E+00  0.00000000E+00
  1.60000000E+01  1.00800000E+00  1.00800000E+00  0.00000000E+00  1.60000000E+01
  1.00800000E+00  1.00800000E+00  0.00000000E+00  1.60000000E+01  1.00800000E+00
  1.00800000E+00  0.00000000E+00  1.60000000E+01  1.00800000E+00  1.00800000E+00
  0.00000000E+00  1.60000000E+01  1.00800000E+00  1.00800000E+00  0.00000000E+00
  1.60000000E+01  1.00800000E+00  1.00800000E+00  0.00000000E+00  1.60000000E+01
  1.00800000E+00  1.00800000E+00  0.00000000E+00  1.60000000E+01  1.00800000E+00
  1.00800000E+00  0.00000000E+00  1.60000000E+01  1.00800000E+00  1.00800000E+00
  0.00000000E+00  1.60000000E+01  1.00800000E+00  1.00800000E+00  0.00000000E+00
  1.60000000E+01  1.00800000E+00  1.00800000E+00  0.00000000E+00  1.60000000E+01
  1.00800000E+00  1.00800000E+00  0.00000000E+00  1.60000000E+01  1.00800000E+00
  1.00800000E+00  0.00000000E+00  1.60000000E+01  1.00800000E+00  1.00800000E+00
  0.00000000E+00  1.60000000E+01  1.00800000E+00  1.00800000E+00  0.00000000E+00
  1.60000000E+01  1.00800000E+00  1.00800000E+00  0.00000000E+00  1.60000000E+01
  1.00800000E+00  1.00800000E+00  0.00000000E+00  1.60000000E+01  1.00800000E+00
  1.00800000E+00  0.00000000E+00  1.60000000E+01  1.00800000E+00  1.00800000E+00
  0.00000000E+00  1.60000000E+01  1.00800000E+00  1.00800000E+00  0.00000000E+00
  1.60000000E+01  1.00800000E+00  1.00800000E+00  0.00000000E+00  1.60000000E+01
  1.00800000E+00  1.00800000E+00  0.00000000E+00  1.60000000E+01  1.00800000E+00
  1.00800000E+00  0.00000000E+00  1.60000000E+01  1.00800000E+00  1.00800000E+00
  0.00000000E+00  1.60000000E+01  1.00800000E+00  1.00800000E+00  0.00000000E+00
  1.60000000E+01  1.00800000E+00  1.00800000E+00  0.00000000E+00  1.60000000E+01
  1.00800000E+00  1.00800000E+00  0.00000000E+00  1.60000000E+01  1.00800000E+00
  1.00800000E+00  0.00000000E+00  1.60000000E+01  1.00800000E+00  1.00800000E+00
  0.00000000E+00  1.60000000E+01  1.00800000E+00  1.00800000E+00  0.00000000E+00
  1.60000000E+01  1.00800000E+00  1.00800000E+00  0.00000000E+00  1.60000000E+01
  1.00800000E+00  1.00800000E+00  0.00000000E+00  1.60000000E+01  1.00800000E+00
  1.00800000E+00  0.00000000E+00  1.60000000E+01  1.00800000E+00  1.00800000E+00
  0.00000000E+00  1.60000000E+01  1.00800000E+00  1.00800000E+00  0.00000000E+00
  1.60000000E+01  1.00800000E+00  1.00800000E+00  0.00000000E+00  1.60000000E+01
  1.00800000E+00  1.00800000E+00  0.00000000E+00  1.60000000E+01  1.00800000E+00
  1.00800000E+00  0.00000000E+00  1.60000000E+01  1.00800000E+00  1.00800000E+00
  0.00000000E+00  1.60000000E+01  1.00800000E+00  1.00800000E+00  0.00000000E+00
  1.60000000E+01  1.00800000E+00  1.00800000E+00  0.00000000E+00  1.60000000E+01
  1.00800000E+00  1.00800000E+00  0.00000000E+00  1.60000000E+01  1.00800000E+00
  1.00800000E+00  0.00000000E+00  1.60000000E+01  1.00800000E+00  1.00800000E+00
  0.00000000E+00  1.60000000E+01  1.00800000E+00  1.00800000E+00  0.00000000E+00
  1.60000000E+01  1.00800000E+00  1.00800000E+00  0.00000000E+00  1.60000000E+01
  1.00800000E+00  1.00800000E+00  0.00000000E+00  1.60000000E+01  1.00800000E+00
  1.00800000E+00  0.00000000E+00  1.60000000E+01  1.00800000E+00  1.00800000E+00
  0.00000000E+00  1.60000000E+01  1.00800000E+00  1.00800000E+00  0.00000000E+00
  1.60000000E+01  1.00800000E+00  1.00800000E+00  0.00000000E+00  1.60000000E+01
  1.00800000E+00  1.00800000E+00  0.00000000E+00  1.60000000E+01  1.00800000E+00
  1.00800000E+00  0.00000000E+00  1.60000000E+01  1.00800000E+00  1.00800000E+00
  0.00000000E+00  1.60000000E+01  1.00800000E+00  1.00800000E+00  0.00000000E+00
  1.60000000E+01  1.00800000E+00  1.00800000E+00  0.00000000E+00  1.60000000E+01
  1.00800000E+00  1.00800000E+00  0.00000000E+00  1.60000000E+01  1.00800000E+00
  1.00800000E+00  0.00000000E+00  1.60000000E+01  1.00800000E+00  1.00800000E+00
  0.00000000E+00  1.60000000E+01  1.00800000E+00  1.00800000E+00  0.00000000E+00
  1.60000000E+01  1.00800000E+00  1.00800000E+00  0.00000000E+00  1.60000000E+01
  1.00800000E+00  1.00800000E+00  0.00000000E+00  1.60000000E+01  1.00800000E+00
  1.00800000E+00  0.00000000E+00  1.60000000E+01  1.00800000E+00  1.00800000E+00
  0.00000000E+00  1.60000000E+01  1.00800000E+00  1.00800000E+00  0.00000000E+00
  1.60000000E+01  1.00800000E+00  1.00800000E+00  0.00000000E+00  1.60000000E+01
  1.00800000E+00  1.00800000E+00  0.00000000E+00  1.60000000E+01  1.00800000E+00
  1.00800000E+00  0.00000000E+00  1.60000000E+01  1.00800000E+00  1.00800000E+00
  0.00000000E+00  1.60000000E+01  1.00800000E+00  1.00800000E+00  0.00000000E+00
  1.60000000E+01  1.00800000E+00  1.00800000E+00  0.00000000E+00  1.60000000E+01
  1.00800000E+00  1.00800000E+00  0.00000000E+00  1.60000000E+01  1.00800000E+00
  1.00800000E+00  0.00000000E+00  1.60000000E+01  1.00800000E+00  1.00800000E+00
  0.00000000E+00  1.60000000E+01  1.00800000E+00  1.00800000E+00  0.00000000E+00
  1.60000000E+01  1.00800000E+00  1.00800000E+00  0.00000000E+00  1.60000000E+01
  1.00800000E+00  1.00800000E+00  0.00000000E+00  1.60000000E+01  1.00800000E+00
  1.00800000E+00  0.00000000E+00  1.60000000E+01  1.00800000E+00  1.00800000E+00
  0.00000000E+00  1.60000000E+01  1.00800000E+00  1.00800000E+00  0.00000000E+00
  1.60000000E+01  1.00800000E+00  1.00800000E+00  0.00000000E+00  1.60000000E+01
  1.00800000E+00  1.00800000E+00  0.00000000E+00  1.60000000E+01  1.00800000E+00
  1.00800000E+00  0.00000000E+00  1.60000000E+01  1.00800000E+00  1.00800000E+00
  0.00000000E+00  1.60000000E+01  1.00800000E+00  1.00800000E+00  0.00000000E+00
  1.60000000E+01  1.00800000E+00  1.00800000E+00  0.00000000E+00  1.60000000E+01
  1.00800000E+00  1.00800000E+00  0.00000000E+00  1.60000000E+01  1.00800000E+00
  1.00800000E+00  0.00000000E+00  1.60000000E+01  1.00800000E+00  1.00800000E+00
  0.00000000E+00  1.60000000E+01  1.00800000E+00  1.00800000E+00  0.00000000E+00
  1.60000000E+01  1.00800000E+00  1.00800000E+00  0.00000000E+00  1.60000000E+01
  1.00800000E+00  1.00800000E+00  0.00000000E+00  1.60000000E+01  1.00800000E+00
  1.00800000E+00  0.00000000E+00  1.60000000E+01  1.00800000E+00  1.00800000E+00
  0.00000000E+00  1.60000000E+01  1.00800000E+00  1.00800000E+00  0.00000000E+00
  1.60000000E+01  1.00800000E+00  1.00800000E+00  0.00000000E+00  1.60000000E+01
  1.00800000E+00  1.00800000E+00  0.00000000E+00  1.60000000E+01  1.00800000E+00
  1.00800000E+00  0.00000000E+00  1.60000000E+01  1.00800000E+00  1.00800000E+00
  0.00000000E+00  1.60000000E+01  1.00800000E+00  1.00800000E+00  0.00000000E+00
  1.60000000E+01  1.00800000E+00  1.00800000E+00  0.00000000E+00  1.60000000E+01
  1.00800000E+00  1.00800000E+00  0.00000000E+00  1.60000000E+01  1.00800000E+00
  1.00800000E+00  0.00000000E+00  1.60000000E+01  1.00800000E+00  1.00800000E+00
  0.00000000E+00  1.60000000E+01  1.00800000E+00  1.00800000E+00  0.00000000E+00
  1.60000000E+01  1.00800000E+00  1.00800000E+00  0.00000000E+00  1.60000000E+01
  1.00800000E+00  1.00800000E+00  0.00000000E+00  1.60000000E+01  1.00800000E+00
  1.00800000E+00  0.00000000E+00  1.60000000E+01  1.00800000E+00  1.00800000E+00
  0.00000000E+00  1.60000000E+01  1.00800000E+00  1.00800000E+00  0.00000000E+00
  1.60000000E+01  1.00800000E+00  1.00800000E+00  0.00000000E+00  1.60000000E+01
  1.00800000E+00  1.00800000E+00  0.00000000E+00  1.60000000E+01  1.00800000E+00
  1.00800000E+00  0.00000000E+00  1.60000000E+01  1.00800000E+00  1.00800000E+00
  0.00000000E+00  1.60000000E+01  1.00800000E+00  1.00800000E+00  0.00000000E+00
  1.60000000E+01  1.00800000E+00  1.00800000E+00  0.00000000E+00  1.60000000E+01
  1.00800000E+00  1.00800000E+00  0.00000000E+00  1.60000000E+01  1.00800000E+00
  1.00800000E+00  0.00000000E+00  1.60000000E+01  1.00800000E+00  1.00800000E+00
  0.00000000E+00  1.60000000E+01  1.00800000E+00  1.00800000E+00  0.00000000E+00
  1.60000000E+01  1.00800000E+00  1.00800000E+00  0.00000000E+00  1.60000000E+01
  1.00800000E+00  1.00800000E+00  0.00000000E+00  1.60000000E+01  1.00800000E+00
  1.00800000E+00  0.00000000E+00  1.60000000E+01  1.00800000E+00  1.00800000E+00
  0.00000000E+00  1.60000000E+01  1.00800000E+00  1.00800000E+00  0.00000000E+00
  1.60000000E+01  1.00800000E+00  1.00800000E+00  0.00000000E+00  1.60000000E+01
  1.00800000E+00  1.00800000E+00  0.00000000E+00  1.60000000E+01  1.00800000E+00
  1.00800000E+00  0.00000000E+00  1.60000000E+01  1.00800000E+00  1.00800000E+00
  0.00000000E+00  1.60000000E+01  1.00800000E+00  1.00800000E+00  0.00000000E+00
  1.60000000E+01  1.00800000E+00  1.00800000E+00  0.00000000E+00  1.60000000E+01
  1.00800000E+00  1.00800000E+00  0.00000000E+00  1.60000000E+01  1.00800000E+00
  1.00800000E+00  0.00000000E+00  1.60000000E+01  1.00800000E+00  1.00800000E+00
  0.00000000E+00  1.60000000E+01  1.00800000E+00  1.00800000E+00  0.00000000E+00
  1.60000000E+01  1.00800000E+00  1.00800000E+00  0.00000000E+00  1.60000000E+01
  1.00800000E+00  1.00800000E+00  0.00000000E+00  1.60000000E+01  1.00800000E+00
  1.00800000E+00  0.00000000E+00  1.60000000E+01  1.00800000E+00  1.00800000E+00
  0.00000000E+00  1.60000000E+01  1.00800000E+00  1.00800000E+00  0.00000000E+00
  1.60000000E+01  1.00800000E+00  1.00800000E+00  0.00000000E+00  1.60000000E+01
  1.00800000E+00  1.00800000E+00  0.00000000E+00  1.60000000E+01  1.00800000E+00
  1.00800000E+00  0.00000000E+00  1.60000000E+01  1.00800000E+00  1.00800000E+00
  0.00000000E+00  1.60000000E+01  1.00800000E+00  1.00800000E+00  0.00000000E+00
  1.60000000E+01  1.00800000E+00  1.00800000E+00  0.00000000E+00  1.60000000E+01
  1.00800000E+00  1.00800000E+00  0.00000000E+00  1.60000000E+01  1.00800000E+00
  1.00800000E+00  0.00000000E+00  1.60000000E+01  1.00800000E+00  1.00800000E+00
  0.00000000E+00  1.60000000E+01  1.00800000E+00  1.00800000E+00  0.00000000E+00
  1.60000000E+01  1.00800000E+00  1.00800000E+00  0.00000000E+00  1.60000000E+01
  1.00800000E+00  1.00800000E+00  0.00000000E+00  1.60000000E+01  1.00800000E+00
  1.00800000E+00  0.00000000E+00  1.60000000E+01  1.00800000E+00  1.00800000E+00
  0.00000000E+00  1.60000000E+01  1.00800000E+00  1.00800000E+00  0.00000000E+00
  1.60000000E+01  1.00800000E+00  1.00800000E+00  0.00000000E+00  1.60000000E+01
  1.00800000E+00  1.00800000E+00  0.00000000E+00  1.60000000E+01  1.00800000E+00
  1.00800000E+00  0.00000000E+00  1.60000000E+01  1.00800000E+00  1.00800000E+00
  0.00000000E+00  1.60000000E+01  1.00800000E+00  1.00800000E+00  0.00000000E+00
  1.60000000E+01  1.00800000E+00  1.00800000E+00  0.00000000E+00  1.60000000E+01
  1.00800000E+00  1.00800000E+00  0.00000000E+00  1.60000000E+01  1.00800000E+00
  1.00800000E+00  0.00000000E+00  1.60000000E+01  1.00800000E+00  1.00800000E+00
  0.00000000E+00  1.60000000E+01  1.00800000E+00  1.00800000E+00  0.00000000E+00
  1.60000000E+01  1.00800000E+00  1.00800000E+00  0.00000000E+00  1.60000000E+01
  1.00800000E+00  1.00800000E+00  0.00000000E+00  1.60000000E+01  1.00800000E+00
  1.00800000E+00  0.00000000E+00  1.60000000E+01  1.00800000E+00  1.00800000E+00
  0.00000000E+00  1.60000000E+01  1.00800000E+00  1.00800000E+00  0.00000000E+00
  1.60000000E+01  1.00800000E+00  1.00800000E+00  0.00000000E+00  1.60000000E+01
  1.00800000E+00  1.00800000E+00  0.00000000E+00  1.60000000E+01  1.00800000E+00
  1.00800000E+00  0.00000000E+00  1.60000000E+01  1.00800000E+00  1.00800000E+00
  0.00000000E+00  1.60000000E+01  1.00800000E+00  1.00800000E+00  0.00000000E+00
  1.60000000E+01  1.00800000E+00  1.00800000E+00  0.00000000E+00  1.60000000E+01
  1.00800000E+00  1.00800000E+00  0.00000000E+00  1.60000000E+01  1.00800000E+00
  1.00800000E+00  0.00000000E+00  1.60000000E+01  1.00800000E+00  1.00800000E+00
  0.00000000E+00  1.60000000E+01  1.00800000E+00  1.00800000E+00  0.00000000E+00
  1.60000000E+01  1.00800000E+00  1.00800000E+00  0.00000000E+00  1.60000000E+01
  1.00800000E+00  1.00800000E+00  0.00000000E+00  1.60000000E+01  1.00800000E+00
  1.00800000E+00  0.00000000E+00  1.60000000E+01  1.00800000E+00  1.00800000E+00
  0.00000000E+00  1.60000000E+01  1.00800000E+00  1.00800000E+00  0.00000000E+00
  1.60000000E+01  1.00800000E+00  1.00800000E+00  0.00000000E+00  1.60000000E+01
  1.00800000E+00  1.00800000E+00  0.00000000E+00  1.60000000E+01  1.00800000E+00
  1.00800000E+00  0.00000000E+00  1.60000000E+01  1.00800000E+00  1.00800000E+00
  0.00000000E+00  1.60000000E+01  1.00800000E+00  1.00800000E+00  0.00000000E+00
  1.60000000E+01  1.00800000E+00  1.00800000E+00  0.00000000E+00  1.60000000E+01
  1.00800000E+00  1.00800000E+00  0.00000000E+00  1.60000000E+01  1.00800000E+00
  1.00800000E+00  0.00000000E+00  1.60000000E+01  1.00800000E+00  1.00800000E+00
  0.00000000E+00  1.60000000E+01  1.00800000E+00  1.00800000E+00  0.00000000E+00
  1.60000000E+01  1.00800000E+00  1.00800000E+00  0.00000000E+00  1.60000000E+01
  1.00800000E+00  1.00800000E+00  0.00000000E+00  1.60000000E+01  1.00800000E+00
  1.00800000E+00  0.00000000E+00  1.60000000E+01  1.00800000E+00  1.00800000E+00
  0.00000000E+00  1.60000000E+01  1.00800000E+00  1.00800000E+00  0.00000000E+00
  1.60000000E+01  1.00800000E+00  1.00800000E+00  0.00000000E+00  1.60000000E+01
  1.00800000E+00  1.00800000E+00  0.00000000E+00  1.60000000E+01  1.00800000E+00
  1.00800000E+00  0.00000000E+00  1.60000000E+01  1.00800000E+00  1.00800000E+00
  0.00000000E+00  1.60000000E+01  1.00800000E+00  1.00800000E+00  0.00000000E+00
  1.60000000E+01  1.00800000E+00  1.00800000E+00  0.00000000E+00  1.60000000E+01
  1.00800000E+00  1.00800000E+00  0.00000000E+00  1.60000000E+01  1.00800000E+00
  1.00800000E+00  0.00000000E+00  1.60000000E+01  1.00800000E+00  1.00800000E+00
  0.00000000E+00  1.60000000E+01  1.00800000E+00  1.00800000E+00  0.00000000E+00
  1.60000000E+01  1.00800000E+00  1.00800000E+00  0.00000000E+00  1.60000000E+01
  1.00800000E+00  1.00800000E+00  0.00000000E+00  1.60000000E+01  1.00800000E+00
  1.00800000E+00  0.00000000E+00  1.60000000E+01  1.00800000E+00  1.00800000E+00
  0.00000000E+00  1.60000000E+01  1.00800000E+00  1.00800000E+00  0.00000000E+00
  1.60000000E+01  1.00800000E+00  1.00800000E+00  0.00000000E+00  1.60000000E+01
  1.00800000E+00  1.00800000E+00  0.00000000E+00  1.60000000E+01  1.00800000E+00
  1.00800000E+00  0.00000000E+00  1.60000000E+01  1.00800000E+00  1.00800000E+00
  0.00000000E+00  1.60000000E+01  1.00800000E+00  1.00800000E+00  0.00000000E+00
  1.60000000E+01  1.00800000E+00  1.00800000E+00  0.00000000E+00  1.60000000E+01
  1.00800000E+00  1.00800000E+00  0.00000000E+00  1.60000000E+01  1.00800000E+00
  1.00800000E+00  0.00000000E+00  1.60000000E+01  1.00800000E+00  1.00800000E+00
  0.00000000E+00  1.60000000E+01  1.00800000E+00  1.00800000E+00  0.00000000E+00
  1.60000000E+01  1.00800000E+00  1.00800000E+00  0.00000000E+00  1.60000000E+01
  1.00800000E+00  1.00800000E+00  0.00000000E+00  1.60000000E+01  1.00800000E+00
  1.00800000E+00  0.00000000E+00  1.60000000E+01  1.00800000E+00  1.00800000E+00
  0.00000000E+00  1.60000000E+01  1.00800000E+00  1.00800000E+00  0.00000000E+00
  1.60000000E+01  1.00800000E+00  1.00800000E+00  0.00000000E+00  1.60000000E+01
  1.00800000E+00  1.00800000E+00  0.00000000E+00  1.60000000E+01  1.00800000E+00
  1.00800000E+00  0.00000000E+00  1.60000000E+01  1.00800000E+00  1.00800000E+00
  0.00000000E+00  1.60000000E+01  1.00800000E+00  1.00800000E+00  0.00000000E+00
  1.60000000E+01  1.00800000E+00  1.00800000E+00  0.00000000E+00  1.60000000E+01
  1.00800000E+00  1.00800000E+00  0.00000000E+00  1.60000000E+01  1.00800000E+00
  1.00800000E+00  0.00000000E+00  1.60000000E+01  1.00800000E+00  1.00800000E+00
  0.00000000E+00  1.60000000E+01  1.00800000E+00  1.00800000E+00  0.00000000E+00
  1.60000000E+01  1.00800000E+00  1.00800000E+00  0.00000000E+00  1.60000000E+01
  1.00800000E+00  1.00800000E+00  0.00000000E+00  1.60000000E+01  1.00800000E+00
  1.00800000E+00  0.00000000E+00  1.60000000E+01  1.00800000E+00  1.00800000E+00
  0.00000000E+00  1.60000000E+01  1.00800000E+00  1.00800000E+00  0.00000000E+00
  1.60000000E+01  1.00800000E+00  1.00800000E+00  0.00000000E+00  1.60000000E+01
  1.00800000E+00  1.00800000E+00  0.00000000E+00  1.60000000E+01  1.00800000E+00
  1.00800000E+00  0.00000000E+00  1.60000000E+01  1.00800000E+00  1.00800000E+00
  0.00000000E+00  1.60000000E+01  1.00800000E+00  1.00800000E+00  0.00000000E+00
  1.60000000E+01  1.00800000E+00  1.00800000E+00  0.00000000E+00  1.60000000E+01
  1.00800000E+00  1.00800000E+00  0.00000000E+00  1.60000000E+01  1.00800000E+00
  1.00800000E+00  0.00000000E+00  1.60000000E+01  1.00800000E+00  1.00800000E+00
  0.00000000E+00  1.60000000E+01  1.00800000E+00  1.00800000E+00  0.00000000E+00
  1.60000000E+01  1.00800000E+00  1.00800000E+00  0.00000000E+00  1.60000000E+01
  1.00800000E+00  1.00800000E+00  0.00000000E+00  1.60000000E+01  1.00800000E+00
  1.00800000E+00  0.00000000E+00  1.60000000E+01  1.00800000E+00  1.00800000E+00
  0.00000000E+00  1.60000000E+01  1.00800000E+00  1.00800000E+00  0.00000000E+00
  1.60000000E+01  1.00800000E+00  1.00800000E+00  0.00000000E+00  1.60000000E+01
  1.00800000E+00  1.00800000E+00  0.00000000E+00  1.60000000E+01  1.00800000E+00
  1.00800000E+00  0.00000000E+00  1.60000000E+01  1.00800000E+00  1.00800000E+00
  0.00000000E+00  1.60000000E+01  1.00800000E+00  1.00800000E+00  0.00000000E+00
  1.60000000E+01  1.00800000E+00  1.00800000E+00  0.00000000E+00  1.60000000E+01
  1.00800000E+00  1.00800000E+00  0.00000000E+00  1.60000000E+01  1.00800000E+00
  1.00800000E+00  0.00000000E+00  1.60000000E+01  1.00800000E+00  1.00800000E+00
  0.00000000E+00  1.60000000E+01  1.00800000E+00  1.00800000E+00  0.00000000E+00
  1.60000000E+01  1.00800000E+00  1.00800000E+00  0.00000000E+00  1.60000000E+01
  1.00800000E+00  1.00800000E+00  0.00000000E+00  1.60000000E+01  1.00800000E+00
  1.00800000E+00  0.00000000E+00  1.60000000E+01  1.00800000E+00  1.00800000E+00
  0.00000000E+00  1.60000000E+01  1.00800000E+00  1.00800000E+00  0.00000000E+00
  1.60000000E+01  1.00800000E+00  1.00800000E+00  0.00000000E+00  1.60000000E+01
  1.00800000E+00  1.00800000E+00  0.00000000E+00  1.60000000E+01  1.00800000E+00
  1.00800000E+00  0.00000000E+00  1.60000000E+01  1.00800000E+00  1.00800000E+00
  0.00000000E+00  1.60000000E+01  1.00800000E+00  1.00800000E+00  0.00000000E+00
  1.60000000E+01  1.00800000E+00  1.00800000E+00  0.00000000E+00  1.60000000E+01
  1.00800000E+00  1.00800000E+00  0.00000000E+00  1.60000000E+01  1.00800000E+00
  1.00800000E+00  0.00000000E+00  1.60000000E+01  1.00800000E+00  1.00800000E+00
  0.00000000E+00  1.60000000E+01  1.00800000E+00  1.00800000E+00  0.00000000E+00
  1.60000000E+01  1.00800000E+00  1.00800000E+00  0.00000000E+00  1.60000000E+01
  1.00800000E+00  1.00800000E+00  0.00000000E+00  1.60000000E+01  1.00800000E+00
  1.00800000E+00  0.00000000E+00  1.60000000E+01  1.00800000E+00  1.00800000E+00
  0.00000000E+00  1.60000000E+01  1.00800000E+00  1.00800000E+00  0.00000000E+00
  1.60000000E+01  1.00800000E+00  1.00800000E+00  0.00000000E+00  1.60000000E+01
  1.00800000E+00  1.00800000E+00  0.00000000E+00  1.60000000E+01  1.00800000E+00
  1.00800000E+00  0.00000000E+00  1.60000000E+01  1.00800000E+00  1.00800000E+00
  0.00000000E+00  1.60000000E+01  1.00800000E+00  1.00800000E+00  0.00000000E+00
  1.60000000E+01  1.00800000E+00  1.00800000E+00  0.00000000E+00  1.60000000E+01
  1.00800000E+00  1.00800000E+00  0.00000000E+00  1.60000000E+01  1.00800000E+00
  1.00800000E+00  0.00000000E+00  1.60000000E+01  1.00800000E+00  1.00800000E+00
  0.00000000E+00  1.60000000E+01  1.00800000E+00  1.00800000E+00  0.00000000E+00
  1.60000000E+01  1.00800000E+00  1.00800000E+00  0.00000000E+00  1.60000000E+01
  1.00800000E+00  1.00800000E+00  0.00000000E+00  1.60000000E+01  1.00800000E+00
  1.00800000E+00  0.00000000E+00  1.60000000E+01  1.00800000E+00  1.00800000E+00
  0.00000000E+00  1.60000000E+01  1.00800000E+00  1.00800000E+00  0.00000000E+00
  1.60000000E+01  1.00800000E+00  1.00800000E+00  0.00000000E+00  1.60000000E+01
  1.00800000E+00  1.00800000E+00  0.00000000E+00  1.60000000E+01  1.00800000E+00
  1.00800000E+00  0.00000000E+00  1.60000000E+01  1.00800000E+00  1.00800000E+00
  0.00000000E+00  1.60000000E+01  1.00800000E+00  1.00800000E+00  0.00000000E+00
  1.60000000E+01  1.00800000E+00  1.00800000E+00  0.00000000E+00  1.60000000E+01
  1.00800000E+00  1.00800000E+00  0.00000000E+00  1.60000000E+01  1.00800000E+00
  1.00800000E+00  0.00000000E+00  1.60000000E+01  1.00800000E+00  1.00800000E+00
  0.00000000E+00  1.60000000E+01  1.00800000E+00  1.00800000E+00  0.00000000E+00
  1.60000000E+01  1.00800000E+00  1.00800000E+00  0.00000000E+00  1.60000000E+01
  1.00800000E+00  1.00800000E+00  0.00000000E+00  1.60000000E+01  1.00800000E+00
  1.00800000E+00  0.00000000E+00  1.60000000E+01  1.00800000E+00  1.00800000E+00
  0.00000000E+00  1.60000000E+01  1.00800000E+00  1.00800000E+00  0.00000000E+00
  1.60000000E+01  1.00800000E+00  1.00800000E+00  0.00000000E+00  1.60000000E+01
  1.00800000E+00  1.00800000E+00  0.00000000E+00  1.60000000E+01  1.00800000E+00
  1.00800000E+00  0.00000000E+00  1.60000000E+01  1.00800000E+00  1.00800000E+00
  0.00000000E+00  1.60000000E+01  1.00800000E+00  1.00800000E+00  0.00000000E+00
  1.60000000E+01  1.00800000E+00  1.00800000E+00  0.00000000E+00  1.60000000E+01
  1.00800000E+00  1.00800000E+00  0.00000000E+00  1.60000000E+01  1.00800000E+00
  1.00800000E+00  0.00000000E+00  1.60000000E+01  1.00800000E+00  1.00800000E+00
  0.00000000E+00  1.60000000E+01  1.00800000E+00  1.00800000E+00  0.00000000E+00
  1.60000000E+01  1.00800000E+00  1.00800000E+00  0.00000000E+00  1.60000000E+01
  1.00800000E+00  1.00800000E+00  0.00000000E+00  1.60000000E+01  1.00800000E+00
  1.00800000E+00  0.00000000E+00  1.60000000E+01  1.00800000E+00  1.00800000E+00
  0.00000000E+00  1.60000000E+01  1.00800000E+00  1.00800000E+00  0.00000000E+00
  1.60000000E+01  1.00800000E+00  1.00800000E+00  0.00000000E+00  1.60000000E+01
  1.00800000E+00  1.00800000E+00  0.00000000E+00  1.60000000E+01  1.00800000E+00
  1.00800000E+00  0.00000000E+00  1.60000000E+01  1.00800000E+00  1.00800000E+00
  0.00000000E+00  1.60000000E+01  1.00800000E+00  1.00800000E+00  0.00000000E+00
  1.60000000E+01  1.00800000E+00  1.00800000E+00  0.00000000E+00  1.60000000E+01
  1.00800000E+00  1.00800000E+00  0.00000000E+00  1.60000000E+01  1.00800000E+00
  1.00800000E+00  0.00000000E+00  1.60000000E+01  1.00800000E+00  1.00800000E+00
  0.00000000E+00  1.60000000E+01  1.00800000E+00  1.00800000E+00  0.00000000E+00
  1.60000000E+01  1.00800000E+00  1.00800000E+00  0.00000000E+00  1.60000000E+01
  1.00800000E+00  1.00800000E+00  0.00000000E+00  1.60000000E+01  1.00800000E+00
  1.00800000E+00  0.00000000E+00  1.60000000E+01  1.00800000E+00  1.00800000E+00
  0.00000000E+00  1.60000000E+01  1.00800000E+00  1.00800000E+00  0.00000000E+00
  1.60000000E+01  1.00800000E+00  1.00800000E+00  0.00000000E+00  1.60000000E+01
  1.00800000E+00  1.00800000E+00  0.00000000E+00  1.60000000E+01  1.00800000E+00
  1.00800000E+00  0.00000000E+00  1.60000000E+01  1.00800000E+00  1.00800000E+00
  0.00000000E+00  1.60000000E+01  1.00800000E+00  1.00800000E+00  0.00000000E+00
  1.60000000E+01  1.00800000E+00  1.00800000E+00  0.00000000E+00  1.60000000E+01
  1.00800000E+00  1.00800000E+00  0.00000000E+00  1.60000000E+01  1.00800000E+00
  1.00800000E+00  0.00000000E+00  1.60000000E+01  1.00800000E+00  1.00800000E+00
  0.00000000E+00  1.60000000E+01  1.00800000E+00  1.00800000E+00  0.00000000E+00
  1.60000000E+01  1.00800000E+00  1.00800000E+00  0.00000000E+00  1.60000000E+01
  1.00800000E+00  1.00800000E+00  0.00000000E+00  1.60000000E+01  1.00800000E+00
  1.00800000E+00  0.00000000E+00  1.60000000E+01  1.00800000E+00  1.00800000E+00
  0.00000000E+00  1.60000000E+01  1.00800000E+00  1.00800000E+00  0.00000000E+00
  1.60000000E+01  1.00800000E+00  1.00800000E+00  0.00000000E+00  1.60000000E+01
  1.00800000E+00  1.00800000E+00  0.00000000E+00  1.60000000E+01  1.00800000E+00
  1.00800000E+00  0.00000000E+00  1.60000000E+01  1.00800000E+00  1.00800000E+00
  0.00000000E+00  1.60000000E+01  1.00800000E+00  1.00800000E+00  0.00000000E+00
  1.60000000E+01  1.00800000E+00  1.00800000E+00  0.00000000E+00  1.60000000E+01
  1.00800000E+00  1.00800000E+00  0.00000000E+00  1.60000000E+01  1.00800000E+00
  1.00800000E+00  0.00000000E+00  1.60000000E+01  1.00800000E+00  1.00800000E+00
  0.00000000E+00  1.60000000E+01  1.00800000E+00  1.00800000E+00  0.00000000E+00
  1.60000000E+01  1.00800000E+00  1.00800000E+00  0.00000000E+00  1.60000000E+01
  1.00800000E+00  1.00800000E+00  0.00000000E+00  1.60000000E+01  1.00800000E+00
  1.00800000E+00  0.00000000E+00  1.60000000E+01  1.00800000E+00  1.00800000E+00
  0.00000000E+00  1.60000000E+01  1.00800000E+00  1.00800000E+00  0.00000000E+00
  1.60000000E+01  1.00800000E+00  1.00800000E+00  0.00000000E+00  1.60000000E+01
  1.00800000E+00  1.00800000E+00  0.00000000E+00  1.60000000E+01  1.00800000E+00
  1.00800000E+00  0.00000000E+00  1.60000000E+01  1.00800000E+00  1.00800000E+00
  0.00000000E+00  1.60000000E+01  1.00800000E+00  1.00800000E+00  0.00000000E+00
  1.60000000E+01  1.00800000E+00  1.00800000E+00  0.00000000E+00  1.60000000E+01
  1.00800000E+00  1.00800000E+00  0.00000000E+00  1.60000000E+01  1.00800000E+00
  1.00800000E+00  0.00000000E+00  1.60000000E+01  1.00800000E+00  1.00800000E+00
  0.00000000E+00  1.60000000E+01  1.00800000E+00  1.00800000E+00  0.00000000E+00
  1.60000000E+01  1.00800000E+00  1.00800000E+00  0.00000000E+00  1.60000000E+01
  1.00800000E+00  1.00800000E+00  0.00000000E+00  1.60000000E+01  1.00800000E+00
  1.00800000E+00  0.00000000E+00  1.60000000E+01  1.00800000E+00  1.00800000E+00
  0.00000000E+00  1.60000000E+01  1.00800000E+00  1.00800000E+00  0.00000000E+00
  1.60000000E+01  1.00800000E+00  1.00800000E+00  0.00000000E+00  1.60000000E+01
  1.00800000E+00  1.00800000E+00  0.00000000E+00  1.60000000E+01  1.00800000E+00
  1.00800000E+00  0.00000000E+00  1.60000000E+01  1.00800000E+00  1.00800000E+00
  0.00000000E+00  1.60000000E+01  1.00800000E+00  1.00800000E+00  0.00000000E+00
  1.60000000E+01  1.00800000E+00  1.00800000E+00  0.00000000E+00  1.60000000E+01
  1.00800000E+00  1.00800000E+00  0.00000000E+00  1.60000000E+01  1.00800000E+00
  1.00800000E+00  0.00000000E+00  1.60000000E+01  1.00800000E+00  1.00800000E+00
  0.00000000E+00  1.60000000E+01  1.00800000E+00  1.00800000E+00  0.00000000E+00
  1.60000000E+01  1.00800000E+00  1.00800000E+00  0.00000000E+00  1.60000000E+01
  1.00800000E+00  1.00800000E+00  0.00000000E+00  1.60000000E+01  1.00800000E+00
  1.00800000E+00  0.00000000E+00  1.60000000E+01  1.00800000E+00  1.00800000E+00
  0.00000000E+00  1.60000000E+01  1.00800000E+00  1.00800000E+00  0.00000000E+00
  1.60000000E+01  1.00800000E+00  1.00800000E+00  0.00000000E+00  1.60000000E+01
  1.00800000E+00  1.00800000E+00  0.00000000E+00  1.60000000E+01  1.00800000E+00
  1.00800000E+00  0.00000000E+00  1.60000000E+01  1.00800000E+00  1.00800000E+00
  0.00000000E+00  1.60000000E+01  1.00800000E+00  1.00800000E+00  0.00000000E+00
  1.60000000E+01  1.00800000E+00  1.00800000E+00  0.00000000E+00  1.60000000E+01
  1.00800000E+00  1.00800000E+00  0.00000000E+00  1.60000000E+01  1.00800000E+00
  1.00800000E+00  0.00000000E+00  1.60000000E+01  1.00800000E+00  1.00800000E+00
  0.00000000E+00  1.60000000E+01  1.00800000E+00  1.00800000E+00  0.00000000E+00
  1.60000000E+01  1.00800000E+00  1.00800000E+00  0.00000000E+00  1.60000000E+01
  1.00800000E+00  1.00800000E+00  0.00000000E+00  1.60000000E+01  1.00800000E+00
  1.00800000E+00  0.00000000E+00  1.60000000E+01  1.00800000E+00  1.00800000E+00
  0.00000000E+00  1.60000000E+01  1.00800000E+00  1.00800000E+00  0.00000000E+00
  1.60000000E+01  1.00800000E+00  1.00800000E+00  0.00000000E+00  1.60000000E+01
  1.00800000E+00  1.00800000E+00  0.00000000E+00  1.60000000E+01  1.00800000E+00
  1.00800000E+00  0.00000000E+00  1.60000000E+01  1.00800000E+00  1.00800000E+00
  0.00000000E+00  1.60000000E+01  1.00800000E+00  1.00800000E+00  0.00000000E+00
  1.60000000E+01  1.00800000E+00  1.00800000E+00  0.00000000E+00  1.60000000E+01
  1.00800000E+00  1.00800000E+00  0.00000000E+00  1.60000000E+01  1.00800000E+00
  1.00800000E+00  0.00000000E+00  1.60000000E+01  1.00800000E+00  1.00800000E+00
  0.00000000E+00  1.60000000E+01  1.00800000E+00  1.00800000E+00  0.00000000E+00
  1.60000000E+01  1.00800000E+00  1.00800000E+00  0.00000000E+00  1.60000000E+01
  1.00800000E+00  1.00800000E+00  0.00000000E+00  1.60000000E+01  1.00800000E+00
  1.00800000E+00  0.00000000E+00  1.60000000E+01  1.00800000E+00  1.00800000E+00
  0.00000000E+00  1.60000000E+01  1.00800000E+00  1.00800000E+00  0.00000000E+00
  1.60000000E+01  1.00800000E+00  1.00800000E+00  0.00000000E+00  1.60000000E+01
  1.00800000E+00  1.00800000E+00  0.00000000E+00  1.60000000E+01  1.00800000E+00
  1.00800000E+00  0.00000000E+00  1.60000000E+01  1.00800000E+00  1.00800000E+00
  0.00000000E+00  1.60000000E+01  1.00800000E+00  1.00800000E+00  0.00000000E+00
  1.60000000E+01  1.00800000E+00  1.00800000E+00  0.00000000E+00  1.60000000E+01
  1.00800000E+00  1.00800000E+00  0.00000000E+00  1.60000000E+01  1.00800000E+00
  1.00800000E+00  0.00000000E+00  1.60000000E+01  1.00800000E+00  1.00800000E+00
  0.00000000E+00  1.60000000E+01  1.00800000E+00  1.00800000E+00  0.00000000E+00
  1.60000000E+01  1.00800000E+00  1.00800000E+00  0.00000000E+00  1.60000000E+01
  1.00800000E+00  1.00800000E+00  0.00000000E+00  1.60000000E+01  1.00800000E+00
  1.00800000E+00  0.00000000E+00  1.60000000E+01  1.00800000E+00  1.00800000E+00
  0.00000000E+00  1.60000000E+01  1.00800000E+00  1.00800000E+00  0.00000000E+00
  1.60000000E+01  1.00800000E+00  1.00800000E+00  0.00000000E+00  1.60000000E+01
  1.00800000E+00  1.00800000E+00  0.00000000E+00  1.60000000E+01  1.00800000E+00
  1.00800000E+00  0.00000000E+00  1.60000000E+01  1.00800000E+00  1.00800000E+00
  0.00000000E+00  1.60000000E+01  1.00800000E+00  1.00800000E+00  0.00000000E+00
  1.60000000E+01  1.00800000E+00  1.00800000E+00  0.00000000E+00  1.60000000E+01
  1.00800000E+00  1.00800000E+00  0.00000000E+00  1.60000000E+01  1.00800000E+00
  1.00800000E+00  0.00000000E+00  1.60000000E+01  1.00800000E+00  1.00800000E+00
  0.00000000E+00  1.60000000E+01  1.00800000E+00  1.00800000E+00  0.00000000E+00
  1.60000000E+01  1.00800000E+00  1.00800000E+00  0.00000000E+00  1.60000000E+01
  1.00800000E+00  1.00800000E+00  0.00000000E+00  1.60000000E+01  1.00800000E+00
  1.00800000E+00  0.00000000E+00  1.60000000E+01  1.00800000E+00  1.00800000E+00
  0.00000000E+00  1.60000000E+01  1.00800000E+00  1.00800000E+00  0.00000000E+00
  1.60000000E+01  1.00800000E+00  1.00800000E+00  0.00000000E+00  1.60000000E+01
  1.00800000E+00  1.00800000E+00  0.00000000E+00  1.60000000E+01  1.00800000E+00
  1.00800000E+00  0.00000000E+00  1.60000000E+01  1.00800000E+00  1.00800000E+00
  0.00000000E+00  1.60000000E+01  1.00800000E+00  1.00800000E+00  0.00000000E+00
  1.60000000E+01  1.00800000E+00  1.00800000E+00  0.00000000E+00  1.60000000E+01
  1.00800000E+00  1.00800000E+00  0.00000000E+00  1.60000000E+01  1.00800000E+00
  1.00800000E+00  0.00000000E+00  1.60000000E+01  1.00800000E+00  1.00800000E+00
  0.00000000E+00  1.60000000E+01  1.00800000E+00  1.00800000E+00  0.00000000E+00
  1.60000000E+01  1.00800000E+00  1.00800000E+00  0.00000000E+00  1.60000000E+01
  1.00800000E+00  1.00800000E+00  0.00000000E+00  1.60000000E+01  1.00800000E+00
  1.00800000E+00  0.00000000E+00  1.60000000E+01  1.00800000E+00  1.00800000E+00
  0.00000000E+00  1.60000000E+01  1.00800000E+00  1.00800000E+00  0.00000000E+00
  1.60000000E+01  1.00800000E+00  1.00800000E+00  0.00000000E+00  1.60000000E+01
  1.00800000E+00  1.00800000E+00  0.00000000E+00  1.60000000E+01  1.00800000E+00
  1.00800000E+00  0.00000000E+00  1.60000000E+01  1.00800000E+00  1.00800000E+00
  0.00000000E+00  1.60000000E+01  1.00800000E+00  1.00800000E+00  0.00000000E+00
  1.60000000E+01  1.00800000E+00  1.00800000E+00  0.00000000E+00  1.60000000E+01
  1.00800000E+00  1.00800000E+00  0.00000000E+00  1.60000000E+01  1.00800000E+00
  1.00800000E+00  0.00000000E+00  1.60000000E+01  1.00800000E+00  1.00800000E+00
  0.00000000E+00  1.60000000E+01  1.00800000E+00  1.00800000E+00  0.00000000E+00
  1.60000000E+01  1.00800000E+00  1.00800000E+00  0.00000000E+00  1.60000000E+01
  1.00800000E+00  1.00800000E+00  0.00000000E+00  1.60000000E+01  1.00800000E+00
  1.00800000E+00  0.00000000E+00  1.60000000E+01  1.00800000E+00  1.00800000E+00
  0.00000000E+00  1.60000000E+01  1.00800000E+00  1.00800000E+00  0.00000000E+00
  1.60000000E+01  1.00800000E+00  1.00800000E+00  0.00000000E+00  1.60000000E+01
  1.00800000E+00  1.00800000E+00  0.00000000E+00  1.60000000E+01  1.00800000E+00
  1.00800000E+00  0.00000000E+00  1.60000000E+01  1.00800000E+00  1.00800000E+00
  0.00000000E+00  1.60000000E+01  1.00800000E+00  1.00800000E+00  0.00000000E+00
  1.60000000E+01  1.00800000E+00  1.00800000E+00  0.00000000E+00  1.60000000E+01
  1.00800000E+00  1.00800000E+00  0.00000000E+00  1.60000000E+01  1.00800000E+00
  1.00800000E+00  0.00000000E+00  1.60000000E+01  1.00800000E+00  1.00800000E+00
  0.00000000E+00  1.60000000E+01  1.00800000E+00  1.00800000E+00  0.00000000E+00
  1.60000000E+01  1.00800000E+00  1.00800000E+00  0.00000000E+00  1.60000000E+01
  1.00800000E+00  1.00800000E+00  0.00000000E+00  1.60000000E+01  1.00800000E+00
  1.00800000E+00  0.00000000E+00  1.60000000E+01  1.00800000E+00  1.00800000E+00
  0.00000000E+00  1.60000000E+01  1.00800000E+00  1.00800000E+00  0.00000000E+00
  1.60000000E+01  1.00800000E+00  1.00800000E+00  0.00000000E+00  1.60000000E+01
  1.00800000E+00  1.00800000E+00  0.00000000E+00  1.60000000E+01  1.00800000E+00
  1.00800000E+00  0.00000000E+00  1.60000000E+01  1.00800000E+00  1.00800000E+00
  0.00000000E+00  1.60000000E+01  1.00800000E+00  1.00800000E+00  0.00000000E+00
  1.60000000E+01  1.00800000E+00  1.00800000E+00  0.00000000E+00  1.60000000E+01
  1.00800000E+00  1.00800000E+00  0.00000000E+00  1.60000000E+01  1.00800000E+00
  1.00800000E+00  0.00000000E+00  1.60000000E+01  1.00800000E+00  1.00800000E+00
  0.00000000E+00  1.60000000E+01  1.00800000E+00  1.00800000E+00  0.00000000E+00
  1.60000000E+01  1.00800000E+00  1.00800000E+00  0.00000000E+00  1.60000000E+01
  1.00800000E+00  1.00800000E+00  0.00000000E+00  1.60000000E+01  1.00800000E+00
  1.00800000E+00  0.00000000E+00  1.60000000E+01  1.00800000E+00  1.00800000E+00
  0.00000000E+00  1.60000000E+01  1.00800000E+00  1.00800000E+00  0.00000000E+00
  1.60000000E+01  1.00800000E+00  1.00800000E+00  0.00000000E+00  1.60000000E+01
  1.00800000E+00  1.00800000E+00  0.00000000E+00  1.60000000E+01  1.00800000E+00
  1.00800000E+00  0.00000000E+00  1.60000000E+01  1.00800000E+00  1.00800000E+00
  0.00000000E+00  1.60000000E+01  1.00800000E+00  1.00800000E+00  0.00000000E+00
  1.60000000E+01  1.00800000E+00  1.00800000E+00  0.00000000E+00  1.60000000E+01
  1.00800000E+00  1.00800000E+00  0.00000000E+00  1.60000000E+01  1.00800000E+00
  1.00800000E+00  0.00000000E+00  1.60000000E+01  1.00800000E+00  1.00800000E+00
  0.00000000E+00  1.60000000E+01  1.00800000E+00  1.00800000E+00  0.00000000E+00
  1.60000000E+01  1.00800000E+00  1.00800000E+00  0.00000000E+00  1.60000000E+01
  1.00800000E+00  1.00800000E+00  0.00000000E+00  1.60000000E+01  1.00800000E+00
  1.00800000E+00  0.00000000E+00  1.60000000E+01  1.00800000E+00  1.00800000E+00
  0.00000000E+00  1.60000000E+01  1.00800000E+00  1.00800000E+00  0.00000000E+00
  1.60000000E+01  1.00800000E+00  1.00800000E+00  0.00000000E+00  1.60000000E+01
  1.00800000E+00  1.00800000E+00  0.00000000E+00  1.60000000E+01  1.00800000E+00
  1.00800000E+00  0.00000000E+00  1.60000000E+01  1.00800000E+00  1.00800000E+00
  0.00000000E+00  1.60000000E+01  1.00800000E+00  1.00800000E+00  0.00000000E+00
  1.60000000E+01  1.00800000E+00  1.00800000E+00  0.00000000E+00  1.60000000E+01
  1.00800000E+00  1.00800000E+00  0.00000000E+00  1.60000000E+01  1.00800000E+00
  1.00800000E+00  0.00000000E+00  1.60000000E+01  1.00800000E+00  1.00800000E+00
  0.00000000E+00  1.60000000E+01  1.00800000E+00  1.00800000E+00  0.00000000E+00
  1.60000000E+01  1.00800000E+00  1.00800000E+00  0.00000000E+00  1.60000000E+01
  1.00800000E+00  1.00800000E+00  0.00000000E+00  1.60000000E+01  1.00800000E+00
  1.00800000E+00  0.00000000E+00  1.60000000E+01  1.00800000E+00  1.00800000E+00
  0.00000000E+00  1.60000000E+01  1.00800000E+00  1.00800000E+00  0.00000000E+00
  1.60000000E+01  1.00800000E+00  1.00800000E+00  0.00000000E+00  1.60000000E+01
  1.00800000E+00  1.00800000E+00  0.00000000E+00  1.60000000E+01  1.00800000E+00
  1.00800000E+00  0.00000000E+00  1.60000000E+01  1.00800000E+00  1.00800000E+00
  0.00000000E+00  1.60000000E+01  1.00800000E+00  1.00800000E+00  0.00000000E+00
  1.60000000E+01  1.00800000E+00  1.00800000E+00  0.00000000E+00  1.60000000E+01
  1.00800000E+00  1.00800000E+00  0.00000000E+00  1.60000000E+01  1.00800000E+00
  1.00800000E+00  0.00000000E+00  1.60000000E+01  1.00800000E+00  1.00800000E+00
  0.00000000E+00  1.60000000E+01  1.00800000E+00  1.00800000E+00  0.00000000E+00
  1.60000000E+01  1.00800000E+00  1.00800000E+00  0.00000000E+00  1.60000000E+01
  1.00800000E+00  1.00800000E+00  0.00000000E+00  1.60000000E+01  1.00800000E+00
  1.00800000E+00  0.00000000E+00  1.60000000E+01  1.00800000E+00  1.00800000E+00
  0.00000000E+00  1.60000000E+01  1.00800000E+00  1.00800000E+00  0.00000000E+00
  1.60000000E+01  1.00800000E+00  1.00800000E+00  0.00000000E+00  1.60000000E+01
  1.00800000E+00  1.00800000E+00  0.00000000E+00  1.60000000E+01  1.00800000E+00
  1.00800000E+00  0.00000000E+00  1.60000000E+01  1.00800000E+00  1.00800000E+00
  0.00000000E+00  1.60000000E+01  1.00800000E+00  1.00800000E+00  0.00000000E+00
  1.60000000E+01  1.00800000E+00  1.00800000E+00  0.00000000E+00  1.60000000E+01
  1.00800000E+00  1.00800000E+00  0.00000000E+00  1.60000000E+01  1.00800000E+00
  1.00800000E+00  0.00000000E+00  1.60000000E+01  1.00800000E+00  1.00800000E+00
  0.00000000E+00  1.60000000E+01  1.00800000E+00  1.00800000E+00  0.00000000E+00
  1.60000000E+01  1.00800000E+00  1.00800000E+00  0.00000000E+00  1.60000000E+01
  1.00800000E+00  1.00800000E+00  0.00000000E+00  1.60000000E+01  1.00800000E+00
  1.00800000E+00  0.00000000E+00  1.60000000E+01  1.00800000E+00  1.00800000E+00
  0.00000000E+00  1.60000000E+01  1.00800000E+00  1.00800000E+00  0.00000000E+00
  1.60000000E+01  1.00800000E+00  1.00800000E+00  0.00000000E+00  1.60000000E+01
  1.00800000E+00  1.00800000E+00  0.00000000E+00  1.60000000E+01  1.00800000E+00
  1.00800000E+00  0.00000000E+00  1.60000000E+01  1.00800000E+00  1.00800000E+00
  0.00000000E+00  1.60000000E+01  1.00800000E+00  1.00800000E+00  0.00000000E+00
  1.60000000E+01  1.00800000E+00  1.00800000E+00  0.00000000E+00  1.60000000E+01
  1.00800000E+00  1.00800000E+00  0.00000000E+00  1.60000000E+01  1.00800000E+00
  1.00800000E+00  0.00000000E+00  1.60000000E+01  1.00800000E+00  1.00800000E+00
  0.00000000E+00  1.60000000E+01  1.00800000E+00  1.00800000E+00  0.00000000E+00
  1.60000000E+01  1.00800000E+00  1.00800000E+00  0.00000000E+00  1.60000000E+01
  1.00800000E+00  1.00800000E+00  0.00000000E+00  1.60000000E+01  1.00800000E+00
  1.00800000E+00  0.00000000E+00  1.60000000E+01  1.00800000E+00  1.00800000E+00
  0.00000000E+00  1.60000000E+01  1.00800000E+00  1.00800000E+00  0.00000000E+00
  1.60000000E+01  1.00800000E+00  1.00800000E+00  0.00000000E+00  1.60000000E+01
  1.00800000E+00  1.00800000E+00  0.00000000E+00  1.60000000E+01  1.00800000E+00
  1.00800000E+00  0.00000000E+00  1.60000000E+01  1.00800000E+00  1.00800000E+00
  0.00000000E+00  1.60000000E+01  1.00800000E+00  1.00800000E+00  0.00000000E+00
  1.60000000E+01  1.00800000E+00  1.00800000E+00  0.00000000E+00  1.60000000E+01
  1.00800000E+00  1.00800000E+00  0.00000000E+00  1.60000000E+01  1.00800000E+00
  1.00800000E+00  0.00000000E+00  1.60000000E+01  1.00800000E+00  1.00800000E+00
  0.00000000E+00  1.60000000E+01  1.00800000E+00  1.00800000E+00  0.00000000E+00
  1.60000000E+01  1.00800000E+00  1.00800000E+00  0.00000000E+00  1.60000000E+01
  1.00800000E+00  1.00800000E+00  0.00000000E+00  1.60000000E+01  1.00800000E+00
  1.00800000E+00  0.00000000E+00  1.60000000E+01  1.00800000E+00  1.00800000E+00
  0.00000000E+00  1.60000000E+01  1.00800000E+00  1.00800000E+00  0.00000000E+00
  1.60000000E+01  1.00800000E+00  1.00800000E+00  0.00000000E+00  1.60000000E+01
  1.00800000E+00  1.00800000E+00  0.00000000E+00  1.60000000E+01  1.00800000E+00
  1.00800000E+00  0.00000000E+00  1.60000000E+01  1.00800000E+00  1.00800000E+00
  0.00000000E+00  1.60000000E+01  1.00800000E+00  1.00800000E+00  0.00000000E+00
  1.60000000E+01  1.00800000E+00  1.00800000E+00  0.00000000E+00  1.60000000E+01
  1.00800000E+00  1.00800000E+00  0.00000000E+00  1.60000000E+01  1.00800000E+00
  1.00800000E+00  0.00000000E+00  1.60000000E+01  1.00800000E+00  1.00800000E+00
  0.00000000E+00  1.60000000E+01  1.00800000E+00  1.00800000E+00  0.00000000E+00
  1.60000000E+01  1.00800000E+00  1.00800000E+00  0.00000000E+00  1.60000000E+01
  1.00800000E+00  1.00800000E+00  0.00000000E+00  1.60000000E+01  1.00800000E+00
  1.00800000E+00  0.00000000E+00  1.60000000E+01  1.00800000E+00  1.00800000E+00
  0.00000000E+00  1.60000000E+01  1.00800000E+00  1.00800000E+00  0.00000000E+00
  1.60000000E+01  1.00800000E+00  1.00800000E+00  0.00000000E+00  1.60000000E+01
  1.00800000E+00  1.00800000E+00  0.00000000E+00  1.60000000E+01  1.00800000E+00
  1.00800000E+00  0.00000000E+00  1.60000000E+01  1.00800000E+00  1.00800000E+00
  0.00000000E+00  1.60000000E+01  1.00800000E+00  1.00800000E+00  0.00000000E+00
  1.60000000E+01  1.00800000E+00  1.00800000E+00  0.00000000E+00  1.60000000E+01
  1.00800000E+00  1.00800000E+00  0.00000000E+00  1.60000000E+01  1.00800000E+00
  1.00800000E+00  0.00000000E+00  1.60000000E+01  1.00800000E+00  1.00800000E+00
  0.00000000E+00  1.60000000E+01  1.00800000E+00  1.00800000E+00  0.00000000E+00
  1.60000000E+01  1.00800000E+00  1.00800000E+00  0.00000000E+00  1.60000000E+01
  1.00800000E+00  1.00800000E+00  0.00000000E+00  1.60000000E+01  1.00800000E+00
  1.00800000E+00  0.00000000E+00  1.60000000E+01  1.00800000E+00  1.00800000E+00
  0.00000000E+00  1.60000000E+01  1.00800000E+00  1.00800000E+00  0.00000000E+00
  1.60000000E+01  1.00800000E+00  1.00800000E+00  0.00000000E+00  1.60000000E+01
  1.00800000E+00  1.00800000E+00  0.00000000E+00  1.60000000E+01  1.00800000E+00
  1.00800000E+00  0.00000000E+00  1.60000000E+01  1.00800000E+00  1.00800000E+00
  0.00000000E+00  1.60000000E+01  1.00800000E+00  1.00800000E+00  0.00000000E+00
  1.60000000E+01  1.00800000E+00  1.00800000E+00  0.00000000E+00  1.60000000E+01
  1.00800000E+00  1.00800000E+00  0.00000000E+00  1.60000000E+01  1.00800000E+00
  1.00800000E+00  0.00000000E+00  1.60000000E+01  1.00800000E+00  1.00800000E+00
  0.00000000E+00  1.60000000E+01  1.00800000E+00  1.00800000E+00  0.00000000E+00
  1.60000000E+01  1.00800000E+00  1.00800000E+00  0.00000000E+00  1.60000000E+01
  1.00800000E+00  1.00800000E+00  0.00000000E+00  1.60000000E+01  1.00800000E+00
  1.00800000E+00  0.00000000E+00  1.60000000E+01  1.00800000E+00  1.00800000E+00
  0.00000000E+00  1.60000000E+01  1.00800000E+00  1.00800000E+00  0.00000000E+00
  1.60000000E+01  1.00800000E+00  1.00800000E+00  0.00000000E+00  1.60000000E+01
  1.00800000E+00  1.00800000E+00  0.00000000E+00  1.60000000E+01  1.00800000E+00
  1.00800000E+00  0.00000000E+00  1.60000000E+01  1.00800000E+00  1.00800000E+00
  0.00000000E+00  1.60000000E+01  1.00800000E+00  1.00800000E+00  0.00000000E+00
  1.60000000E+01  1.00800000E+00  1.00800000E+00  0.00000000E+00  1.60000000E+01
  1.00800000E+00  1.00800000E+00  0.00000000E+00  1.60000000E+01  1.00800000E+00
  1.00800000E+00  0.00000000E+00  1.60000000E+01  1.00800000E+00  1.00800000E+00
  0.00000000E+00  1.60000000E+01  1.00800000E+00  1.00800000E+00  0.00000000E+00
  1.60000000E+01  1.00800000E+00  1.00800000E+00  0.00000000E+00  1.60000000E+01
  1.00800000E+00  1.00800000E+00  0.00000000E+00  1.60000000E+01  1.00800000E+00
  1.00800000E+00  0.00000000E+00  1.60000000E+01  1.00800000E+00  1.00800000E+00
  0.00000000E+00  1.60000000E+01  1.00800000E+00  1.00800000E+00  0.00000000E+00
  1.60000000E+01  1.00800000E+00  1.00800000E+00  0.00000000E+00  1.60000000E+01
  1.00800000E+00  1.00800000E+00  0.00000000E+00  1.60000000E+01  1.00800000E+00
  1.00800000E+00  0.00000000E+00  1.60000000E+01  1.00800000E+00  1.00800000E+00
  0.00000000E+00  1.60000000E+01  1.00800000E+00  1.00800000E+00  0.00000000E+00
  1.60000000E+01  1.00800000E+00  1.00800000E+00  0.00000000E+00  1.60000000E+01
  1.00800000E+00  1.00800000E+00  0.00000000E+00  1.60000000E+01  1.00800000E+00
  1.00800000E+00  0.00000000E+00  1.60000000E+01  1.00800000E+00  1.00800000E+00
  0.00000000E+00  1.60000000E+01  1.00800000E+00  1.00800000E+00  0.00000000E+00
  1.60000000E+01  1.00800000E+00  1.00800000E+00  0.00000000E+00  1.60000000E+01
  1.00800000E+00  1.00800000E+00  0.00000000E+00  1.60000000E+01  1.00800000E+00
  1.00800000E+00  0.00000000E+00  1.60000000E+01  1.00800000E+00  1.00800000E+00
  0.00000000E+00  1.60000000E+01  1.00800000E+00  1.00800000E+00  0.00000000E+00
  1.60000000E+01  1.00800000E+00  1.00800000E+00  0.00000000E+00  1.60000000E+01
  1.00800000E+00  1.00800000E+00  0.00000000E+00  1.60000000E+01  1.00800000E+00
  1.00800000E+00  0.00000000E+00  1.60000000E+01  1.00800000E+00  1.00800000E+00
  0.00000000E+00  1.60000000E+01  1.00800000E+00  1.00800000E+00  0.00000000E+00
  1.60000000E+01  1.00800000E+00  1.00800000E+00  0.00000000E+00  1.60000000E+01
  1.00800000E+00  1.00800000E+00  0.00000000E+00  1.60000000E+01  1.00800000E+00
  1.00800000E+00  0.00000000E+00  1.60000000E+01  1.00800000E+00  1.00800000E+00
  0.00000000E+00  1.60000000E+01  1.00800000E+00  1.00800000E+00  0.00000000E+00
  1.60000000E+01  1.00800000E+00  1.00800000E+00  0.00000000E+00  1.60000000E+01
  1.00800000E+00  1.00800000E+00  0.00000000E+00  1.60000000E+01  1.00800000E+00
  1.00800000E+00  0.00000000E+00  1.60000000E+01  1.00800000E+00  1.00800000E+00
  0.00000000E+00  1.60000000E+01  1.00800000E+00  1.00800000E+00  0.00000000E+00
  1.60000000E+01  1.00800000E+00  1.00800000E+00  0.00000000E+00  1.60000000E+01
  1.00800000E+00  1.00800000E+00  0.00000000E+00  1.60000000E+01  1.00800000E+00
  1.00800000E+00  0.00000000E+00  1.60000000E+01  1.00800000E+00  1.00800000E+00
  0.00000000E+00  1.60000000E+01  1.00800000E+00  1.00800000E+00  0.00000000E+00
  1.60000000E+01  1.00800000E+00  1.00800000E+00  0.00000000E+00  1.60000000E+01
  1.00800000E+00  1.00800000E+00  0.00000000E+00  1.60000000E+01  1.00800000E+00
  1.00800000E+00  0.00000000E+00  1.60000000E+01  1.00800000E+00  1.00800000E+00
  0.00000000E+00  1.60000000E+01  1.00800000E+00  1.00800000E+00  0.00000000E+00
  1.60000000E+01  1.00800000E+00  1.00800000E+00  0.00000000E+00  1.60000000E+01
  1.00800000E+00  1.00800000E+00  0.00000000E+00  1.60000000E+01  1.00800000E+00
  1.00800000E+00  0.00000000E+00  1.60000000E+01  1.00800000E+00  1.00800000E+00
  0.00000000E+00  1.60000000E+01  1.00800000E+00  1.00800000E+00  0.00000000E+00
  1.60000000E+01  1.00800000E+00  1.00800000E+00  0.00000000E+00  1.60000000E+01
  1.00800000E+00  1.00800000E+00  0.00000000E+00  1.60000000E+01  1.00800000E+00
  1.00800000E+00  0.00000000E+00  1.60000000E+01  1.00800000E+00  1.00800000E+00
  0.00000000E+00  1.60000000E+01  1.00800000E+00  1.00800000E+00  0.00000000E+00
  1.60000000E+01  1.00800000E+00  1.00800000E+00  0.00000000E+00  1.60000000E+01
  1.00800000E+00  1.00800000E+00  0.00000000E+00  1.60000000E+01  1.00800000E+00
  1.00800000E+00  0.00000000E+00  1.60000000E+01  1.00800000E+00  1.00800000E+00
  0.00000000E+00  1.60000000E+01  1.00800000E+00  1.00800000E+00  0.00000000E+00
  1.60000000E+01  1.00800000E+00  1.00800000E+00  0.00000000E+00  1.60000000E+01
  1.00800000E+00  1.00800000E+00  0.00000000E+00  1.60000000E+01  1.00800000E+00
  1.00800000E+00  0.00000000E+00  1.60000000E+01  1.00800000E+00  1.00800000E+00
  0.00000000E+00  1.60000000E+01  1.00800000E+00  1.00800000E+00  0.00000000E+00
  1.60000000E+01  1.00800000E+00  1.00800000E+00  0.00000000E+00  1.60000000E+01
  1.00800000E+00  1.00800000E+00  0.00000000E+00  1.60000000E+01  1.00800000E+00
  1.00800000E+00  0.00000000E+00  1.60000000E+01  1.00800000E+00  1.00800000E+00
  0.00000000E+00  1.60000000E+01  1.00800000E+00  1.00800000E+00  0.00000000E+00
  1.60000000E+01  1.00800000E+00  1.00800000E+00  0.00000000E+00  1.60000000E+01
  1.00800000E+00  1.00800000E+00  0.00000000E+00  1.60000000E+01  1.00800000E+00
  1.00800000E+00  0.00000000E+00  1.60000000E+01  1.00800000E+00  1.00800000E+00
  0.00000000E+00  1.60000000E+01  1.00800000E+00  1.00800000E+00  0.00000000E+00
  1.60000000E+01  1.00800000E+00  1.00800000E+00  0.00000000E+00  1.60000000E+01
  1.00800000E+00  1.00800000E+00  0.00000000E+00  1.60000000E+01  1.00800000E+00
  1.00800000E+00  0.00000000E+00  1.60000000E+01  1.00800000E+00  1.00800000E+00
  0.00000000E+00  1.60000000E+01  1.00800000E+00  1.00800000E+00  0.00000000E+00
  1.60000000E+01  1.00800000E+00  1.00800000E+00  0.00000000E+00  1.60000000E+01
  1.00800000E+00  1.00800000E+00  0.00000000E+00  1.60000000E+01  1.00800000E+00
  1.00800000E+00  0.00000000E+00  1.60000000E+01  1.00800000E+00  1.00800000E+00
  0.00000000E+00  1.60000000E+01  1.00800000E+00  1.00800000E+00  0.00000000E+00
  1.60000000E+01  1.00800000E+00  1.00800000E+00  0.00000000E+00  1.60000000E+01
  1.00800000E+00  1.00800000E+00  0.00000000E+00  1.60000000E+01  1.00800000E+00
  1.00800000E+00  0.00000000E+00  1.60000000E+01  1.00800000E+00  1.00800000E+00
  0.00000000E+00  1.60000000E+01  1.00800000E+00  1.00800000E+00  0.00000000E+00
  1.60000000E+01  1.00800000E+00  1.00800000E+00  0.00000000E+00  1.60000000E+01
  1.00800000E+00  1.00800000E+00  0.00000000E+00  1.60000000E+01  1.00800000E+00
  1.00800000E+00  0.00000000E+00  1.60000000E+01  1.00800000E+00  1.00800000E+00
  0.00000000E+00  1.60000000E+01  1.00800000E+00  1.00800000E+00  0.00000000E+00
  1.60000000E+01  1.00800000E+00  1.00800000E+00  0.00000000E+00  1.60000000E+01
  1.00800000E+00  1.00800000E+00  0.00000000E+00  1.60000000E+01  1.00800000E+00
  1.00800000E+00  0.00000000E+00  1.60000000E+01  1.00800000E+00  1.00800000E+00
  0.00000000E+00  1.60000000E+01  1.00800000E+00  1.00800000E+00  0.00000000E+00
  1.60000000E+01  1.00800000E+00  1.00800000E+00  0.00000000E+00  1.60000000E+01
  1.00800000E+00  1.00800000E+00  0.00000000E+00  1.60000000E+01  1.00800000E+00
  1.00800000E+00  0.00000000E+00  1.60000000E+01  1.00800000E+00  1.00800000E+00
  0.00000000E+00  1.60000000E+01  1.00800000E+00  1.00800000E+00  0.00000000E+00
  1.60000000E+01  1.00800000E+00  1.00800000E+00  0.00000000E+00  1.60000000E+01
  1.00800000E+00  1.00800000E+00  0.00000000E+00  1.60000000E+01  1.00800000E+00
  1.00800000E+00  0.00000000E+00  1.60000000E+01  1.00800000E+00  1.00800000E+00
  0.00000000E+00  1.60000000E+01  1.00800000E+00  1.00800000E+00  0.00000000E+00
  1.60000000E+01  1.00800000E+00  1.00800000E+00  0.00000000E+00  1.60000000E+01
  1.00800000E+00  1.00800000E+00  0.00000000E+00  1.60000000E+01  1.00800000E+00
  1.00800000E+00  0.00000000E+00  1.60000000E+01  1.00800000E+00  1.00800000E+00
  0.00000000E+00  1.60000000E+01  1.00800000E+00  1.00800000E+00  0.00000000E+00
  1.60000000E+01  1.00800000E+00  1.00800000E+00  0.00000000E+00  1.60000000E+01
  1.00800000E+00  1.00800000E+00  0.00000000E+00  1.60000000E+01  1.00800000E+00
  1.00800000E+00  0.00000000E+00  1.60000000E+01  1.00800000E+00  1.00800000E+00
  0.00000000E+00  1.60000000E+01  1.00800000E+00  1.00800000E+00  0.00000000E+00
  1.60000000E+01  1.00800000E+00  1.00800000E+00  0.00000000E+00  1.60000000E+01
  1.00800000E+00  1.00800000E+00  0.00000000E+00  1.60000000E+01  1.00800000E+00
  1.00800000E+00  0.00000000E+00  1.60000000E+01  1.00800000E+00  1.00800000E+00
  0.00000000E+00  1.60000000E+01  1.00800000E+00  1.00800000E+00  0.00000000E+00
  1.60000000E+01  1.00800000E+00  1.00800000E+00  0.00000000E+00  1.60000000E+01
  1.00800000E+00  1.00800000E+00  0.00000000E+00  1.60000000E+01  1.00800000E+00
  1.00800000E+00  0.00000000E+00  1.60000000E+01  1.00800000E+00  1.00800000E+00
  0.00000000E+00  1.60000000E+01  1.00800000E+00  1.00800000E+00  0.00000000E+00
  1.60000000E+01  1.00800000E+00  1.00800000E+00  0.00000000E+00  1.60000000E+01
  1.00800000E+00  1.00800000E+00  0.00000000E+00  1.60000000E+01  1.00800000E+00
  1.00800000E+00  0.00000000E+00  1.60000000E+01  1.00800000E+00  1.00800000E+00
  0.00000000E+00  1.60000000E+01  1.00800000E+00  1.00800000E+00  0.00000000E+00
  1.60000000E+01  1.00800000E+00  1.00800000E+00  0.00000000E+00  1.60000000E+01
  1.00800000E+00  1.00800000E+00  0.00000000E+00  1.60000000E+01  1.00800000E+00
  1.00800000E+00  0.00000000E+00  1.60000000E+01  1.00800000E+00  1.00800000E+00
  0.00000000E+00  1.60000000E+01  1.00800000E+00  1.00800000E+00  0.00000000E+00
  1.60000000E+01  1.00800000E+00  1.00800000E+00  0.00000000E+00  1.60000000E+01
  1.00800000E+00  1.00800000E+00  0.00000000E+00  1.60000000E+01  1.00800000E+00
  1.00800000E+00  0.00000000E+00  1.60000000E+01  1.00800000E+00  1.00800000E+00
  0.00000000E+00  1.60000000E+01  1.00800000E+00  1.00800000E+00  0.00000000E+00
  1.60000000E+01  1.00800000E+00  1.00800000E+00  0.00000000E+00  1.60000000E+01
  1.00800000E+00  1.00800000E+00  0.00000000E+00  1.60000000E+01  1.00800000E+00
  1.00800000E+00  0.00000000E+00  1.60000000E+01  1.00800000E+00  1.00800000E+00
  0.00000000E+00  1.60000000E+01  1.00800000E+00  1.00800000E+00  0.00000000E+00
  1.60000000E+01  1.00800000E+00  1.00800000E+00  0.00000000E+00  1.60000000E+01
  1.00800000E+00  1.00800000E+00  0.00000000E+00  1.60000000E+01  1.00800000E+00
  1.00800000E+00  0.00000000E+00  1.60000000E+01  1.00800000E+00  1.00800000E+00
  0.00000000E+00  1.60000000E+01  1.00800000E+00  1.00800000E+00  0.00000000E+00
  1.60000000E+01  1.00800000E+00  1.00800000E+00  0.00000000E+00  1.60000000E+01
  1.00800000E+00  1.00800000E+00  0.00000000E+00  1.60000000E+01  1.00800000E+00
  1.00800000E+00  0.00000000E+00  1.60000000E+01  1.00800000E+00  1.00800000E+00
  0.00000000E+00  1.60000000E+01  1.00800000E+00  1.00800000E+00  0.00000000E+00
  1.60000000E+01  1.00800000E+00  1.00800000E+00  0.00000000E+00  1.60000000E+01
  1.00800000E+00  1.00800000E+00  0.00000000E+00  1.60000000E+01  1.00800000E+00
  1.00800000E+00  0.00000000E+00  1.60000000E+01  1.00800000E+00  1.00800000E+00
  0.00000000E+00  1.60000000E+01  1.00800000E+00  1.00800000E+00  0.00000000E+00
  1.60000000E+01  1.00800000E+00  1.00800000E+00  0.00000000E+00  1.60000000E+01
  1.00800000E+00  1.00800000E+00  0.00000000E+00  1.60000000E+01  1.00800000E+00
  1.00800000E+00  0.00000000E+00  1.60000000E+01  1.00800000E+00  1.00800000E+00
  0.00000000E+00  1.60000000E+01  1.00800000E+00  1.00800000E+00  0.00000000E+00
  1.60000000E+01  1.00800000E+00  1.00800000E+00  0.00000000E+00  1.60000000E+01
  1.00800000E+00  1.00800000E+00  0.00000000E+00  1.60000000E+01  1.00800000E+00
  1.00800000E+00  0.00000000E+00  1.60000000E+01  1.00800000E+00  1.00800000E+00
  0.00000000E+00  1.60000000E+01  1.00800000E+00  1.00800000E+00  0.00000000E+00
  1.60000000E+01  1.00800000E+00  1.00800000E+00  0.00000000E+00  1.60000000E+01
  1.00800000E+00  1.00800000E+00  0.00000000E+00  1.60000000E+01  1.00800000E+00
  1.00800000E+00  0.00000000E+00  1.60000000E+01  1.00800000E+00  1.00800000E+00
  0.00000000E+00  1.60000000E+01  1.00800000E+00  1.00800000E+00  0.00000000E+00
  1.60000000E+01  1.00800000E+00  1.00800000E+00  0.00000000E+00  1.60000000E+01
  1.00800000E+00  1.00800000E+00  0.00000000E+00  1.60000000E+01  1.00800000E+00
  1.00800000E+00  0.00000000E+00  1.60000000E+01  1.00800000E+00  1.00800000E+00
  0.00000000E+00  1.60000000E+01  1.00800000E+00  1.00800000E+00  0.00000000E+00
  1.60000000E+01  1.00800000E+00  1.00800000E+00  0.00000000E+00  1.60000000E+01
  1.00800000E+00  1.00800000E+00  0.00000000E+00  1.60000000E+01  1.00800000E+00
  1.00800000E+00  0.00000000E+00  1.60000000E+01  1.00800000E+00  1.00800000E+00
  0.00000000E+00  1.60000000E+01  1.00800000E+00  1.00800000E+00  0.00000000E+00
  1.60000000E+01  1.00800000E+00  1.00800000E+00  0.00000000E+00  1.60000000E+01
  1.00800000E+00  1.00800000E+00  0.00000000E+00  1.60000000E+01  1.00800000E+00
  1.00800000E+00  0.00000000E+00  1.60000000E+01  1.00800000E+00  1.00800000E+00
  0.00000000E+00  1.60000000E+01  1.00800000E+00  1.00800000E+00  0.00000000E+00
  1.60000000E+01  1.00800000E+00  1.00800000E+00  0.00000000E+00  1.60000000E+01
  1.00800000E+00  1.00800000E+00  0.00000000E+00  1.60000000E+01  1.00800000E+00
  1.00800000E+00  0.00000000E+00  1.60000000E+01  1.00800000E+00  1.00800000E+00
  0.00000000E+00  1.60000000E+01  1.00800000E+00  1.00800000E+00  0.00000000E+00
  1.60000000E+01  1.00800000E+00  1.00800000E+00  0.00000000E+00  1.60000000E+01
  1.00800000E+00  1.00800000E+00  0.00000000E+00  1.60000000E+01  1.00800000E+00
  1.00800000E+00  0.00000000E+00  1.60000000E+01  1.00800000E+00  1.00800000E+00
  0.00000000E+00  1.60000000E+01  1.00800000E+00  1.00800000E+00  0.00000000E+00
  1.60000000E+01  1.00800000E+00  1.00800000E+00  0.00000000E+00  1.60000000E+01
  1.00800000E+00  1.00800000E+00  0.00000000E+00  1.60000000E+01  1.00800000E+00
  1.00800000E+00  0.00000000E+00  1.60000000E+01  1.00800000E+00  1.00800000E+00
  0.00000000E+00  1.60000000E+01  1.00800000E+00  1.00800000E+00  0.00000000E+00
  1.60000000E+01  1.00800000E+00  1.00800000E+00  0.00000000E+00  1.60000000E+01
  1.00800000E+00  1.00800000E+00  0.00000000E+00  1.60000000E+01  1.00800000E+00
  1.00800000E+00  0.00000000E+00  1.60000000E+01  1.00800000E+00  1.00800000E+00
  0.00000000E+00  1.60000000E+01  1.00800000E+00  1.00800000E+00  0.00000000E+00
  1.60000000E+01  1.00800000E+00  1.00800000E+00  0.00000000E+00  1.60000000E+01
  1.00800000E+00  1.00800000E+00  0.00000000E+00  1.60000000E+01  1.00800000E+00
  1.00800000E+00  0.00000000E+00  1.60000000E+01  1.00800000E+00  1.00800000E+00
  0.00000000E+00  1.60000000E+01  1.00800000E+00  1.00800000E+00  0.00000000E+00
  1.60000000E+01  1.00800000E+00  1.00800000E+00  0.00000000E+00  1.60000000E+01
  1.00800000E+00  1.00800000E+00  0.00000000E+00  1.60000000E+01  1.00800000E+00
  1.00800000E+00  0.00000000E+00  1.60000000E+01  1.00800000E+00  1.00800000E+00
  0.00000000E+00  1.60000000E+01  1.00800000E+00  1.00800000E+00  0.00000000E+00
  1.60000000E+01  1.00800000E+00  1.00800000E+00  0.00000000E+00  1.60000000E+01
  1.00800000E+00  1.00800000E+00  0.00000000E+00  1.60000000E+01  1.00800000E+00
  1.00800000E+00  0.00000000E+00  1.60000000E+01  1.00800000E+00  1.00800000E+00
  0.00000000E+00  1.60000000E+01  1.00800000E+00  1.00800000E+00  0.00000000E+00
  1.60000000E+01  1.00800000E+00  1.00800000E+00  0.00000000E+00  1.60000000E+01
  1.00800000E+00  1.00800000E+00  0.00000000E+00  1.60000000E+01  1.00800000E+00
  1.00800000E+00  0.00000000E+00  1.60000000E+01  1.00800000E+00  1.00800000E+00
  0.00000000E+00  1.60000000E+01  1.00800000E+00  1.00800000E+00  0.00000000E+00
  1.60000000E+01  1.00800000E+00  1.00800000E+00  0.00000000E+00  1.60000000E+01
  1.00800000E+00  1.00800000E+00  0.00000000E+00  1.60000000E+01  1.00800000E+00
  1.00800000E+00  0.00000000E+00  1.60000000E+01  1.00800000E+00  1.00800000E+00
  0.00000000E+00  1.60000000E+01  1.00800000E+00  1.00800000E+00  0.00000000E+00
  1.60000000E+01  1.00800000E+00  1.00800000E+00  0.00000000E+00  1.60000000E+01
  1.00800000E+00  1.00800000E+00  0.00000000E+00  1.60000000E+01  1.00800000E+00
  1.00800000E+00  0.00000000E+00  1.60000000E+01  1.00800000E+00  1.00800000E+00
  0.00000000E+00  1.60000000E+01  1.00800000E+00  1.00800000E+00  0.00000000E+00
  1.60000000E+01  1.00800000E+00  1.00800000E+00  0.00000000E+00  1.60000000E+01
  1.00800000E+00  1.00800000E+00  0.00000000E+00  1.60000000E+01  1.00800000E+00
  1.00800000E+00  0.00000000E+00  1.60000000E+01  1.00800000E+00  1.00800000E+00
  0.00000000E+00  1.60000000E+01  1.00800000E+00  1.00800000E+00  0.00000000E+00
  1.60000000E+01  1.00800000E+00  1.00800000E+00  0.00000000E+00  1.60000000E+01
  1.00800000E+00  1.00800000E+00  0.00000000E+00  1.60000000E+01  1.00800000E+00
  1.00800000E+00  0.00000000E+00  1.60000000E+01  1.00800000E+00  1.00800000E+00
  0.00000000E+00  1.60000000E+01  1.00800000E+00  1.00800000E+00  0.00000000E+00
  1.60000000E+01  1.00800000E+00  1.00800000E+00  0.00000000E+00  1.60000000E+01
  1.00800000E+00  1.00800000E+00  0.00000000E+00  1.60000000E+01  1.00800000E+00
  1.00800000E+00  0.00000000E+00  1.60000000E+01  1.00800000E+00  1.00800000E+00
  0.00000000E+00  1.60000000E+01  1.00800000E+00  1.00800000E+00  0.00000000E+00
  1.60000000E+01  1.00800000E+00  1.00800000E+00  0.00000000E+00  1.60000000E+01
  1.00800000E+00  1.00800000E+00  0.00000000E+00  1.60000000E+01  1.00800000E+00
  1.00800000E+00  0.00000000E+00  1.60000000E+01  1.00800000E+00  1.00800000E+00
  0.00000000E+00  1.60000000E+01  1.00800000E+00  1.00800000E+00  0.00000000E+00
  1.60000000E+01  1.00800000E+00  1.00800000E+00  0.00000000E+00  1.60000000E+01
  1.00800000E+00  1.00800000E+00  0.00000000E+00  1.60000000E+01  1.00800000E+00
  1.00800000E+00  0.00000000E+00  1.60000000E+01  1.00800000E+00  1.00800000E+00
  0.00000000E+00  1.60000000E+01  1.00800000E+00  1.00800000E+00  0.00000000E+00
  1.60000000E+01  1.00800000E+00  1.00800000E+00  0.00000000E+00  1.60000000E+01
  1.00800000E+00  1.00800000E+00  0.00000000E+00  1.60000000E+01  1.00800000E+00
  1.00800000E+00  0.00000000E+00  1.60000000E+01  1.00800000E+00  1.00800000E+00
  0.00000000E+00  1.60000000E+01  1.00800000E+00  1.00800000E+00  0.00000000E+00
  1.60000000E+01  1.00800000E+00  1.00800000E+00  0.00000000E+00  1.60000000E+01
  1.00800000E+00  1.00800000E+00  0.00000000E+00  1.60000000E+01  1.00800000E+00
  1.00800000E+00  0.00000000E+00  1.60000000E+01  1.00800000E+00  1.00800000E+00
  0.00000000E+00  1.60000000E+01  1.00800000E+00  1.00800000E+00  0.00000000E+00
  1.60000000E+01  1.00800000E+00  1.00800000E+00  0.00000000E+00  1.60000000E+01
  1.00800000E+00  1.00800000E+00  0.00000000E+00  1.60000000E+01  1.00800000E+00
  1.00800000E+00  0.00000000E+00  1.60000000E+01  1.00800000E+00  1.00800000E+00
  0.00000000E+00  1.60000000E+01  1.00800000E+00  1.00800000E+00  0.00000000E+00
  1.60000000E+01  1.00800000E+00  1.00800000E+00  0.00000000E+00  1.60000000E+01
  1.00800000E+00  1.00800000E+00  0.00000000E+00  1.60000000E+01  1.00800000E+00
  1.00800000E+00  0.00000000E+00  1.60000000E+01  1.00800000E+00  1.00800000E+00
  0.00000000E+00  1.60000000E+01  1.00800000E+00  1.00800000E+00  0.00000000E+00
  1.60000000E+01  1.00800000E+00  1.00800000E+00  0.00000000E+00  1.60000000E+01
  1.00800000E+00  1.00800000E+00  0.00000000E+00  1.60000000E+01  1.00800000E+00
  1.00800000E+00  0.00000000E+00  1.60000000E+01  1.00800000E+00  1.00800000E+00
  0.00000000E+00  1.60000000E+01  1.00800000E+00  1.00800000E+00  0.00000000E+00
  1.60000000E+01  1.00800000E+00  1.00800000E+00  0.00000000E+00  1.60000000E+01
  1.00800000E+00  1.00800000E+00  0.00000000E+00  1.60000000E+01  1.00800000E+00
  1.00800000E+00  0.00000000E+00  1.60000000E+01  1.00800000E+00  1.00800000E+00
  0.00000000E+00  1.60000000E+01  1.00800000E+00  1.00800000E+00  0.00000000E+00
  1.60000000E+01  1.00800000E+00  1.00800000E+00  0.00000000E+00  1.60000000E+01
  1.00800000E+00  1.00800000E+00  0.00000000E+00  1.60000000E+01  1.00800000E+00
  1.00800000E+00  0.00000000E+00  1.60000000E+01  1.00800000E+00  1.00800000E+00
  0.00000000E+00  1.60000000E+01  1.00800000E+00  1.00800000E+00  0.00000000E+00
  1.60000000E+01  1.00800000E+00  1.00800000E+00  0.00000000E+00  1.60000000E+01
  1.00800000E+00  1.00800000E+00  0.00000000E+00  1.60000000E+01  1.00800000E+00
  1.00800000E+00  0.00000000E+00  1.60000000E+01  1.00800000E+00  1.00800000E+00
  0.00000000E+00  1.60000000E+01  1.00800000E+00  1.00800000E+00  0.00000000E+00
  1.60000000E+01  1.00800000E+00  1.00800000E+00  0.00000000E+00  1.60000000E+01
  1.00800000E+00  1.00800000E+00  0.00000000E+00  1.60000000E+01  1.00800000E+00
  1.00800000E+00  0.00000000E+00  1.60000000E+01  1.00800000E+00  1.00800000E+00
  0.00000000E+00  1.60000000E+01  1.00800000E+00  1.00800000E+00  0.00000000E+00
  1.60000000E+01  1.00800000E+00  1.00800000E+00  0.00000000E+00  1.60000000E+01
  1.00800000E+00  1.00800000E+00  0.00000000E+00  1.60000000E+01  1.00800000E+00
  1.00800000E+00  0.00000000E+00  1.60000000E+01  1.00800000E+00  1.00800000E+00
  0.00000000E+00  1.60000000E+01  1.00800000E+00  1.00800000E+00  0.00000000E+00
  1.60000000E+01  1.00800000E+00  1.00800000E+00  0.00000000E+00  1.60000000E+01
  1.00800000E+00  1.00800000E+00  0.00000000E+00  1.60000000E+01  1.00800000E+00
  1.00800000E+00  0.00000000E+00  1.60000000E+01  1.00800000E+00  1.00800000E+00
  0.00000000E+00  1.60000000E+01  1.00800000E+00  1.00800000E+00  0.00000000E+00
  1.60000000E+01  1.00800000E+00  1.00800000E+00  0.00000000E+00  1.60000000E+01
  1.00800000E+00  1.00800000E+00  0.00000000E+00  1.60000000E+01  1.00800000E+00
  1.00800000E+00  0.00000000E+00  1.60000000E+01  1.00800000E+00  1.00800000E+00
  0.00000000E+00  1.60000000E+01  1.00800000E+00  1.00800000E+00  0.00000000E+00
  1.60000000E+01  1.00800000E+00  1.00800000E+00  0.00000000E+00  1.60000000E+01
  1.00800000E+00  1.00800000E+00  0.00000000E+00  1.60000000E+01  1.00800000E+00
  1.00800000E+00  0.00000000E+00  1.60000000E+01  1.00800000E+00  1.00800000E+00
  0.00000000E+00  1.60000000E+01  1.00800000E+00  1.00800000E+00  0.00000000E+00
  1.60000000E+01  1.00800000E+00  1.00800000E+00  0.00000000E+00  1.60000000E+01
  1.00800000E+00  1.00800000E+00  0.00000000E+00  1.60000000E+01  1.00800000E+00
  1.00800000E+00  0.00000000E+00  1.60000000E+01  1.00800000E+00  1.00800000E+00
  0.00000000E+00  1.60000000E+01  1.00800000E+00  1.00800000E+00  0.00000000E+00
  1.60000000E+01  1.00800000E+00  1.00800000E+00  0.00000000E+00  1.60000000E+01
  1.00800000E+00  1.00800000E+00  0.00000000E+00  1.60000000E+01  1.00800000E+00
  1.00800000E+00  0.00000000E+00  1.60000000E+01  1.00800000E+00  1.00800000E+00
  0.00000000E+00  1.60000000E+01  1.00800000E+00  1.00800000E+00  0.00000000E+00
  1.60000000E+01  1.00800000E+00  1.00800000E+00  0.00000000E+00  1.60000000E+01
  1.00800000E+00  1.00800000E+00  0.00000000E+00  1.60000000E+01  1.00800000E+00
  1.00800000E+00  0.00000000E+00  1.60000000E+01  1.00800000E+00  1.00800000E+00
  0.00000000E+00  1.60000000E+01  1.00800000E+00  1.00800000E+00  0.00000000E+00
  1.60000000E+01  1.00800000E+00  1.00800000E+00  0.00000000E+00  1.60000000E+01
  1.00800000E+00  1.00800000E+00  0.00000000E+00  1.60000000E+01  1.00800000E+00
  1.00800000E+00  0.00000000E+00  1.60000000E+01  1.00800000E+00  1.00800000E+00
  0.00000000E+00  1.60000000E+01  1.00800000E+00  1.00800000E+00  0.00000000E+00
  1.60000000E+01  1.00800000E+00  1.00800000E+00  0.00000000E+00  1.60000000E+01
  1.00800000E+00  1.00800000E+00  0.00000000E+00  1.60000000E+01  1.00800000E+00
  1.00800000E+00  0.00000000E+00  1.60000000E+01  1.00800000E+00  1.00800000E+00
  0.00000000E+00  1.60000000E+01  1.00800000E+00  1.00800000E+00  0.00000000E+00
  1.60000000E+01  1.00800000E+00  1.00800000E+00  0.00000000E+00  1.60000000E+01
  1.00800000E+00  1.00800000E+00  0.00000000E+00  1.60000000E+01  1.00800000E+00
  1.00800000E+00  0.00000000E+00  1.60000000E+01  1.00800000E+00  1.00800000E+00
  0.00000000E+00  1.60000000E+01  1.00800000E+00  1.00800000E+00  0.00000000E+00
  1.60000000E+01  1.00800000E+00  1.00800000E+00  0.00000000E+00  1.60000000E+01
  1.00800000E+00  1.00800000E+00  0.00000000E+00  1.60000000E+01  1.00800000E+00
  1.00800000E+00  0.00000000E+00  1.60000000E+01  1.00800000E+00  1.00800000E+00
  0.00000000E+00  1.60000000E+01  1.00800000E+00  1.00800000E+00  0.00000000E+00
  1.60000000E+01  1.00800000E+00  1.00800000E+00  0.00000000E+00  1.60000000E+01
  1.00800000E+00  1.00800000E+00  0.00000000E+00  1.60000000E+01  1.00800000E+00
  1.00800000E+00  0.00000000E+00  1.60000000E+01  1.00800000E+00  1.00800000E+00
  0.00000000E+00  1.60000000E+01  1.00800000E+00  1.00800000E+00  0.00000000E+00
  1.60000000E+01  1.00800000E+00  1.00800000E+00  0.00000000E+00  1.60000000E+01
  1.00800000E+00  1.00800000E+00  0.00000000E+00  1.60000000E+01  1.00800000E+00
  1.00800000E+00  0.00000000E+00  1.60000000E+01  1.00800000E+00  1.00800000E+00
  0.00000000E+00  1.60000000E+01  1.00800000E+00  1.00800000E+00  0.00000000E+00
  1.60000000E+01  1.00800000E+00  1.00800000E+00  0.00000000E+00  1.60000000E+01
  1.00800000E+00  1.00800000E+00  0.00000000E+00  1.60000000E+01  1.00800000E+00
  1.00800000E+00  0.00000000E+00  1.60000000E+01  1.00800000E+00  1.00800000E+00
  0.00000000E+00  1.60000000E+01  1.00800000E+00  1.00800000E+00  0.00000000E+00
  1.60000000E+01  1.00800000E+00  1.00800000E+00  0.00000000E+00  1.60000000E+01
  1.00800000E+00  1.00800000E+00  0.00000000E+00  1.60000000E+01  1.00800000E+00
  1.00800000E+00  0.00000000E+00  1.60000000E+01  1.00800000E+00  1.00800000E+00
  0.00000000E+00  1.60000000E+01  1.00800000E+00  1.00800000E+00  0.00000000E+00
  1.60000000E+01  1.00800000E+00  1.00800000E+00  0.00000000E+00  1.60000000E+01
  1.00800000E+00  1.00800000E+00  0.00000000E+00  1.60000000E+01  1.00800000E+00
  1.00800000E+00  0.00000000E+00  1.60000000E+01  1.00800000E+00  1.00800000E+00
  0.00000000E+00  1.60000000E+01  1.00800000E+00  1.00800000E+00  0.00000000E+00
  1.60000000E+01  1.00800000E+00  1.00800000E+00  0.00000000E+00  1.60000000E+01
  1.00800000E+00  1.00800000E+00  0.00000000E+00  1.60000000E+01  1.00800000E+00
  1.00800000E+00  0.00000000E+00  1.60000000E+01  1.00800000E+00  1.00800000E+00
  0.00000000E+00  1.60000000E+01  1.00800000E+00  1.00800000E+00  0.00000000E+00
  1.60000000E+01  1.00800000E+00  1.00800000E+00  0.00000000E+00  1.60000000E+01
  1.00800000E+00  1.00800000E+00  0.00000000E+00  1.60000000E+01  1.00800000E+00
  1.00800000E+00  0.00000000E+00  1.60000000E+01  1.00800000E+00  1.00800000E+00
  0.00000000E+00  1.60000000E+01  1.00800000E+00  1.00800000E+00  0.00000000E+00
  1.60000000E+01  1.00800000E+00  1.00800000E+00  0.00000000E+00  1.60000000E+01
  1.00800000E+00  1.00800000E+00  0.00000000E+00  1.60000000E+01  1.00800000E+00
  1.00800000E+00  0.00000000E+00  1.60000000E+01  1.00800000E+00  1.00800000E+00
  0.00000000E+00  1.60000000E+01  1.00800000E+00  1.00800000E+00  0.00000000E+00
  1.60000000E+01  1.00800000E+00  1.00800000E+00  0.00000000E+00  1.60000000E+01
  1.00800000E+00  1.00800000E+00  0.00000000E+00  1.60000000E+01  1.00800000E+00
  1.00800000E+00  0.00000000E+00  1.60000000E+01  1.00800000E+00  1.00800000E+00
  0.00000000E+00  1.60000000E+01  1.00800000E+00  1.00800000E+00  0.00000000E+00
  1.60000000E+01  1.00800000E+00  1.00800000E+00  0.00000000E+00  1.60000000E+01
  1.00800000E+00  1.00800000E+00  0.00000000E+00  1.60000000E+01  1.00800000E+00
  1.00800000E+00  0.00000000E+00  1.60000000E+01  1.00800000E+00  1.00800000E+00
  0.00000000E+00  1.60000000E+01  1.00800000E+00  1.00800000E+00  0.00000000E+00
  1.60000000E+01  1.00800000E+00  1.00800000E+00  0.00000000E+00  1.60000000E+01
  1.00800000E+00  1.00800000E+00  0.00000000E+00  1.60000000E+01  1.00800000E+00
  1.00800000E+00  0.00000000E+00  1.60000000E+01  1.00800000E+00  1.00800000E+00
  0.00000000E+00  1.60000000E+01  1.00800000E+00  1.00800000E+00  0.00000000E+00
  1.60000000E+01  1.00800000E+00  1.00800000E+00  0.00000000E+00  1.60000000E+01
  1.00800000E+00  1.00800000E+00  0.00000000E+00  1.60000000E+01  1.00800000E+00
  1.00800000E+00  0.00000000E+00  1.60000000E+01  1.00800000E+00  1.00800000E+00
  0.00000000E+00  1.60000000E+01  1.00800000E+00  1.00800000E+00  0.00000000E+00
  1.60000000E+01  1.00800000E+00  1.00800000E+00  0.00000000E+00  1.60000000E+01
  1.00800000E+00  1.00800000E+00  0.00000000E+00  1.60000000E+01  1.00800000E+00
  1.00800000E+00  0.00000000E+00  1.60000000E+01  1.00800000E+00  1.00800000E+00
  0.00000000E+00  1.60000000E+01  1.00800000E+00  1.00800000E+00  0.00000000E+00
  1.60000000E+01  1.00800000E+00  1.00800000E+00  0.00000000E+00  1.60000000E+01
  1.00800000E+00  1.00800000E+00  0.00000000E+00  1.60000000E+01  1.00800000E+00
  1.00800000E+00  0.00000000E+00  1.60000000E+01  1.00800000E+00  1.00800000E+00
  0.00000000E+00  1.60000000E+01  1.00800000E+00  1.00800000E+00  0.00000000E+00
  1.60000000E+01  1.00800000E+00  1.00800000E+00  0.00000000E+00  1.60000000E+01
  1.00800000E+00  1.00800000E+00  0.00000000E+00  1.60000000E+01  1.00800000E+00
  1.00800000E+00  0.00000000E+00  1.60000000E+01  1.00800000E+00  1.00800000E+00
  0.00000000E+00  1.60000000E+01  1.00800000E+00  1.00800000E+00  0.00000000E+00
  1.60000000E+01  1.00800000E+00  1.00800000E+00  0.00000000E+00  1.60000000E+01
  1.00800000E+00  1.00800000E+00  0.00000000E+00  1.60000000E+01  1.00800000E+00
  1.00800000E+00  0.00000000E+00  1.60000000E+01  1.00800000E+00  1.00800000E+00
  0.00000000E+00  1.60000000E+01  1.00800000E+00  1.00800000E+00  0.00000000E+00
  1.60000000E+01  1.00800000E+00  1.00800000E+00  0.00000000E+00  1.60000000E+01
  1.00800000E+00  1.00800000E+00  0.00000000E+00  1.60000000E+01  1.00800000E+00
  1.00800000E+00  0.00000000E+00  1.60000000E+01  1.00800000E+00  1.00800000E+00
  0.00000000E+00  1.60000000E+01  1.00800000E+00  1.00800000E+00  0.00000000E+00
  1.60000000E+01  1.00800000E+00  1.00800000E+00  0.00000000E+00  1.60000000E+01
  1.00800000E+00  1.00800000E+00  0.00000000E+00  1.60000000E+01  1.00800000E+00
  1.00800000E+00  0.00000000E+00  1.60000000E+01  1.00800000E+00  1.00800000E+00
  0.00000000E+00  1.60000000E+01  1.00800000E+00  1.00800000E+00  0.00000000E+00
  1.60000000E+01  1.00800000E+00  1.00800000E+00  0.00000000E+00  1.60000000E+01
  1.00800000E+00  1.00800000E+00  0.00000000E+00  1.60000000E+01  1.00800000E+00
  1.00800000E+00  0.00000000E+00  1.60000000E+01  1.00800000E+00  1.00800000E+00
  0.00000000E+00  1.60000000E+01  1.00800000E+00  1.00800000E+00  0.00000000E+00
  1.60000000E+01  1.00800000E+00  1.00800000E+00  0.00000000E+00  1.60000000E+01
  1.00800000E+00  1.00800000E+00  0.00000000E+00  1.60000000E+01  1.00800000E+00
  1.00800000E+00  0.00000000E+00  1.60000000E+01  1.00800000E+00  1.00800000E+00
  0.00000000E+00  1.60000000E+01  1.00800000E+00  1.00800000E+00  0.00000000E+00
  1.60000000E+01  1.00800000E+00  1.00800000E+00  0.00000000E+00  1.60000000E+01
  1.00800000E+00  1.00800000E+00  0.00000000E+00  1.60000000E+01  1.00800000E+00
  1.00800000E+00  0.00000000E+00  1.60000000E+01  1.00800000E+00  1.00800000E+00
  0.00000000E+00  1.60000000E+01  1.00800000E+00  1.00800000E+00  0.00000000E+00
  1.60000000E+01  1.00800000E+00  1.00800000E+00  0.00000000E+00  1.60000000E+01
  1.00800000E+00  1.00800000E+00  0.00000000E+00  1.60000000E+01  1.00800000E+00
  1.00800000E+00  0.00000000E+00  1.60000000E+01  1.00800000E+00  1.00800000E+00
  0.00000000E+00  1.60000000E+01  1.00800000E+00  1.00800000E+00  0.00000000E+00
  1.60000000E+01  1.00800000E+00  1.00800000E+00  0.00000000E+00  1.60000000E+01
  1.00800000E+00  1.00800000E+00  0.00000000E+00  1.60000000E+01  1.00800000E+00
  1.00800000E+00  0.00000000E+00  1.60000000E+01  1.00800000E+00  1.00800000E+00
  0.00000000E+00  1.60000000E+01  1.00800000E+00  1.00800000E+00  0.00000000E+00
  1.60000000E+01  1.00800000E+00  1.00800000E+00  0.00000000E+00  1.60000000E+01
  1.00800000E+00  1.00800000E+00  0.00000000E+00  1.60000000E+01  1.00800000E+00
  1.00800000E+00  0.00000000E+00  1.60000000E+01  1.00800000E+00  1.00800000E+00
  0.00000000E+00  1.60000000E+01  1.00800000E+00  1.00800000E+00  0.00000000E+00
  1.60000000E+01  1.00800000E+00  1.00800000E+00  0.00000000E+00  1.60000000E+01
  1.00800000E+00  1.00800000E+00  0.00000000E+00  1.60000000E+01  1.00800000E+00
  1.00800000E+00  0.00000000E+00  1.60000000E+01  1.00800000E+00  1.00800000E+00
  0.00000000E+00  1.60000000E+01  1.00800000E+00  1.00800000E+00  0.00000000E+00
  1.60000000E+01  1.00800000E+00  1.00800000E+00  0.00000000E+00  1.60000000E+01
  1.00800000E+00  1.00800000E+00  0.00000000E+00  1.60000000E+01  1.00800000E+00
  1.00800000E+00  0.00000000E+00  1.60000000E+01  1.00800000E+00  1.00800000E+00
  0.00000000E+00  1.60000000E+01  1.00800000E+00  1.00800000E+00  0.00000000E+00
  1.60000000E+01  1.00800000E+00  1.00800000E+00  0.00000000E+00  1.60000000E+01
  1.00800000E+00  1.00800000E+00  0.00000000E+00  1.60000000E+01  1.00800000E+00
  1.00800000E+00  0.00000000E+00  1.60000000E+01  1.00800000E+00  1.00800000E+00
  0.00000000E+00  1.60000000E+01  1.00800000E+00  1.00800000E+00  0.00000000E+00
  1.60000000E+01  1.00800000E+00  1.00800000E+00  0.00000000E+00  1.60000000E+01
  1.00800000E+00  1.00800000E+00  0.00000000E+00  1.60000000E+01  1.00800000E+00
  1.00800000E+00  0.00000000E+00  1.60000000E+01  1.00800000E+00  1.00800000E+00
  0.00000000E+00  1.60000000E+01  1.00800000E+00  1.00800000E+00  0.00000000E+00
  1.60000000E+01  1.00800000E+00  1.00800000E+00  0.00000000E+00  1.60000000E+01
  1.00800000E+00  1.00800000E+00  0.00000000E+00  1.60000000E+01  1.00800000E+00
  1.00800000E+00  0.00000000E+00  1.60000000E+01  1.00800000E+00  1.00800000E+00
  0.00000000E+00  1.60000000E+01  1.00800000E+00  1.00800000E+00  0.00000000E+00
  1.60000000E+01  1.00800000E+00  1.00800000E+00  0.00000000E+00  1.60000000E+01
  1.00800000E+00  1.00800000E+00  0.00000000E+00  1.60000000E+01  1.00800000E+00
  1.00800000E+00  0.00000000E+00  1.60000000E+01  1.00800000E+00  1.00800000E+00
  0.00000000E+00  1.60000000E+01  1.00800000E+00  1.00800000E+00  0.00000000E+00
  1.60000000E+01  1.00800000E+00  1.00800000E+00  0.00000000E+00  1.60000000E+01
  1.00800000E+00  1.00800000E+00  0.00000000E+00  1.60000000E+01  1.00800000E+00
  1.00800000E+00  0.00000000E+00  1.60000000E+01  1.00800000E+00  1.00800000E+00
  0.00000000E+00  1.60000000E+01  1.00800000E+00  1.00800000E+00  0.00000000E+00
  1.60000000E+01  1.00800000E+00  1.00800000E+00  0.00000000E+00  1.60000000E+01
  1.00800000E+00  1.00800000E+00  0.00000000E+00  1.60000000E+01  1.00800000E+00
  1.00800000E+00  0.00000000E+00  1.60000000E+01  1.00800000E+00  1.00800000E+00
  0.00000000E+00  1.60000000E+01  1.00800000E+00  1.00800000E+00  0.00000000E+00
  1.60000000E+01  1.00800000E+00  1.00800000E+00  0.00000000E+00  1.60000000E+01
  1.00800000E+00  1.00800000E+00  0.00000000E+00  1.60000000E+01  1.00800000E+00
  1.00800000E+00  0.00000000E+00  1.60000000E+01  1.00800000E+00  1.00800000E+00
  0.00000000E+00  1.60000000E+01  1.00800000E+00  1.00800000E+00  0.00000000E+00
  1.60000000E+01  1.00800000E+00  1.00800000E+00  0.00000000E+00  1.60000000E+01
  1.00800000E+00  1.00800000E+00  0.00000000E+00  1.60000000E+01  1.00800000E+00
  1.00800000E+00  0.00000000E+00  1.60000000E+01  1.00800000E+00  1.00800000E+00
  0.00000000E+00  1.60000000E+01  1.00800000E+00  1.00800000E+00  0.00000000E+00
  1.60000000E+01  1.00800000E+00  1.00800000E+00  0.00000000E+00  1.60000000E+01
  1.00800000E+00  1.00800000E+00  0.00000000E+00  1.60000000E+01  1.00800000E+00
  1.00800000E+00  0.00000000E+00  1.60000000E+01  1.00800000E+00  1.00800000E+00
  0.00000000E+00  1.60000000E+01  1.00800000E+00  1.00800000E+00  0.00000000E+00
  1.60000000E+01  1.00800000E+00  1.00800000E+00  0.00000000E+00  1.60000000E+01
  1.00800000E+00  1.00800000E+00  0.00000000E+00  1.60000000E+01  1.00800000E+00
  1.00800000E+00  0.00000000E+00  1.60000000E+01  1.00800000E+00  1.00800000E+00
  0.00000000E+00  1.60000000E+01  1.00800000E+00  1.00800000E+00  0.00000000E+00
  1.60000000E+01  1.00800000E+00  1.00800000E+00  0.00000000E+00  1.60000000E+01
  1.00800000E+00  1.00800000E+00  0.00000000E+00  1.60000000E+01  1.00800000E+00
  1.00800000E+00  0.00000000E+00  1.60000000E+01  1.00800000E+00  1.00800000E+00
  0.00000000E+00  1.60000000E+01  1.00800000E+00  1.00800000E+00  0.00000000E+00
  1.60000000E+01  1.00800000E+00  1.00800000E+00  0.00000000E+00  1.60000000E+01
  1.00800000E+00  1.00800000E+00  0.00000000E+00  1.60000000E+01  1.00800000E+00
  1.00800000E+00  0.00000000E+00  1.60000000E+01  1.00800000E+00  1.00800000E+00
  0.00000000E+00  1.60000000E+01  1.00800000E+00  1.00800000E+00  0.00000000E+00
  1.60000000E+01  1.00800000E+00  1.00800000E+00  0.00000000E+00  1.60000000E+01
  1.00800000E+00  1.00800000E+00  0.00000000E+00  1.60000000E+01  1.00800000E+00
  1.00800000E+00  0.00000000E+00  1.60000000E+01  1.00800000E+00  1.00800000E+00
  0.00000000E+00  1.60000000E+01  1.00800000E+00  1.00800000E+00  0.00000000E+00
  1.60000000E+01  1.00800000E+00  1.00800000E+00  0.00000000E+00  1.60000000E+01
  1.00800000E+00  1.00800000E+00  0.00000000E+00  1.60000000E+01  1.00800000E+00
  1.00800000E+00  0.00000000E+00  1.60000000E+01  1.00800000E+00  1.00800000E+00
  0.00000000E+00  1.60000000E+01  1.00800000E+00  1.00800000E+00  0.00000000E+00
  1.60000000E+01  1.00800000E+00  1.00800000E+00  0.00000000E+00  1.60000000E+01
  1.00800000E+00  1.00800000E+00  0.00000000E+00  1.60000000E+01  1.00800000E+00
  1.00800000E+00  0.00000000E+00  1.60000000E+01  1.00800000E+00  1.00800000E+00
  0.00000000E+00  1.60000000E+01  1.00800000E+00  1.00800000E+00  0.00000000E+00
  1.60000000E+01  1.00800000E+00  1.00800000E+00  0.00000000E+00  1.60000000E+01
  1.00800000E+00  1.00800000E+00  0.00000000E+00  1.60000000E+01  1.00800000E+00
  1.00800000E+00  0.00000000E+00  1.60000000E+01  1.00800000E+00  1.00800000E+00
  0.00000000E+00  1.60000000E+01  1.00800000E+00  1.00800000E+00  0.00000000E+00
  1.60000000E+01  1.00800000E+00  1.00800000E+00  0.00000000E+00  1.60000000E+01
  1.00800000E+00  1.00800000E+00  0.00000000E+00  1.60000000E+01  1.00800000E+00
  1.00800000E+00  0.00000000E+00  1.60000000E+01  1.00800000E+00  1.00800000E+00
  0.00000000E+00  1.60000000E+01  1.00800000E+00  1.00800000E+00  0.00000000E+00
  1.60000000E+01  1.00800000E+00  1.00800000E+00  0.00000000E+00  1.60000000E+01
  1.00800000E+00  1.00800000E+00  0.00000000E+00  1.60000000E+01  1.00800000E+00
  1.00800000E+00  0.00000000E+00  1.60000000E+01  1.00800000E+00  1.00800000E+00
  0.00000000E+00  1.60000000E+01  1.00800000E+00  1.00800000E+00  0.00000000E+00
  1.60000000E+01  1.00800000E+00  1.00800000E+00  0.00000000E+00  1.60000000E+01
  1.00800000E+00  1.00800000E+00  0.00000000E+00  1.60000000E+01  1.00800000E+00
  1.00800000E+00  0.00000000E+00  1.60000000E+01  1.00800000E+00  1.00800000E+00
  0.00000000E+00  1.60000000E+01  1.00800000E+00  1.00800000E+00  0.00000000E+00
  1.60000000E+01  1.00800000E+00  1.00800000E+00  0.00000000E+00  1.60000000E+01
  1.00800000E+00  1.00800000E+00  0.00000000E+00  1.60000000E+01  1.00800000E+00
  1.00800000E+00  0.00000000E+00  1.60000000E+01  1.00800000E+00  1.00800000E+00
  0.00000000E+00  1.60000000E+01  1.00800000E+00  1.00800000E+00  0.00000000E+00
  1.60000000E+01  1.00800000E+00  1.00800000E+00  0.00000000E+00  1.60000000E+01
  1.00800000E+00  1.00800000E+00  0.00000000E+00  1.60000000E+01  1.00800000E+00
  1.00800000E+00  0.00000000E+00  1.60000000E+01  1.00800000E+00  1.00800000E+00
  0.00000000E+00  1.60000000E+01  1.00800000E+00  1.00800000E+00  0.00000000E+00
  1.60000000E+01  1.00800000E+00  1.00800000E+00  0.00000000E+00  1.60000000E+01
  1.00800000E+00  1.00800000E+00  0.00000000E+00  1.60000000E+01  1.00800000E+00
  1.00800000E+00  0.00000000E+00  1.60000000E+01  1.00800000E+00  1.00800000E+00
  0.00000000E+00  1.60000000E+01  1.00800000E+00  1.00800000E+00  0.00000000E+00
  1.60000000E+01  1.00800000E+00  1.00800000E+00  0.00000000E+00  1.60000000E+01
  1.00800000E+00  1.00800000E+00  0.00000000E+00  1.60000000E+01  1.00800000E+00
  1.00800000E+00  0.00000000E+00  1.60000000E+01  1.00800000E+00  1.00800000E+00
  0.00000000E+00  1.60000000E+01  1.00800000E+00  1.00800000E+00  0.00000000E+00
  1.60000000E+01  1.00800000E+00  1.00800000E+00  0.00000000E+00  1.60000000E+01
  1.00800000E+00  1.00800000E+00  0.00000000E+00  1.60000000E+01  1.00800000E+00
  1.00800000E+00  0.00000000E+00  1.60000000E+01  1.00800000E+00  1.00800000E+00
  0.00000000E+00  1.60000000E+01  1.00800000E+00  1.00800000E+00  0.00000000E+00
  1.60000000E+01  1.00800000E+00  1.00800000E+00  0.00000000E+00  1.60000000E+01
  1.00800000E+00  1.00800000E+00  0.00000000E+00  1.60000000E+01  1.00800000E+00
  1.00800000E+00  0.00000000E+00  1.60000000E+01  1.00800000E+00  1.00800000E+00
  0.00000000E+00  1.60000000E+01  1.00800000E+00  1.00800000E+00  0.00000000E+00
  1.60000000E+01  1.00800000E+00  1.00800000E+00  0.00000000E+00  1.60000000E+01
  1.00800000E+00  1.00800000E+00  0.00000000E+00  1.60000000E+01  1.00800000E+00
  1.00800000E+00  0.00000000E+00  1.60000000E+01  1.00800000E+00  1.00800000E+00
  0.00000000E+00  1.60000000E+01  1.00800000E+00  1.00800000E+00  0.00000000E+00
  1.60000000E+01  1.00800000E+00  1.00800000E+00  0.00000000E+00  1.60000000E+01
  1.00800000E+00  1.00800000E+00  0.00000000E+00  1.60000000E+01  1.00800000E+00
  1.00800000E+00  0.00000000E+00  1.60000000E+01  1.00800000E+00  1.00800000E+00
  0.00000000E+00  1.60000000E+01  1.00800000E+00  1.00800000E+00  0.00000000E+00
  1.60000000E+01  1.00800000E+00  1.00800000E+00  0.00000000E+00  1.60000000E+01
  1.00800000E+00  1.00800000E+00  0.00000000E+00  1.60000000E+01  1.00800000E+00
  1.00800000E+00  0.00000000E+00  1.60000000E+01  1.00800000E+00  1.00800000E+00
  0.00000000E+00  1.60000000E+01  1.00800000E+00  1.00800000E+00  0.00000000E+00
  1.60000000E+01  1.00800000E+00  1.00800000E+00  0.00000000E+00  1.60000000E+01
  1.00800000E+00  1.00800000E+00  0.00000000E+00  1.60000000E+01  1.00800000E+00
  1.00800000E+00  0.00000000E+00  1.60000000E+01  1.00800000E+00  1.00800000E+00
  0.00000000E+00  1.60000000E+01  1.00800000E+00  1.00800000E+00  0.00000000E+00
  1.60000000E+01  1.00800000E+00  1.00800000E+00  0.00000000E+00  1.60000000E+01
  1.00800000E+00  1.00800000E+00  0.00000000E+00  1.60000000E+01  1.00800000E+00
  1.00800000E+00  0.00000000E+00  1.60000000E+01  1.00800000E+00  1.00800000E+00
  0.00000000E+00  1.60000000E+01  1.00800000E+00  1.00800000E+00  0.00000000E+00
  1.60000000E+01  1.00800000E+00  1.00800000E+00  0.00000000E+00  1.60000000E+01
  1.00800000E+00  1.00800000E+00  0.00000000E+00  1.60000000E+01  1.00800000E+00
  1.00800000E+00  0.00000000E+00  1.60000000E+01  1.00800000E+00  1.00800000E+00
  0.00000000E+00  1.60000000E+01  1.00800000E+00  1.00800000E+00  0.00000000E+00
  1.60000000E+01  1.00800000E+00  1.00800000E+00  0.00000000E+00  1.60000000E+01
  1.00800000E+00  1.00800000E+00  0.00000000E+00  1.60000000E+01  1.00800000E+00
  1.00800000E+00  0.00000000E+00  1.60000000E+01  1.00800000E+00  1.00800000E+00
  0.00000000E+00  1.60000000E+01  1.00800000E+00  1.00800000E+00  0.00000000E+00
  1.60000000E+01  1.00800000E+00  1.00800000E+00  0.00000000E+00  1.60000000E+01
  1.00800000E+00  1.00800000E+00  0.00000000E+00  1.60000000E+01  1.00800000E+00
  1.00800000E+00  0.00000000E+00  1.60000000E+01  1.00800000E+00  1.00800000E+00
  0.00000000E+00  1.60000000E+01  1.00800000E+00  1.00800000E+00  0.00000000E+00
  1.60000000E+01  1.00800000E+00  1.00800000E+00  0.00000000E+00  1.60000000E+01
  1.00800000E+00  1.00800000E+00  0.00000000E+00  1.60000000E+01  1.00800000E+00
  1.00800000E+00  0.00000000E+00  1.60000000E+01  1.00800000E+00  1.00800000E+00
  0.00000000E+00  1.60000000E+01  1.00800000E+00  1.00800000E+00  0.00000000E+00
  1.60000000E+01  1.00800000E+00  1.00800000E+00  0.00000000E+00  1.60000000E+01
  1.00800000E+00  1.00800000E+00  0.00000000E+00  1.60000000E+01  1.00800000E+00
  1.00800000E+00  0.00000000E+00  1.60000000E+01  1.00800000E+00  1.00800000E+00
  0.00000000E+00  1.60000000E+01  1.00800000E+00  1.00800000E+00  0.00000000E+00
  1.60000000E+01  1.00800000E+00  1.00800000E+00  0.00000000E+00  1.60000000E+01
  1.00800000E+00  1.00800000E+00  0.00000000E+00  1.60000000E+01  1.00800000E+00
  1.00800000E+00  0.00000000E+00  1.60000000E+01  1.00800000E+00  1.00800000E+00
  0.00000000E+00  1.60000000E+01  1.00800000E+00  1.00800000E+00  0.00000000E+00
  1.60000000E+01  1.00800000E+00  1.00800000E+00  0.00000000E+00  1.60000000E+01
  1.00800000E+00  1.00800000E+00  0.00000000E+00  1.60000000E+01  1.00800000E+00
  1.00800000E+00  0.00000000E+00  1.60000000E+01  1.00800000E+00  1.00800000E+00
  0.00000000E+00  1.60000000E+01  1.00800000E+00  1.00800000E+00  0.00000000E+00
  1.60000000E+01  1.00800000E+00  1.00800000E+00  0.00000000E+00  1.60000000E+01
  1.00800000E+00  1.00800000E+00  0.00000000E+00  1.60000000E+01  1.00800000E+00
  1.00800000E+00  0.00000000E+00  1.60000000E+01  1.00800000E+00  1.00800000E+00
  0.00000000E+00  1.60000000E+01  1.00800000E+00  1.00800000E+00  0.00000000E+00
  1.60000000E+01  1.00800000E+00  1.00800000E+00  0.00000000E+00  1.60000000E+01
  1.00800000E+00  1.00800000E+00  0.00000000E+00  1.60000000E+01  1.00800000E+00
  1.00800000E+00  0.00000000E+00  1.60000000E+01  1.00800000E+00  1.00800000E+00
  0.00000000E+00  1.60000000E+01  1.00800000E+00  1.00800000E+00  0.00000000E+00
  1.60000000E+01  1.00800000E+00  1.00800000E+00  0.00000000E+00  1.60000000E+01
  1.00800000E+00  1.00800000E+00  0.00000000E+00  1.60000000E+01  1.00800000E+00
  1.00800000E+00  0.00000000E+00  1.60000000E+01  1.00800000E+00  1.00800000E+00
  0.00000000E+00  1.60000000E+01  1.00800000E+00  1.00800000E+00  0.00000000E+00
  1.60000000E+01  1.00800000E+00  1.00800000E+00  0.00000000E+00  1.60000000E+01
  1.00800000E+00  1.00800000E+00  0.00000000E+00  1.60000000E+01  1.00800000E+00
  1.00800000E+00  0.00000000E+00  1.60000000E+01  1.00800000E+00  1.00800000E+00
  0.00000000E+00  1.60000000E+01  1.00800000E+00  1.00800000E+00  0.00000000E+00
  1.60000000E+01  1.00800000E+00  1.00800000E+00  0.00000000E+00  1.60000000E+01
  1.00800000E+00  1.00800000E+00  0.00000000E+00  1.60000000E+01  1.00800000E+00
  1.00800000E+00  0.00000000E+00  1.60000000E+01  1.00800000E+00  1.00800000E+00
  0.00000000E+00  1.60000000E+01  1.00800000E+00  1.00800000E+00  0.00000000E+00
  1.60000000E+01  1.00800000E+00  1.00800000E+00  0.00000000E+00  1.60000000E+01
  1.00800000E+00  1.00800000E+00  0.00000000E+00  1.60000000E+01  1.00800000E+00
  1.00800000E+00  0.00000000E+00  1.60000000E+01  1.00800000E+00  1.00800000E+00
  0.00000000E+00  1.60000000E+01  1.00800000E+00  1.00800000E+00  0.00000000E+00
  1.60000000E+01  1.00800000E+00  1.00800000E+00  0.00000000E+00  1.60000000E+01
  1.00800000E+00  1.00800000E+00  0.00000000E+00  1.60000000E+01  1.00800000E+00
  1.00800000E+00  0.00000000E+00  1.60000000E+01  1.00800000E+00  1.00800000E+00
  0.00000000E+00  1.60000000E+01  1.00800000E+00  1.00800000E+00  0.00000000E+00
  1.60000000E+01  1.00800000E+00  1.00800000E+00  0.00000000E+00  1.60000000E+01
  1.00800000E+00  1.00800000E+00  0.00000000E+00  1.60000000E+01  1.00800000E+00
  1.00800000E+00  0.00000000E+00  1.60000000E+01  1.00800000E+00  1.00800000E+00
  0.00000000E+00  1.60000000E+01  1.00800000E+00  1.00800000E+00  0.00000000E+00
  1.60000000E+01  1.00800000E+00  1.00800000E+00  0.00000000E+00  1.60000000E+01
  1.00800000E+00  1.00800000E+00  0.00000000E+00  1.60000000E+01  1.00800000E+00
  1.00800000E+00  0.00000000E+00  1.60000000E+01  1.00800000E+00  1.00800000E+00
  0.00000000E+00  1.60000000E+01  1.00800000E+00  1.00800000E+00  0.00000000E+00
  1.60000000E+01  1.00800000E+00  1.00800000E+00  0.00000000E+00  1.60000000E+01
  1.00800000E+00  1.00800000E+00  0.00000000E+00  1.60000000E+01  1.00800000E+00
  1.00800000E+00  0.00000000E+00  1.60000000E+01  1.00800000E+00  1.00800000E+00
  0.00000000E+00  1.60000000E+01  1.00800000E+00  1.00800000E+00  0.00000000E+00
  1.60000000E+01  1.00800000E+00  1.00800000E+00  0.00000000E+00  1.60000000E+01
  1.00800000E+00  1.00800000E+00  0.00000000E+00  1.60000000E+01  1.00800000E+00
  1.00800000E+00  0.00000000E+00  1.60000000E+01  1.00800000E+00  1.00800000E+00
  0.00000000E+00  1.60000000E+01  1.00800000E+00  1.00800000E+00  0.00000000E+00
  1.60000000E+01  1.00800000E+00  1.00800000E+00  0.00000000E+00  1.60000000E+01
  1.00800000E+00  1.00800000E+00  0.00000000E+00  1.60000000E+01  1.00800000E+00
  1.00800000E+00  0.00000000E+00  1.60000000E+01  1.00800000E+00  1.00800000E+00
  0.00000000E+00  1.60000000E+01  1.00800000E+00  1.00800000E+00  0.00000000E+00
  1.60000000E+01  1.00800000E+00  1.00800000E+00  0.00000000E+00  1.60000000E+01
  1.00800000E+00  1.00800000E+00  0.00000000E+00  1.60000000E+01  1.00800000E+00
  1.00800000E+00  0.00000000E+00  1.60000000E+01  1.00800000E+00  1.00800000E+00
  0.00000000E+00  1.60000000E+01  1.00800000E+00  1.00800000E+00  0.00000000E+00
  1.60000000E+01  1.00800000E+00  1.00800000E+00  0.00000000E+00  1.60000000E+01
  1.00800000E+00  1.00800000E+00  0.00000000E+00  1.60000000E+01  1.00800000E+00
  1.00800000E+00  0.00000000E+00  1.60000000E+01  1.00800000E+00  1.00800000E+00
  0.00000000E+00  1.60000000E+01  1.00800000E+00  1.00800000E+00  0.00000000E+00
  1.60000000E+01  1.00800000E+00  1.00800000E+00  0.00000000E+00  1.60000000E+01
  1.00800000E+00  1.00800000E+00  0.00000000E+00  1.60000000E+01  1.00800000E+00
  1.00800000E+00  0.00000000E+00  1.60000000E+01  1.00800000E+00  1.00800000E+00
  0.00000000E+00  1.60000000E+01  1.00800000E+00  1.00800000E+00  0.00000000E+00
  1.60000000E+01  1.00800000E+00  1.00800000E+00  0.00000000E+00  1.60000000E+01
  1.00800000E+00  1.00800000E+00  0.00000000E+00  1.60000000E+01  1.00800000E+00
  1.00800000E+00  0.00000000E+00  1.60000000E+01  1.00800000E+00  1.00800000E+00
  0.00000000E+00  1.60000000E+01  1.00800000E+00  1.00800000E+00  0.00000000E+00
  1.60000000E+01  1.00800000E+00  1.00800000E+00  0.00000000E+00  1.60000000E+01
  1.00800000E+00  1.00800000E+00  0.00000000E+00  1.60000000E+01  1.00800000E+00
  1.00800000E+00  0.00000000E+00  1.60000000E+01  1.00800000E+00  1.00800000E+00
  0.00000000E+00  1.60000000E+01  1.00800000E+00  1.00800000E+00  0.00000000E+00
  1.60000000E+01  1.00800000E+00  1.00800000E+00  0.00000000E+00  1.60000000E+01
  1.00800000E+00  1.00800000E+00  0.00000000E+00  1.60000000E+01  1.00800000E+00
  1.00800000E+00  0.00000000E+00  1.60000000E+01  1.00800000E+00  1.00800000E+00
  0.00000000E+00  1.60000000E+01  1.00800000E+00  1.00800000E+00  0.00000000E+00
  1.60000000E+01  1.00800000E+00  1.00800000E+00  0.00000000E+00  1.60000000E+01
  1.00800000E+00  1.00800000E+00  0.00000000E+00  1.60000000E+01  1.00800000E+00
  1.00800000E+00  0.00000000E+00  1.60000000E+01  1.00800000E+00  1.00800000E+00
  0.00000000E+00  1.60000000E+01  1.00800000E+00  1.00800000E+00  0.00000000E+00
  1.60000000E+01  1.00800000E+00  1.00800000E+00  0.00000000E+00  1.60000000E+01
  1.00800000E+00  1.00800000E+00  0.00000000E+00  1.60000000E+01  1.00800000E+00
  1.00800000E+00  0.00000000E+00  1.60000000E+01  1.00800000E+00  1.00800000E+00
  0.00000000E+00  1.60000000E+01  1.00800000E+00  1.00800000E+00  0.00000000E+00
  1.60000000E+01  1.00800000E+00  1.00800000E+00  0.00000000E+00  1.60000000E+01
  1.00800000E+00  1.00800000E+00  0.00000000E+00  1.60000000E+01  1.00800000E+00
  1.00800000E+00  0.00000000E+00  1.60000000E+01  1.00800000E+00  1.00800000E+00
  0.00000000E+00  1.60000000E+01  1.00800000E+00  1.00800000E+00  0.00000000E+00
  1.60000000E+01  1.00800000E+00  1.00800000E+00  0.00000000E+00  1.60000000E+01
  1.00800000E+00  1.00800000E+00  0.00000000E+00  1.60000000E+01  1.00800000E+00
  1.00800000E+00  0.00000000E+00  1.60000000E+01  1.00800000E+00  1.00800000E+00
  0.00000000E+00  1.60000000E+01  1.00800000E+00  1.00800000E+00  0.00000000E+00
  1.60000000E+01  1.00800000E+00  1.00800000E+00  0.00000000E+00  1.60000000E+01
  1.00800000E+00  1.00800000E+00  0.00000000E+00  1.60000000E+01  1.00800000E+00
  1.00800000E+00  0.00000000E+00  1.60000000E+01  1.00800000E+00  1.00800000E+00
  0.00000000E+00  1.60000000E+01  1.00800000E+00  1.00800000E+00  0.00000000E+00
  1.60000000E+01  1.00800000E+00  1.00800000E+00  0.00000000E+00  1.60000000E+01
  1.00800000E+00  1.00800000E+00  0.00000000E+00  1.60000000E+01  1.00800000E+00
  1.00800000E+00  0.00000000E+00  1.60000000E+01  1.00800000E+00  1.00800000E+00
  0.00000000E+00  1.60000000E+01  1.00800000E+00  1.00800000E+00  0.00000000E+00
  1.60000000E+01  1.00800000E+00  1.00800000E+00  0.00000000E+00  1.60000000E+01
  1.00800000E+00  1.00800000E+00  0.00000000E+00  1.60000000E+01  1.00800000E+00
  1.00800000E+00  0.00000000E+00  1.60000000E+01  1.00800000E+00  1.00800000E+00
  0.00000000E+00  1.60000000E+01  1.00800000E+00  1.00800000E+00  0.00000000E+00
  1.60000000E+01  1.00800000E+00  1.00800000E+00  0.00000000E+00  1.60000000E+01
  1.00800000E+00  1.00800000E+00  0.00000000E+00  1.60000000E+01  1.00800000E+00
  1.00800000E+00  0.00000000E+00  1.60000000E+01  1.00800000E+00  1.00800000E+00
  0.00000000E+00  1.60000000E+01  1.00800000E+00  1.00800000E+00  0.00000000E+00
  1.60000000E+01  1.00800000E+00  1.00800000E+00  0.00000000E+00  1.60000000E+01
  1.00800000E+00  1.00800000E+00  0.00000000E+00  1.60000000E+01  1.00800000E+00
  1.00800000E+00  0.00000000E+00  1.60000000E+01  1.00800000E+00  1.00800000E+00
  0.00000000E+00  1.60000000E+01  1.00800000E+00  1.00800000E+00  0.00000000E+00
  1.60000000E+01  1.00800000E+00  1.00800000E+00  0.00000000E+00  1.60000000E+01
  1.00800000E+00  1.00800000E+00  0.00000000E+00  1.60000000E+01  1.00800000E+00
  1.00800000E+00  0.00000000E+00  1.60000000E+01  1.00800000E+00  1.00800000E+00
  0.00000000E+00  1.60000000E+01  1.00800000E+00  1.00800000E+00  0.00000000E+00
  1.60000000E+01  1.00800000E+00  1.00800000E+00  0.00000000E+00  1.60000000E+01
  1.00800000E+00  1.00800000E+00  0.00000000E+00  1.60000000E+01  1.00800000E+00
  1.00800000E+00  0.00000000E+00  1.60000000E+01  1.00800000E+00  1.00800000E+00
  0.00000000E+00  1.60000000E+01  1.00800000E+00  1.00800000E+00  0.00000000E+00
  1.60000000E+01  1.00800000E+00  1.00800000E+00  0.00000000E+00  1.60000000E+01
  1.00800000E+00  1.00800000E+00  0.00000000E+00  1.60000000E+01  1.00800000E+00
  1.00800000E+00  0.00000000E+00  1.60000000E+01  1.00800000E+00  1.00800000E+00
  0.00000000E+00  1.60000000E+01  1.00800000E+00  1.00800000E+00  0.00000000E+00
  1.60000000E+01  1.00800000E+00  1.00800000E+00  0.00000000E+00  1.60000000E+01
  1.00800000E+00  1.00800000E+00  0.00000000E+00  1.60000000E+01  1.00800000E+00
  1.00800000E+00  0.00000000E+00  1.60000000E+01  1.00800000E+00  1.00800000E+00
  0.00000000E+00  1.60000000E+01  1.00800000E+00  1.00800000E+00  0.00000000E+00
  1.60000000E+01  1.00800000E+00  1.00800000E+00  0.00000000E+00  1.60000000E+01
  1.00800000E+00  1.00800000E+00  0.00000000E+00  1.60000000E+01  1.00800000E+00
  1.00800000E+00  0.00000000E+00  1.60000000E+01  1.00800000E+00  1.00800000E+00
  0.00000000E+00  1.60000000E+01  1.00800000E+00  1.00800000E+00  0.00000000E+00
  1.60000000E+01  1.00800000E+00  1.00800000E+00  0.00000000E+00  1.60000000E+01
  1.00800000E+00  1.00800000E+00  0.00000000E+00  1.60000000E+01  1.00800000E+00
  1.00800000E+00  0.00000000E+00  1.60000000E+01  1.00800000E+00  1.00800000E+00
  0.00000000E+00  1.60000000E+01  1.00800000E+00  1.00800000E+00  0.00000000E+00
  1.60000000E+01  1.00800000E+00  1.00800000E+00  0.00000000E+00  1.60000000E+01
  1.00800000E+00  1.00800000E+00  0.00000000E+00  1.60000000E+01  1.00800000E+00
  1.00800000E+00  0.00000000E+00  1.60000000E+01  1.00800000E+00  1.00800000E+00
  0.00000000E+00  1.60000000E+01  1.00800000E+00  1.00800000E+00  0.00000000E+00
  1.60000000E+01  1.00800000E+00  1.00800000E+00  0.00000000E+00  1.60000000E+01
  1.00800000E+00  1.00800000E+00  0.00000000E+00  1.60000000E+01  1.00800000E+00
  1.00800000E+00  0.00000000E+00  1.60000000E+01  1.00800000E+00  1.00800000E+00
  0.00000000E+00  1.60000000E+01  1.00800000E+00  1.00800000E+00  0.00000000E+00
  1.60000000E+01  1.00800000E+00  1.00800000E+00  0.00000000E+00  1.60000000E+01
  1.00800000E+00  1.00800000E+00  0.00000000E+00  1.60000000E+01  1.00800000E+00
  1.00800000E+00  0.00000000E+00  1.60000000E+01  1.00800000E+00  1.00800000E+00
  0.00000000E+00  1.60000000E+01  1.00800000E+00  1.00800000E+00  0.00000000E+00
  1.60000000E+01  1.00800000E+00  1.00800000E+00  0.00000000E+00  1.60000000E+01
  1.00800000E+00  1.00800000E+00  0.00000000E+00  1.60000000E+01  1.00800000E+00
  1.00800000E+00  0.00000000E+00  1.60000000E+01  1.00800000E+00  1.00800000E+00
  0.00000000E+00  1.60000000E+01  1.00800000E+00  1.00800000E+00  0.00000000E+00
  1.60000000E+01  1.00800000E+00  1.00800000E+00  0.00000000E+00  1.60000000E+01
  1.00800000E+00  1.00800000E+00  0.00000000E+00  1.60000000E+01  1.00800000E+00
  1.00800000E+00  0.00000000E+00  1.60000000E+01  1.00800000E+00  1.00800000E+00
  0.00000000E+00  1.60000000E+01  1.00800000E+00  1.00800000E+00  0.00000000E+00
  1.60000000E+01  1.00800000E+00  1.00800000E+00  0.00000000E+00  1.60000000E+01
  1.00800000E+00  1.00800000E+00  0.00000000E+00  1.60000000E+01  1.00800000E+00
  1.00800000E+00  0.00000000E+00  1.60000000E+01  1.00800000E+00  1.00800000E+00
  0.00000000E+00  1.60000000E+01  1.00800000E+00  1.00800000E+00  0.00000000E+00
  1.60000000E+01  1.00800000E+00  1.00800000E+00  0.00000000E+00  1.60000000E+01
  1.00800000E+00  1.00800000E+00  0.00000000E+00  1.60000000E+01  1.00800000E+00
  1.00800000E+00  0.00000000E+00  1.60000000E+01  1.00800000E+00  1.00800000E+00
  0.00000000E+00  1.60000000E+01  1.00800000E+00  1.00800000E+00  0.00000000E+00
  1.60000000E+01  1.00800000E+00  1.00800000E+00  0.00000000E+00  1.60000000E+01
  1.00800000E+00  1.00800000E+00  0.00000000E+00  1.60000000E+01  1.00800000E+00
  1.00800000E+00  0.00000000E+00  1.60000000E+01  1.00800000E+00  1.00800000E+00
  0.00000000E+00  1.60000000E+01  1.00800000E+00  1.00800000E+00  0.00000000E+00
  1.60000000E+01  1.00800000E+00  1.00800000E+00  0.00000000E+00  1.60000000E+01
  1.00800000E+00  1.00800000E+00  0.00000000E+00  1.60000000E+01  1.00800000E+00
  1.00800000E+00  0.00000000E+00  1.60000000E+01  1.00800000E+00  1.00800000E+00
  0.00000000E+00  1.60000000E+01  1.00800000E+00  1.00800000E+00  0.00000000E+00
  1.60000000E+01  1.00800000E+00  1.00800000E+00  0.00000000E+00  1.60000000E+01
  1.00800000E+00  1.00800000E+00  0.00000000E+00  1.60000000E+01  1.00800000E+00
  1.00800000E+00  0.00000000E+00  1.60000000E+01  1.00800000E+00  1.00800000E+00
  0.00000000E+00  1.60000000E+01  1.00800000E+00  1.00800000E+00  0.00000000E+00
  1.60000000E+01  1.00800000E+00  1.00800000E+00  0.00000000E+00  1.60000000E+01
  1.00800000E+00  1.00800000E+00  0.00000000E+00  1.60000000E+01  1.00800000E+00
  1.00800000E+00  0.00000000E+00  1.60000000E+01  1.00800000E+00  1.00800000E+00
  0.00000000E+00  1.60000000E+01  1.00800000E+00  1.00800000E+00  0.00000000E+00
  1.60000000E+01  1.00800000E+00  1.00800000E+00  0.00000000E+00  1.60000000E+01
  1.00800000E+00  1.00800000E+00  0.00000000E+00  1.60000000E+01  1.00800000E+00
  1.00800000E+00  0.00000000E+00  1.60000000E+01  1.00800000E+00  1.00800000E+00
  0.00000000E+00  1.60000000E+01  1.00800000E+00  1.00800000E+00  0.00000000E+00
  1.60000000E+01  1.00800000E+00  1.00800000E+00  0.00000000E+00  1.60000000E+01
  1.00800000E+00  1.00800000E+00  0.00000000E+00  1.60000000E+01  1.00800000E+00
  1.00800000E+00  0.00000000E+00  1.60000000E+01  1.00800000E+00  1.00800000E+00
  0.00000000E+00  1.60000000E+01  1.00800000E+00  1.00800000E+00  0.00000000E+00
  1.60000000E+01  1.00800000E+00  1.00800000E+00  0.00000000E+00  1.60000000E+01
  1.00800000E+00  1.00800000E+00  0.00000000E+00  1.60000000E+01  1.00800000E+00
  1.00800000E+00  0.00000000E+00  1.60000000E+01  1.00800000E+00  1.00800000E+00
  0.00000000E+00  1.60000000E+01  1.00800000E+00  1.00800000E+00  0.00000000E+00
  1.60000000E+01  1.00800000E+00  1.00800000E+00  0.00000000E+00  1.60000000E+01
  1.00800000E+00  1.00800000E+00  0.00000000E+00  1.60000000E+01  1.00800000E+00
  1.00800000E+00  0.00000000E+00  1.60000000E+01  1.00800000E+00  1.00800000E+00
  0.00000000E+00  1.60000000E+01  1.00800000E+00  1.00800000E+00  0.00000000E+00
  1.60000000E+01  1.00800000E+00  1.00800000E+00  0.00000000E+00  1.60000000E+01
  1.00800000E+00  1.00800000E+00  0.00000000E+00  1.60000000E+01  1.00800000E+00
  1.00800000E+00  0.00000000E+00  1.60000000E+01  1.00800000E+00  1.00800000E+00
  0.00000000E+00  1.60000000E+01  1.00800000E+00  1.00800000E+00  0.00000000E+00
  1.60000000E+01  1.00800000E+00  1.00800000E+00  0.00000000E+00  1.60000000E+01
  1.00800000E+00  1.00800000E+00  0.00000000E+00  1.60000000E+01  1.00800000E+00
  1.00800000E+00  0.00000000E+00  1.60000000E+01  1.00800000E+00  1.00800000E+00
  0.00000000E+00  1.60000000E+01  1.00800000E+00  1.00800000E+00  0.00000000E+00
  1.60000000E+01  1.00800000E+00  1.00800000E+00  0.00000000E+00  1.60000000E+01
  1.00800000E+00  1.00800000E+00  0.00000000E+00  1.60000000E+01  1.00800000E+00
  1.00800000E+00  0.00000000E+00  1.60000000E+01  1.00800000E+00  1.00800000E+00
  0.00000000E+00  1.60000000E+01  1.00800000E+00  1.00800000E+00  0.00000000E+00
  1.60000000E+01  1.00800000E+00  1.00800000E+00  0.00000000E+00  1.60000000E+01
  1.00800000E+00  1.00800000E+00  0.00000000E+00  1.60000000E+01  1.00800000E+00
  1.00800000E+00  0.00000000E+00  1.60000000E+01  1.00800000E+00  1.00800000E+00
  0.00000000E+00  1.60000000E+01  1.00800000E+00  1.00800000E+00  0.00000000E+00
  1.60000000E+01  1.00800000E+00  1.00800000E+00  0.00000000E+00  1.60000000E+01
  1.00800000E+00  1.00800000E+00  0.00000000E+00  1.60000000E+01  1.00800000E+00
  1.00800000E+00  0.00000000E+00  1.60000000E+01  1.00800000E+00  1.00800000E+00
  0.00000000E+00  1.60000000E+01  1.00800000E+00  1.00800000E+00  0.00000000E+00
  1.60000000E+01  1.00800000E+00  1.00800000E+00  0.00000000E+00  1.60000000E+01
  1.00800000E+00  1.00800000E+00  0.00000000E+00  1.60000000E+01  1.00800000E+00
  1.00800000E+00  0.00000000E+00  1.60000000E+01  1.00800000E+00  1.00800000E+00
  0.00000000E+00  1.60000000E+01  1.00800000E+00  1.00800000E+00  0.00000000E+00
  1.60000000E+01  1.00800000E+00  1.00800000E+00  0.00000000E+00  1.60000000E+01
  1.00800000E+00  1.00800000E+00  0.00000000E+00  1.60000000E+01  1.00800000E+00
  1.00800000E+00  0.00000000E+00  1.60000000E+01  1.00800000E+00  1.00800000E+00
  0.00000000E+00  1.60000000E+01  1.00800000E+00  1.00800000E+00  0.00000000E+00
  1.60000000E+01  1.00800000E+00  1.00800000E+00  0.00000000E+00  1.60000000E+01
  1.00800000E+00  1.00800000E+00  0.00000000E+00  1.60000000E+01  1.00800000E+00
  1.00800000E+00  0.00000000E+00  1.60000000E+01  1.00800000E+00  1.00800000E+00
  0.00000000E+00  1.60000000E+01  1.00800000E+00  1.00800000E+00  0.00000000E+00
  1.60000000E+01  1.00800000E+00  1.00800000E+00  0.00000000E+00  1.60000000E+01
  1.00800000E+00  1.00800000E+00  0.00000000E+00  1.60000000E+01  1.00800000E+00
  1.00800000E+00  0.00000000E+00  1.60000000E+01  1.00800000E+00  1.00800000E+00
  0.00000000E+00  1.60000000E+01  1.00800000E+00  1.00800000E+00  0.00000000E+00
  1.60000000E+01  1.00800000E+00  1.00800000E+00  0.00000000E+00  1.60000000E+01
  1.00800000E+00  1.00800000E+00  0.00000000E+00  1.60000000E+01  1.00800000E+00
  1.00800000E+00  0.00000000E+00  1.60000000E+01  1.00800000E+00  1.00800000E+00
  0.00000000E+00  1.60000000E+01  1.00800000E+00  1.00800000E+00  0.00000000E+00
  1.60000000E+01  1.00800000E+00  1.00800000E+00  0.00000000E+00  1.60000000E+01
  1.00800000E+00  1.00800000E+00  0.00000000E+00  1.60000000E+01  1.00800000E+00
  1.00800000E+00  0.00000000E+00  1.60000000E+01  1.00800000E+00  1.00800000E+00
  0.00000000E+00  1.60000000E+01  1.00800000E+00  1.00800000E+00  0.00000000E+00
  1.60000000E+01  1.00800000E+00  1.00800000E+00  0.00000000E+00  1.60000000E+01
  1.00800000E+00  1.00800000E+00  0.00000000E+00  1.60000000E+01  1.00800000E+00
  1.00800000E+00  0.00000000E+00  1.60000000E+01  1.00800000E+00  1.00800000E+00
  0.00000000E+00  1.60000000E+01  1.00800000E+00  1.00800000E+00  0.00000000E+00
  1.60000000E+01  1.00800000E+00  1.00800000E+00  0.00000000E+00  1.60000000E+01
  1.00800000E+00  1.00800000E+00  0.00000000E+00  1.60000000E+01  1.00800000E+00
  1.00800000E+00  0.00000000E+00  1.60000000E+01  1.00800000E+00  1.00800000E+00
  0.00000000E+00  1.60000000E+01  1.00800000E+00  1.00800000E+00  0.00000000E+00
  1.60000000E+01  1.00800000E+00  1.00800000E+00  0.00000000E+00  1.60000000E+01
  1.00800000E+00  1.00800000E+00  0.00000000E+00  1.60000000E+01  1.00800000E+00
  1.00800000E+00  0.00000000E+00  1.60000000E+01  1.00800000E+00  1.00800000E+00
  0.00000000E+00  1.60000000E+01  1.00800000E+00  1.00800000E+00  0.00000000E+00
  1.60000000E+01  1.00800000E+00  1.00800000E+00  0.00000000E+00  1.60000000E+01
  1.00800000E+00  1.00800000E+00  0.00000000E+00  1.60000000E+01  1.00800000E+00
  1.00800000E+00  0.00000000E+00  1.60000000E+01  1.00800000E+00  1.00800000E+00
  0.00000000E+00  1.60000000E+01  1.00800000E+00  1.00800000E+00  0.00000000E+00
  1.60000000E+01  1.00800000E+00  1.00800000E+00  0.00000000E+00  1.60000000E+01
  1.00800000E+00  1.00800000E+00  0.00000000E+00  1.60000000E+01  1.00800000E+00
  1.00800000E+00  0.00000000E+00  1.60000000E+01  1.00800000E+00  1.00800000E+00
  0.00000000E+00  1.60000000E+01  1.00800000E+00  1.00800000E+00  0.00000000E+00
  1.60000000E+01  1.00800000E+00  1.00800000E+00  0.00000000E+00  1.60000000E+01
  1.00800000E+00  1.00800000E+00  0.00000000E+00  1.60000000E+01  1.00800000E+00
  1.00800000E+00  0.00000000E+00  1.60000000E+01  1.00800000E+00  1.00800000E+00
  0.00000000E+00  1.60000000E+01  1.00800000E+00  1.00800000E+00  0.00000000E+00
  1.60000000E+01  1.00800000E+00  1.00800000E+00  0.00000000E+00  1.60000000E+01
  1.00800000E+00  1.00800000E+00  0.00000000E+00  1.60000000E+01  1.00800000E+00
  1.00800000E+00  0.00000000E+00  1.60000000E+01  1.00800000E+00  1.00800000E+00
  0.00000000E+00  1.60000000E+01  1.00800000E+00  1.00800000E+00  0.00000000E+00
  1.60000000E+01  1.00800000E+00  1.00800000E+00  0.00000000E+00  1.60000000E+01
  1.00800000E+00  1.00800000E+00  0.00000000E+00  1.60000000E+01  1.00800000E+00
  1.00800000E+00  0.00000000E+00  1.60000000E+01  1.00800000E+00  1.00800000E+00
  0.00000000E+00  1.60000000E+01  1.00800000E+00  1.00800000E+00  0.00000000E+00
  1.60000000E+01  1.00800000E+00  1.00800000E+00  0.00000000E+00  1.60000000E+01
  1.00800000E+00  1.00800000E+00  0.00000000E+00  1.60000000E+01  1.00800000E+00
  1.00800000E+00  0.00000000E+00  1.60000000E+01  1.00800000E+00  1.00800000E+00
  0.00000000E+00  1.60000000E+01  1.00800000E+00  1.00800000E+00  0.00000000E+00
  1.60000000E+01  1.00800000E+00  1.00800000E+00  0.00000000E+00  1.60000000E+01
  1.00800000E+00  1.00800000E+00  0.00000000E+00  1.60000000E+01  1.00800000E+00
  1.00800000E+00  0.00000000E+00  1.60000000E+01  1.00800000E+00  1.00800000E+00
  0.00000000E+00  1.60000000E+01  1.00800000E+00  1.00800000E+00  0.00000000E+00
  1.60000000E+01  1.00800000E+00  1.00800000E+00  0.00000000E+00  1.60000000E+01
  1.00800000E+00  1.00800000E+00  0.00000000E+00  1.60000000E+01  1.00800000E+00
  1.00800000E+00  0.00000000E+00  1.60000000E+01  1.00800000E+00  1.00800000E+00
  0.00000000E+00  1.60000000E+01  1.00800000E+00  1.00800000E+00  0.00000000E+00
  1.60000000E+01  1.00800000E+00  1.00800000E+00  0.00000000E+00  1.60000000E+01
  1.00800000E+00  1.00800000E+00  0.00000000E+00  1.60000000E+01  1.00800000E+00
  1.00800000E+00  0.00000000E+00  1.60000000E+01  1.00800000E+00  1.00800000E+00
  0.00000000E+00  1.60000000E+01  1.00800000E+00  1.00800000E+00  0.00000000E+00
  1.60000000E+01  1.00800000E+00  1.00800000E+00  0.00000000E+00  1.60000000E+01
  1.00800000E+00  1.00800000E+00  0.00000000E+00  1.60000000E+01  1.00800000E+00
  1.00800000E+00  0.00000000E+00  1.60000000E+01  1.00800000E+00  1.00800000E+00
  0.00000000E+00  1.60000000E+01  1.00800000E+00  1.00800000E+00  0.00000000E+00
  1.60000000E+01  1.00800000E+00  1.00800000E+00  0.00000000E+00  1.60000000E+01
  1.00800000E+00  1.00800000E+00  0.00000000E+00  1.60000000E+01  1.00800000E+00
  1.00800000E+00  0.00000000E+00  1.60000000E+01  1.00800000E+00  1.00800000E+00
  0.00000000E+00  1.60000000E+01  1.00800000E+00  1.00800000E+00  0.00000000E+00
  1.60000000E+01  1.00800000E+00  1.00800000E+00  0.00000000E+00  1.60000000E+01
  1.00800000E+00  1.00800000E+00  0.00000000E+00  1.60000000E+01  1.00800000E+00
  1.00800000E+00  0.00000000E+00  1.60000000E+01  1.00800000E+00  1.00800000E+00
  0.00000000E+00  1.60000000E+01  1.00800000E+00  1.00800000E+00  0.00000000E+00
  1.60000000E+01  1.00800000E+00  1.00800000E+00  0.00000000E+00  1.60000000E+01
  1.00800000E+00  1.00800000E+00  0.00000000E+00  1.60000000E+01  1.00800000E+00
  1.00800000E+00  0.00000000E+00  1.60000000E+01  1.00800000E+00  1.00800000E+00
  0.00000000E+00  1.60000000E+01  1.00800000E+00  1.00800000E+00  0.00000000E+00
  1.60000000E+01  1.00800000E+00  1.00800000E+00  0.00000000E+00  1.60000000E+01
  1.00800000E+00  1.00800000E+00  0.00000000E+00  1.60000000E+01  1.00800000E+00
  1.00800000E+00  0.00000000E+00  1.60000000E+01  1.00800000E+00  1.00800000E+00
  0.00000000E+00  1.60000000E+01  1.00800000E+00  1.00800000E+00  0.00000000E+00
  1.60000000E+01  1.00800000E+00  1.00800000E+00  0.00000000E+00  1.60000000E+01
  1.00800000E+00  1.00800000E+00  0.00000000E+00  1.60000000E+01  1.00800000E+00
  1.00800000E+00  0.00000000E+00  1.60000000E+01  1.00800000E+00  1.00800000E+00
  0.00000000E+00  1.60000000E+01  1.00800000E+00  1.00800000E+00  0.00000000E+00
  1.60000000E+01  1.00800000E+00  1.00800000E+00  0.00000000E+00  1.60000000E+01
  1.00800000E+00  1.00800000E+00  0.00000000E+00  1.60000000E+01  1.00800000E+00
  1.00800000E+00  0.00000000E+00  1.60000000E+01  1.00800000E+00  1.00800000E+00
  0.00000000E+00  1.60000000E+01  1.00800000E+00  1.00800000E+00  0.00000000E+00
  1.60000000E+01  1.00800000E+00  1.00800000E+00  0.00000000E+00  1.60000000E+01
  1.00800000E+00  1.00800000E+00  0.00000000E+00  1.60000000E+01  1.00800000E+00
  1.00800000E+00  0.00000000E+00  1.60000000E+01  1.00800000E+00  1.00800000E+00
  0.00000000E+00  1.60000000E+01  1.00800000E+00  1.00800000E+00  0.00000000E+00
  1.60000000E+01  1.00800000E+00  1.00800000E+00  0.00000000E+00  1.60000000E+01
  1.00800000E+00  1.00800000E+00  0.00000000E+00  1.60000000E+01  1.00800000E+00
  1.00800000E+00  0.00000000E+00  1.60000000E+01  1.00800000E+00  1.00800000E+00
  0.00000000E+00  1.60000000E+01  1.00800000E+00  1.00800000E+00  0.00000000E+00
  1.60000000E+01  1.00800000E+00  1.00800000E+00  0.00000000E+00  1.60000000E+01
  1.00800000E+00  1.00800000E+00  0.00000000E+00  1.60000000E+01  1.00800000E+00
  1.00800000E+00  0.00000000E+00  1.60000000E+01  1.00800000E+00  1.00800000E+00
  0.00000000E+00  1.60000000E+01  1.00800000E+00  1.00800000E+00  0.00000000E+00
  1.60000000E+01  1.00800000E+00  1.00800000E+00  0.00000000E+00  1.60000000E+01
  1.00800000E+00  1.00800000E+00  0.00000000E+00  1.60000000E+01  1.00800000E+00
  1.00800000E+00  0.00000000E+00  1.60000000E+01  1.00800000E+00  1.00800000E+00
  0.00000000E+00  1.60000000E+01  1.00800000E+00  1.00800000E+00  0.00000000E+00
  1.60000000E+01  1.00800000E+00  1.00800000E+00  0.00000000E+00  1.60000000E+01
  1.00800000E+00  1.00800000E+00  0.00000000E+00  1.60000000E+01  1.00800000E+00
  1.00800000E+00  0.00000000E+00  1.60000000E+01  1.00800000E+00  1.00800000E+00
  0.00000000E+00  1.60000000E+01  1.00800000E+00  1.00800000E+00  0.00000000E+00
  1.60000000E+01  1.00800000E+00  1.00800000E+00  0.00000000E+00  1.60000000E+01
  1.00800000E+00  1.00800000E+00  0.00000000E+00  1.60000000E+01  1.00800000E+00
  1.00800000E+00  0.00000000E+00  1.60000000E+01  1.00800000E+00  1.00800000E+00
  0.00000000E+00  1.60000000E+01  1.00800000E+00  1.00800000E+00  0.00000000E+00
  1.60000000E+01  1.00800000E+00  1.00800000E+00  0.00000000E+00  1.60000000E+01
  1.00800000E+00  1.00800000E+00  0.00000000E+00  1.60000000E+01  1.00800000E+00
  1.00800000E+00  0.00000000E+00  1.60000000E+01  1.00800000E+00  1.00800000E+00
  0.00000000E+00  1.60000000E+01  1.00800000E+00  1.00800000E+00  0.00000000E+00
  1.60000000E+01  1.00800000E+00  1.00800000E+00  0.00000000E+00  1.60000000E+01
  1.00800000E+00  1.00800000E+00  0.00000000E+00  1.60000000E+01  1.00800000E+00
  1.00800000E+00  0.00000000E+00  1.60000000E+01  1.00800000E+00  1.00800000E+00
  0.00000000E+00  1.60000000E+01  1.00800000E+00  1.00800000E+00  0.00000000E+00
  1.60000000E+01  1.00800000E+00  1.00800000E+00  0.00000000E+00  1.60000000E+01
  1.00800000E+00  1.00800000E+00  0.00000000E+00  1.60000000E+01  1.00800000E+00
  1.00800000E+00  0.00000000E+00  1.60000000E+01  1.00800000E+00  1.00800000E+00
  0.00000000E+00  1.60000000E+01  1.00800000E+00  1.00800000E+00  0.00000000E+00
  1.60000000E+01  1.00800000E+00  1.00800000E+00  0.00000000E+00  1.60000000E+01
  1.00800000E+00  1.00800000E+00  0.00000000E+00  1.60000000E+01  1.00800000E+00
  1.00800000E+00  0.00000000E+00  1.60000000E+01  1.00800000E+00  1.00800000E+00
  0.00000000E+00  1.60000000E+01  1.00800000E+00  1.00800000E+00  0.00000000E+00
  1.60000000E+01  1.00800000E+00  1.00800000E+00  0.00000000E+00  1.60000000E+01
  1.00800000E+00  1.00800000E+00  0.00000000E+00  1.60000000E+01  1.00800000E+00
  1.00800000E+00  0.00000000E+00  1.60000000E+01  1.00800000E+00  1.00800000E+00
  0.00000000E+00  1.60000000E+01  1.00800000E+00  1.00800000E+00  0.00000000E+00
  1.60000000E+01  1.00800000E+00  1.00800000E+00  0.00000000E+00  1.60000000E+01
  1.00800000E+00  1.00800000E+00  0.00000000E+00  1.60000000E+01  1.00800000E+00
  1.00800000E+00  0.00000000E+00  1.60000000E+01  1.00800000E+00  1.00800000E+00
  0.00000000E+00  1.60000000E+01  1.00800000E+00  1.00800000E+00  0.00000000E+00
  1.60000000E+01  1.00800000E+00  1.00800000E+00  0.00000000E+00  1.60000000E+01
  1.00800000E+00  1.00800000E+00  0.00000000E+00  1.60000000E+01  1.00800000E+00
  1.00800000E+00  0.00000000E+00  1.60000000E+01  1.00800000E+00  1.00800000E+00
  0.00000000E+00  1.60000000E+01  1.00800000E+00  1.00800000E+00  0.00000000E+00
  1.60000000E+01  1.00800000E+00  1.00800000E+00  0.00000000E+00  1.60000000E+01
  1.00800000E+00  1.00800000E+00  0.00000000E+00  1.60000000E+01  1.00800000E+00
  1.00800000E+00  0.00000000E+00  1.60000000E+01  1.00800000E+00  1.00800000E+00
  0.00000000E+00  1.60000000E+01  1.00800000E+00  1.00800000E+00  0.00000000E+00
  1.60000000E+01  1.00800000E+00  1.00800000E+00  0.00000000E+00  1.60000000E+01
  1.00800000E+00  1.00800000E+00  0.00000000E+00  1.60000000E+01  1.00800000E+00
  1.00800000E+00  0.00000000E+00  1.60000000E+01  1.00800000E+00  1.00800000E+00
  0.00000000E+00  1.60000000E+01  1.00800000E+00  1.00800000E+00  0.00000000E+00
  1.60000000E+01  1.00800000E+00  1.00800000E+00  0.00000000E+00  1.60000000E+01
  1.00800000E+00  1.00800000E+00  0.00000000E+00  1.60000000E+01  1.00800000E+00
  1.00800000E+00  0.00000000E+00  1.60000000E+01  1.00800000E+00  1.00800000E+00
  0.00000000E+00  1.60000000E+01  1.00800000E+00  1.00800000E+00  0.00000000E+00
  1.60000000E+01  1.00800000E+00  1.00800000E+00  0.00000000E+00  1.60000000E+01
  1.00800000E+00  1.00800000E+00  0.00000000E+00  1.60000000E+01  1.00800000E+00
  1.00800000E+00  0.00000000E+00  1.60000000E+01  1.00800000E+00  1.00800000E+00
  0.00000000E+00  1.60000000E+01  1.00800000E+00  1.00800000E+00  0.00000000E+00
  1.60000000E+01  1.00800000E+00  1.00800000E+00  0.00000000E+00  1.60000000E+01
  1.00800000E+00  1.00800000E+00  0.00000000E+00  1.60000000E+01  1.00800000E+00
  1.00800000E+00  0.00000000E+00  1.60000000E+01  1.00800000E+00  1.00800000E+00
  0.00000000E+00  1.60000000E+01  1.00800000E+00  1.00800000E+00  0.00000000E+00
  1.60000000E+01  1.00800000E+00  1.00800000E+00  0.00000000E+00  1.60000000E+01
  1.00800000E+00  1.00800000E+00  0.00000000E+00  1.60000000E+01  1.00800000E+00
  1.00800000E+00  0.00000000E+00  1.60000000E+01  1.00800000E+00  1.00800000E+00
  0.00000000E+00  1.60000000E+01  1.00800000E+00  1.00800000E+00  0.00000000E+00
  1.60000000E+01  1.00800000E+00  1.00800000E+00  0.00000000E+00  1.60000000E+01
  1.00800000E+00  1.00800000E+00  0.00000000E+00  1.60000000E+01  1.00800000E+00
  1.00800000E+00  0.00000000E+00  1.60000000E+01  1.00800000E+00  1.00800000E+00
  0.00000000E+00  1.60000000E+01  1.00800000E+00  1.00800000E+00  0.00000000E+00
  1.60000000E+01  1.00800000E+00  1.00800000E+00  0.00000000E+00  1.60000000E+01
  1.00800000E+00  1.00800000E+00  0.00000000E+00  1.60000000E+01  1.00800000E+00
  1.00800000E+00  0.00000000E+00  1.60000000E+01  1.00800000E+00  1.00800000E+00
  0.00000000E+00  1.60000000E+01  1.00800000E+00  1.00800000E+00  0.00000000E+00
  1.60000000E+01  1.00800000E+00  1.00800000E+00  0.00000000E+00  1.60000000E+01
  1.00800000E+00  1.00800000E+00  0.00000000E+00  1.60000000E+01  1.00800000E+00
  1.00800000E+00  0.00000000E+00  1.60000000E+01  1.00800000E+00  1.00800000E+00
  0.00000000E+00  1.60000000E+01  1.00800000E+00  1.00800000E+00  0.00000000E+00
  1.60000000E+01  1.00800000E+00  1.00800000E+00  0.00000000E+00  1.60000000E+01
  1.00800000E+00  1.00800000E+00  0.00000000E+00  1.60000000E+01  1.00800000E+00
  1.00800000E+00  0.00000000E+00  1.60000000E+01  1.00800000E+00  1.00800000E+00
  0.00000000E+00  1.60000000E+01  1.00800000E+00  1.00800000E+00  0.00000000E+00
  1.60000000E+01  1.00800000E+00  1.00800000E+00  0.00000000E+00  1.60000000E+01
  1.00800000E+00  1.00800000E+00  0.00000000E+00  1.60000000E+01  1.00800000E+00
  1.00800000E+00  0.00000000E+00  1.60000000E+01  1.00800000E+00  1.00800000E+00
  0.00000000E+00  1.60000000E+01  1.00800000E+00  1.00800000E+00  0.00000000E+00
  1.60000000E+01  1.00800000E+00  1.00800000E+00  0.00000000E+00  1.60000000E+01
  1.00800000E+00  1.00800000E+00  0.00000000E+00  1.60000000E+01  1.00800000E+00
  1.00800000E+00  0.00000000E+00  1.60000000E+01  1.00800000E+00  1.00800000E+00
  0.00000000E+00  1.60000000E+01  1.00800000E+00  1.00800000E+00  0.00000000E+00
  1.60000000E+01  1.00800000E+00  1.00800000E+00  0.00000000E+00  1.60000000E+01
  1.00800000E+00  1.00800000E+00  0.00000000E+00  1.60000000E+01  1.00800000E+00
  1.00800000E+00  0.00000000E+00  1.60000000E+01  1.00800000E+00  1.00800000E+00
  0.00000000E+00  1.60000000E+01  1.00800000E+00  1.00800000E+00  0.00000000E+00
  1.60000000E+01  1.00800000E+00  1.00800000E+00  0.00000000E+00  1.60000000E+01
  1.00800000E+00  1.00800000E+00  0.00000000E+00  1.60000000E+01  1.00800000E+00
  1.00800000E+00  0.00000000E+00  1.60000000E+01  1.00800000E+00  1.00800000E+00
  0.00000000E+00  1.60000000E+01  1.00800000E+00  1.00800000E+00  0.00000000E+00
  1.60000000E+01  1.00800000E+00  1.00800000E+00  0.00000000E+00  1.60000000E+01
  1.00800000E+00  1.00800000E+00  0.00000000E+00  1.60000000E+01  1.00800000E+00
  1.00800000E+00  0.00000000E+00  1.60000000E+01  1.00800000E+00  1.00800000E+00
  0.00000000E+00  1.60000000E+01  1.00800000E+00  1.00800000E+00  0.00000000E+00
  1.60000000E+01  1.00800000E+00  1.00800000E+00  0.00000000E+00  1.60000000E+01
  1.00800000E+00  1.00800000E+00  0.00000000E+00  1.60000000E+01  1.00800000E+00
  1.00800000E+00  0.00000000E+00  1.60000000E+01  1.00800000E+00  1.00800000E+00
  0.00000000E+00  1.60000000E+01  1.00800000E+00  1.00800000E+00  0.00000000E+00
  1.60000000E+01  1.00800000E+00  1.00800000E+00  0.00000000E+00  1.60000000E+01
  1.00800000E+00  1.00800000E+00  0.00000000E+00  1.60000000E+01  1.00800000E+00
  1.00800000E+00  0.00000000E+00  1.60000000E+01  1.00800000E+00  1.00800000E+00
  0.00000000E+00  1.60000000E+01  1.00800000E+00  1.00800000E+00  0.00000000E+00
  1.60000000E+01  1.00800000E+00  1.00800000E+00  0.00000000E+00  1.60000000E+01
  1.00800000E+00  1.00800000E+00  0.00000000E+00  1.60000000E+01  1.00800000E+00
  1.00800000E+00  0.00000000E+00  1.60000000E+01  1.00800000E+00  1.00800000E+00
  0.00000000E+00  1.60000000E+01  1.00800000E+00  1.00800000E+00  0.00000000E+00
  1.60000000E+01  1.00800000E+00  1.00800000E+00  0.00000000E+00  1.60000000E+01
  1.00800000E+00  1.00800000E+00  0.00000000E+00  1.60000000E+01  1.00800000E+00
  1.00800000E+00  0.00000000E+00  1.60000000E+01  1.00800000E+00  1.00800000E+00
  0.00000000E+00  1.60000000E+01  1.00800000E+00  1.00800000E+00  0.00000000E+00
  1.60000000E+01  1.00800000E+00  1.00800000E+00  0.00000000E+00  1.60000000E+01
  1.00800000E+00  1.00800000E+00  0.00000000E+00  1.60000000E+01  1.00800000E+00
  1.00800000E+00  0.00000000E+00  1.60000000E+01  1.00800000E+00  1.00800000E+00
  0.00000000E+00  1.60000000E+01  1.00800000E+00  1.00800000E+00  0.00000000E+00
  1.60000000E+01  1.00800000E+00  1.00800000E+00  0.00000000E+00  1.60000000E+01
  1.00800000E+00  1.00800000E+00  0.00000000E+00  1.60000000E+01  1.00800000E+00
  1.00800000E+00  0.00000000E+00  1.60000000E+01  1.00800000E+00  1.00800000E+00
  0.00000000E+00  1.60000000E+01  1.00800000E+00  1.00800000E+00  0.00000000E+00
  1.60000000E+01  1.00800000E+00  1.00800000E+00  0.00000000E+00  1.60000000E+01
  1.00800000E+00  1.00800000E+00  0.00000000E+00  1.60000000E+01  1.00800000E+00
  1.00800000E+00  0.00000000E+00  1.60000000E+01  1.00800000E+00  1.00800000E+00
  0.00000000E+00  1.60000000E+01  1.00800000E+00  1.00800000E+00  0.00000000E+00
  1.60000000E+01  1.00800000E+00  1.00800000E+00  0.00000000E+00  1.60000000E+01
  1.00800000E+00  1.00800000E+00  0.00000000E+00  1.60000000E+01  1.00800000E+00
  1.00800000E+00  0.00000000E+00  1.60000000E+01  1.00800000E+00  1.00800000E+00
  0.00000000E+00  1.60000000E+01  1.00800000E+00  1.00800000E+00  0.00000000E+00
  1.60000000E+01  1.00800000E+00  1.00800000E+00  0.00000000E+00  1.60000000E+01
  1.00800000E+00  1.00800000E+00  0.00000000E+00  1.60000000E+01  1.00800000E+00
  1.00800000E+00  0.00000000E+00  1.60000000E+01  1.00800000E+00  1.00800000E+00
  0.00000000E+00  1.60000000E+01  1.00800000E+00  1.00800000E+00  0.00000000E+00
  1.60000000E+01  1.00800000E+00  1.00800000E+00  0.00000000E+00  1.60000000E+01
  1.00800000E+00  1.00800000E+00  0.00000000E+00  1.60000000E+01  1.00800000E+00
  1.00800000E+00  0.00000000E+00  1.60000000E+01  1.00800000E+00  1.00800000E+00
  0.00000000E+00  1.60000000E+01  1.00800000E+00  1.00800000E+00  0.00000000E+00
  1.60000000E+01  1.00800000E+00  1.00800000E+00  0.00000000E+00  1.60000000E+01
  1.00800000E+00  1.00800000E+00  0.00000000E+00  1.60000000E+01  1.00800000E+00
  1.00800000E+00  0.00000000E+00  1.60000000E+01  1.00800000E+00  1.00800000E+00
  0.00000000E+00  1.60000000E+01  1.00800000E+00  1.00800000E+00  0.00000000E+00
  1.60000000E+01  1.00800000E+00  1.00800000E+00  0.00000000E+00  1.60000000E+01
  1.00800000E+00  1.00800000E+00  0.00000000E+00  1.60000000E+01  1.00800000E+00
  1.00800000E+00  0.00000000E+00  1.60000000E+01  1.00800000E+00  1.00800000E+00
  0.00000000E+00  1.60000000E+01  1.00800000E+00  1.00800000E+00  0.00000000E+00
  1.60000000E+01  1.00800000E+00  1.00800000E+00  0.00000000E+00  1.60000000E+01
  1.00800000E+00  1.00800000E+00  0.00000000E+00  1.60000000E+01  1.00800000E+00
  1.00800000E+00  0.00000000E+00  1.60000000E+01  1.00800000E+00  1.00800000E+00
  0.00000000E+00  1.60000000E+01  1.00800000E+00  1.00800000E+00  0.00000000E+00
  1.60000000E+01  1.00800000E+00  1.00800000E+00  0.00000000E+00  1.60000000E+01
  1.00800000E+00  1.00800000E+00  0.00000000E+00  1.60000000E+01  1.00800000E+00
  1.00800000E+00  0.00000000E+00  1.60000000E+01  1.00800000E+00  1.00800000E+00
  0.00000000E+00  1.60000000E+01  1.00800000E+00  1.00800000E+00  0.00000000E+00
  1.60000000E+01  1.00800000E+00  1.00800000E+00  0.00000000E+00  1.60000000E+01
  1.00800000E+00  1.00800000E+00  0.00000000E+00  1.60000000E+01  1.00800000E+00
  1.00800000E+00  0.00000000E+00  1.60000000E+01  1.00800000E+00  1.00800000E+00
  0.00000000E+00  1.60000000E+01  1.00800000E+00  1.00800000E+00  0.00000000E+00
  1.60000000E+01  1.00800000E+00  1.00800000E+00  0.00000000E+00  1.60000000E+01
  1.00800000E+00  1.00800000E+00  0.00000000E+00  1.60000000E+01  1.00800000E+00
  1.00800000E+00  0.00000000E+00  1.60000000E+01  1.00800000E+00  1.00800000E+00
  0.00000000E+00  1.60000000E+01  1.00800000E+00  1.00800000E+00  0.00000000E+00
  1.60000000E+01  1.00800000E+00  1.00800000E+00  0.00000000E+00  1.60000000E+01
  1.00800000E+00  1.00800000E+00  0.00000000E+00  1.60000000E+01  1.00800000E+00
  1.00800000E+00  0.00000000E+00  1.60000000E+01  1.00800000E+00  1.00800000E+00
  0.00000000E+00  1.60000000E+01  1.00800000E+00  1.00800000E+00  0.00000000E+00
  1.60000000E+01  1.00800000E+00  1.00800000E+00  0.00000000E+00  1.60000000E+01
  1.00800000E+00  1.00800000E+00  0.00000000E+00  1.60000000E+01  1.00800000E+00
  1.00800000E+00  0.00000000E+00  1.60000000E+01  1.00800000E+00  1.00800000E+00
  0.00000000E+00  1.60000000E+01  1.00800000E+00  1.00800000E+00  0.00000000E+00
  1.60000000E+01  1.00800000E+00  1.00800000E+00  0.00000000E+00  1.60000000E+01
  1.00800000E+00  1.00800000E+00  0.00000000E+00  1.60000000E+01  1.00800000E+00
  1.00800000E+00  0.00000000E+00  1.60000000E+01  1.00800000E+00  1.00800000E+00
  0.00000000E+00  1.60000000E+01  1.00800000E+00  1.00800000E+00  0.00000000E+00
  1.60000000E+01  1.00800000E+00  1.00800000E+00  0.00000000E+00  1.60000000E+01
  1.00800000E+00  1.00800000E+00  0.00000000E+00  1.60000000E+01  1.00800000E+00
  1.00800000E+00  0.00000000E+00  1.60000000E+01  1.00800000E+00  1.00800000E+00
  0.00000000E+00  1.60000000E+01  1.00800000E+00  1.00800000E+00  0.00000000E+00
  1.60000000E+01  1.00800000E+00  1.00800000E+00  0.00000000E+00  1.60000000E+01
  1.00800000E+00  1.00800000E+00  0.00000000E+00  1.60000000E+01  1.00800000E+00
  1.00800000E+00  0.00000000E+00  1.60000000E+01  1.00800000E+00  1.00800000E+00
  0.00000000E+00  1.60000000E+01  1.00800000E+00  1.00800000E+00  0.00000000E+00
  1.60000000E+01  1.00800000E+00  1.00800000E+00  0.00000000E+00  1.60000000E+01
  1.00800000E+00  1.00800000E+00  0.00000000E+00  1.60000000E+01  1.00800000E+00
  1.00800000E+00  0.00000000E+00  1.60000000E+01  1.00800000E+00  1.00800000E+00
  0.00000000E+00  1.60000000E+01  1.00800000E+00  1.00800000E+00  0.00000000E+00
  1.60000000E+01  1.00800000E+00  1.00800000E+00  0.00000000E+00  1.60000000E+01
  1.00800000E+00  1.00800000E+00  0.00000000E+00  1.60000000E+01  1.00800000E+00
  1.00800000E+00  0.00000000E+00  1.60000000E+01  1.00800000E+00  1.00800000E+00
  0.00000000E+00  1.60000000E+01  1.00800000E+00  1.00800000E+00  0.00000000E+00
  1.60000000E+01  1.00800000E+00  1.00800000E+00  0.00000000E+00  1.60000000E+01
  1.00800000E+00  1.00800000E+00  0.00000000E+00  1.60000000E+01  1.00800000E+00
  1.00800000E+00  0.00000000E+00  1.60000000E+01  1.00800000E+00  1.00800000E+00
  0.00000000E+00  1.60000000E+01  1.00800000E+00  1.00800000E+00  0.00000000E+00
  1.60000000E+01  1.00800000E+00  1.00800000E+00  0.00000000E+00  1.60000000E+01
  1.00800000E+00  1.00800000E+00  0.00000000E+00  1.60000000E+01  1.00800000E+00
  1.00800000E+00  0.00000000E+00  1.60000000E+01  1.00800000E+00  1.00800000E+00
  0.00000000E+00  1.60000000E+01  1.00800000E+00  1.00800000E+00  0.00000000E+00
  1.60000000E+01  1.00800000E+00  1.00800000E+00  0.00000000E+00  1.60000000E+01
  1.00800000E+00  1.00800000E+00  0.00000000E+00  1.60000000E+01  1.00800000E+00
  1.00800000E+00  0.00000000E+00  1.60000000E+01  1.00800000E+00  1.00800000E+00
  0.00000000E+00  1.60000000E+01  1.00800000E+00  1.00800000E+00  0.00000000E+00
  1.60000000E+01  1.00800000E+00  1.00800000E+00  0.00000000E+00  1.60000000E+01
  1.00800000E+00  1.00800000E+00  0.00000000E+00  1.60000000E+01  1.00800000E+00
  1.00800000E+00  0.00000000E+00  1.60000000E+01  1.00800000E+00  1.00800000E+00
  0.00000000E+00  1.60000000E+01  1.00800000E+00  1.00800000E+00  0.00000000E+00
  1.60000000E+01  1.00800000E+00  1.00800000E+00  0.00000000E+00  1.60000000E+01
  1.00800000E+00  1.00800000E+00  0.00000000E+00  1.60000000E+01  1.00800000E+00
  1.00800000E+00  0.00000000E+00  1.60000000E+01  1.00800000E+00  1.00800000E+00
  0.00000000E+00  1.60000000E+01  1.00800000E+00  1.00800000E+00  0.00000000E+00
  1.60000000E+01  1.00800000E+00  1.00800000E+00  0.00000000E+00  1.60000000E+01
  1.00800000E+00  1.00800000E+00  0.00000000E+00  1.60000000E+01  1.00800000E+00
  1.00800000E+00  0.00000000E+00  1.60000000E+01  1.00800000E+00  1.00800000E+00
  0.00000000E+00  1.60000000E+01  1.00800000E+00  1.00800000E+00  0.00000000E+00
  1.60000000E+01  1.00800000E+00  1.00800000E+00  0.00000000E+00  1.60000000E+01
  1.00800000E+00  1.00800000E+00  0.00000000E+00  1.60000000E+01  1.00800000E+00
  1.00800000E+00  0.00000000E+00  1.60000000E+01  1.00800000E+00  1.00800000E+00
  0.00000000E+00  1.60000000E+01  1.00800000E+00  1.00800000E+00  0.00000000E+00
  1.60000000E+01  1.00800000E+00  1.00800000E+00  0.00000000E+00  1.60000000E+01
  1.00800000E+00  1.00800000E+00  0.00000000E+00  1.60000000E+01  1.00800000E+00
  1.00800000E+00  0.00000000E+00  1.60000000E+01  1.00800000E+00  1.00800000E+00
  0.00000000E+00  1.60000000E+01  1.00800000E+00  1.00800000E+00  0.00000000E+00
  1.60000000E+01  1.00800000E+00  1.00800000E+00  0.00000000E+00  1.60000000E+01
  1.00800000E+00  1.00800000E+00  0.00000000E+00  1.60000000E+01  1.00800000E+00
  1.00800000E+00  0.00000000E+00  1.60000000E+01  1.00800000E+00  1.00800000E+00
  0.00000000E+00  1.60000000E+01  1.00800000E+00  1.00800000E+00  0.00000000E+00
  1.60000000E+01  1.00800000E+00  1.00800000E+00  0.00000000E+00  1.60000000E+01
  1.00800000E+00  1.00800000E+00  0.00000000E+00  1.60000000E+01  1.00800000E+00
  1.00800000E+00  0.00000000E+00  1.60000000E+01  1.00800000E+00  1.00800000E+00
  0.00000000E+00  1.60000000E+01  1.00800000E+00  1.00800000E+00  0.00000000E+00
  1.60000000E+01  1.00800000E+00  1.00800000E+00  0.00000000E+00  1.60000000E+01
  1.00800000E+00  1.00800000E+00  0.00000000E+00  1.60000000E+01  1.00800000E+00
  1.00800000E+00  0.00000000E+00  1.60000000E+01  1.00800000E+00  1.00800000E+00
  0.00000000E+00  1.60000000E+01  1.00800000E+00  1.00800000E+00  0.00000000E+00
  1.60000000E+01  1.00800000E+00  1.00800000E+00  0.00000000E+00  1.60000000E+01
  1.00800000E+00  1.00800000E+00  0.00000000E+00  1.60000000E+01  1.00800000E+00
  1.00800000E+00  0.00000000E+00  1.60000000E+01  1.00800000E+00  1.00800000E+00
  0.00000000E+00  1.60000000E+01  1.00800000E+00  1.00800000E+00  0.00000000E+00
  1.60000000E+01  1.00800000E+00  1.00800000E+00  0.00000000E+00  1.60000000E+01
  1.00800000E+00  1.00800000E+00  0.00000000E+00  1.60000000E+01  1.00800000E+00
  1.00800000E+00  0.00000000E+00  1.60000000E+01  1.00800000E+00  1.00800000E+00
  0.00000000E+00  1.60000000E+01  1.00800000E+00  1.00800000E+00  0.00000000E+00
  1.60000000E+01  1.00800000E+00  1.00800000E+00  0.00000000E+00  1.60000000E+01
  1.00800000E+00  1.00800000E+00  0.00000000E+00  1.60000000E+01  1.00800000E+00
  1.00800000E+00  0.00000000E+00  1.60000000E+01  1.00800000E+00  1.00800000E+00
  0.00000000E+00  1.60000000E+01  1.00800000E+00  1.00800000E+00  0.00000000E+00
  1.60000000E+01  1.00800000E+00  1.00800000E+00  0.00000000E+00  1.60000000E+01
  1.00800000E+00  1.00800000E+00  0.00000000E+00  1.60000000E+01  1.00800000E+00
  1.00800000E+00  0.00000000E+00  1.60000000E+01  1.00800000E+00  1.00800000E+00
  0.00000000E+00  1.60000000E+01  1.00800000E+00  1.00800000E+00  0.00000000E+00
  1.60000000E+01  1.00800000E+00  1.00800000E+00  0.00000000E+00  1.60000000E+01
  1.00800000E+00  1.00800000E+00  0.00000000E+00  1.60000000E+01  1.00800000E+00
  1.00800000E+00  0.00000000E+00  1.60000000E+01  1.00800000E+00  1.00800000E+00
  0.00000000E+00  1.60000000E+01  1.00800000E+00  1.00800000E+00  0.00000000E+00
  1.60000000E+01  1.00800000E+00  1.00800000E+00  0.00000000E+00  1.60000000E+01
  1.00800000E+00  1.00800000E+00  0.00000000E+00  1.60000000E+01  1.00800000E+00
  1.00800000E+00  0.00000000E+00  1.60000000E+01  1.00800000E+00  1.00800000E+00
  0.00000000E+00  1.60000000E+01  1.00800000E+00  1.00800000E+00  0.00000000E+00
  1.60000000E+01  1.00800000E+00  1.00800000E+00  0.00000000E+00  1.60000000E+01
  1.00800000E+00  1.00800000E+00  0.00000000E+00  1.60000000E+01  1.00800000E+00
  1.00800000E+00  0.00000000E+00  1.60000000E+01  1.00800000E+00  1.00800000E+00
  0.00000000E+00  1.60000000E+01  1.00800000E+00  1.00800000E+00  0.00000000E+00
  1.60000000E+01  1.00800000E+00  1.00800000E+00  0.00000000E+00  1.60000000E+01
  1.00800000E+00  1.00800000E+00  0.00000000E+00  1.60000000E+01  1.00800000E+00
  1.00800000E+00  0.00000000E+00  1.60000000E+01  1.00800000E+00  1.00800000E+00
  0.00000000E+00  1.60000000E+01  1.00800000E+00  1.00800000E+00  0.00000000E+00
  1.60000000E+01  1.00800000E+00  1.00800000E+00  0.00000000E+00  1.60000000E+01
  1.00800000E+00  1.00800000E+00  0.00000000E+00  1.60000000E+01  1.00800000E+00
  1.00800000E+00  0.00000000E+00  1.60000000E+01  1.00800000E+00  1.00800000E+00
  0.00000000E+00  1.60000000E+01  1.00800000E+00  1.00800000E+00  0.00000000E+00
  1.60000000E+01  1.00800000E+00  1.00800000E+00  0.00000000E+00  1.60000000E+01
  1.00800000E+00  1.00800000E+00  0.00000000E+00  1.60000000E+01  1.00800000E+00
  1.00800000E+00  0.00000000E+00  1.60000000E+01  1.00800000E+00  1.00800000E+00
  0.00000000E+00  1.60000000E+01  1.00800000E+00  1.00800000E+00  0.00000000E+00
  1.60000000E+01  1.00800000E+00  1.00800000E+00  0.00000000E+00  1.60000000E+01
  1.00800000E+00  1.00800000E+00  0.00000000E+00  1.60000000E+01  1.00800000E+00
  1.00800000E+00  0.00000000E+00  1.60000000E+01  1.00800000E+00  1.00800000E+00
  0.00000000E+00  1.60000000E+01  1.00800000E+00  1.00800000E+00  0.00000000E+00
  1.60000000E+01  1.00800000E+00  1.00800000E+00  0.00000000E+00  1.60000000E+01
  1.00800000E+00  1.00800000E+00  0.00000000E+00  1.60000000E+01  1.00800000E+00
  1.00800000E+00  0.00000000E+00  1.60000000E+01  1.00800000E+00  1.00800000E+00
  0.00000000E+00  1.60000000E+01  1.00800000E+00  1.00800000E+00  0.00000000E+00
  1.60000000E+01  1.00800000E+00  1.00800000E+00  0.00000000E+00  1.60000000E+01
  1.00800000E+00  1.00800000E+00  0.00000000E+00  1.60000000E+01  1.00800000E+00
  1.00800000E+00  0.00000000E+00  1.60000000E+01  1.00800000E+00  1.00800000E+00
  0.00000000E+00  1.60000000E+01  1.00800000E+00  1.00800000E+00  0.00000000E+00
  1.60000000E+01  1.00800000E+00  1.00800000E+00  0.00000000E+00  1.60000000E+01
  1.00800000E+00  1.00800000E+00  0.00000000E+00  1.60000000E+01  1.00800000E+00
  1.00800000E+00  0.00000000E+00  1.60000000E+01  1.00800000E+00  1.00800000E+00
  0.00000000E+00  1.60000000E+01  1.00800000E+00  1.00800000E+00  0.00000000E+00
  1.60000000E+01  1.00800000E+00  1.00800000E+00  0.00000000E+00  1.60000000E+01
  1.00800000E+00  1.00800000E+00  0.00000000E+00  1.60000000E+01  1.00800000E+00
  1.00800000E+00  0.00000000E+00  1.60000000E+01  1.00800000E+00  1.00800000E+00
  0.00000000E+00  1.60000000E+01  1.00800000E+00  1.00800000E+00  0.00000000E+00
  1.60000000E+01  1.00800000E+00  1.00800000E+00  0.00000000E+00  1.60000000E+01
  1.00800000E+00  1.00800000E+00  0.00000000E+00  1.60000000E+01  1.00800000E+00
  1.00800000E+00  0.00000000E+00  1.60000000E+01  1.00800000E+00  1.00800000E+00
  0.00000000E+00  1.60000000E+01  1.00800000E+00  1.00800000E+00  0.00000000E+00
  1.60000000E+01  1.00800000E+00  1.00800000E+00  0.00000000E+00  1.60000000E+01
  1.00800000E+00  1.00800000E+00  0.00000000E+00  1.60000000E+01  1.00800000E+00
  1.00800000E+00  0.00000000E+00  1.60000000E+01  1.00800000E+00  1.00800000E+00
  0.00000000E+00  1.60000000E+01  1.00800000E+00  1.00800000E+00  0.00000000E+00
  1.60000000E+01  1.00800000E+00  1.00800000E+00  0.00000000E+00  1.60000000E+01
  1.00800000E+00  1.00800000E+00  0.00000000E+00  1.60000000E+01  1.00800000E+00
  1.00800000E+00  0.00000000E+00  1.60000000E+01  1.00800000E+00  1.00800000E+00
  0.00000000E+00  1.60000000E+01  1.00800000E+00  1.00800000E+00  0.00000000E+00
  1.60000000E+01  1.00800000E+00  1.00800000E+00  0.00000000E+00  1.60000000E+01
  1.00800000E+00  1.00800000E+00  0.00000000E+00  1.60000000E+01  1.00800000E+00
  1.00800000E+00  0.00000000E+00  1.60000000E+01  1.00800000E+00  1.00800000E+00
  0.00000000E+00  1.60000000E+01  1.00800000E+00  1.00800000E+00  0.00000000E+00
  1.60000000E+01  1.00800000E+00  1.00800000E+00  0.00000000E+00  1.60000000E+01
  1.00800000E+00  1.00800000E+00  0.00000000E+00  1.60000000E+01  1.00800000E+00
  1.00800000E+00  0.00000000E+00  1.60000000E+01  1.00800000E+00  1.00800000E+00
  0.00000000E+00  1.60000000E+01  1.00800000E+00  1.00800000E+00  0.00000000E+00
  1.60000000E+01  1.00800000E+00  1.00800000E+00  0.00000000E+00  1.60000000E+01
  1.00800000E+00  1.00800000E+00  0.00000000E+00  1.60000000E+01  1.00800000E+00
  1.00800000E+00  0.00000000E+00  1.60000000E+01  1.00800000E+00  1.00800000E+00
  0.00000000E+00  1.60000000E+01  1.00800000E+00  1.00800000E+00  0.00000000E+00
  1.60000000E+01  1.00800000E+00  1.00800000E+00  0.00000000E+00  1.60000000E+01
  1.00800000E+00  1.00800000E+00  0.00000000E+00  1.60000000E+01  1.00800000E+00
  1.00800000E+00  0.00000000E+00  1.60000000E+01  1.00800000E+00  1.00800000E+00
  0.00000000E+00  1.60000000E+01  1.00800000E+00  1.00800000E+00  0.00000000E+00
  1.60000000E+01  1.00800000E+00  1.00800000E+00  0.00000000E+00  1.60000000E+01
  1.00800000E+00  1.00800000E+00  0.00000000E+00  1.60000000E+01  1.00800000E+00
  1.00800000E+00  0.00000000E+00  1.60000000E+01  1.00800000E+00  1.00800000E+00
  0.00000000E+00  1.60000000E+01  1.00800000E+00  1.00800000E+00  0.00000000E+00
  1.60000000E+01  1.00800000E+00  1.00800000E+00  0.00000000E+00  1.60000000E+01
  1.00800000E+00  1.00800000E+00  0.00000000E+00  1.60000000E+01  1.00800000E+00
  1.00800000E+00  0.00000000E+00  1.60000000E+01  1.00800000E+00  1.00800000E+00
  0.00000000E+00  1.60000000E+01  1.00800000E+00  1.00800000E+00  0.00000000E+00
  1.60000000E+01  1.00800000E+00  1.00800000E+00  0.00000000E+00  1.60000000E+01
  1.00800000E+00  1.00800000E+00  0.00000000E+00  1.60000000E+01  1.00800000E+00
  1.00800000E+00  0.00000000E+00  1.60000000E+01  1.00800000E+00  1.00800000E+00
  0.00000000E+00  1.60000000E+01  1.00800000E+00  1.00800000E+00  0.00000000E+00
  1.60000000E+01  1.00800000E+00  1.00800000E+00  0.00000000E+00  1.60000000E+01
  1.00800000E+00  1.00800000E+00  0.00000000E+00  1.60000000E+01  1.00800000E+00
  1.00800000E+00  0.00000000E+00  1.60000000E+01  1.00800000E+00  1.00800000E+00
  0.00000000E+00  1.60000000E+01  1.00800000E+00  1.00800000E+00  0.00000000E+00
  1.60000000E+01  1.00800000E+00  1.00800000E+00  0.00000000E+00  1.60000000E+01
  1.00800000E+00  1.00800000E+00  0.00000000E+00  1.60000000E+01  1.00800000E+00
  1.00800000E+00  0.00000000E+00  1.60000000E+01  1.00800000E+00  1.00800000E+00
  0.00000000E+00  1.60000000E+01  1.00800000E+00  1.00800000E+00  0.00000000E+00
  1.60000000E+01  1.00800000E+00  1.00800000E+00  0.00000000E+00  1.60000000E+01
  1.00800000E+00  1.00800000E+00  0.00000000E+00  1.60000000E+01  1.00800000E+00
  1.00800000E+00  0.00000000E+00  1.60000000E+01  1.00800000E+00  1.00800000E+00
  0.00000000E+00  1.60000000E+01  1.00800000E+00  1.00800000E+00  0.00000000E+00
  1.60000000E+01  1.00800000E+00  1.00800000E+00  0.00000000E+00  1.60000000E+01
  1.00800000E+00  1.00800000E+00  0.00000000E+00  1.60000000E+01  1.00800000E+00
  1.00800000E+00  0.00000000E+00  1.60000000E+01  1.00800000E+00  1.00800000E+00
  0.00000000E+00  1.60000000E+01  1.00800000E+00  1.00800000E+00  0.00000000E+00
  1.60000000E+01  1.00800000E+00  1.00800000E+00  0.00000000E+00  1.60000000E+01
  1.00800000E+00  1.00800000E+00  0.00000000E+00  1.60000000E+01  1.00800000E+00
  1.00800000E+00  0.00000000E+00  1.60000000E+01  1.00800000E+00  1.00800000E+00
  0.00000000E+00  1.60000000E+01  1.00800000E+00  1.00800000E+00  0.00000000E+00
  1.60000000E+01  1.00800000E+00  1.00800000E+00  0.00000000E+00  1.60000000E+01
  1.00800000E+00  1.00800000E+00  0.00000000E+00  1.60000000E+01  1.00800000E+00
  1.00800000E+00  0.00000000E+00  1.60000000E+01  1.00800000E+00  1.00800000E+00
  0.00000000E+00  1.60000000E+01  1.00800000E+00  1.00800000E+00  0.00000000E+00
  1.60000000E+01  1.00800000E+00  1.00800000E+00  0.00000000E+00  1.60000000E+01
  1.00800000E+00  1.00800000E+00  0.00000000E+00  1.60000000E+01  1.00800000E+00
  1.00800000E+00  0.00000000E+00  1.60000000E+01  1.00800000E+00  1.00800000E+00
  0.00000000E+00  1.60000000E+01  1.00800000E+00  1.00800000E+00  0.00000000E+00
  1.60000000E+01  1.00800000E+00  1.00800000E+00  0.00000000E+00  1.60000000E+01
  1.00800000E+00  1.00800000E+00  0.00000000E+00  1.60000000E+01  1.00800000E+00
  1.00800000E+00  0.00000000E+00  1.60000000E+01  1.00800000E+00  1.00800000E+00
  0.00000000E+00  1.60000000E+01  1.00800000E+00  1.00800000E+00  0.00000000E+00
  1.60000000E+01  1.00800000E+00  1.00800000E+00  0.00000000E+00  1.60000000E+01
  1.00800000E+00  1.00800000E+00  0.00000000E+00  1.60000000E+01  1.00800000E+00
  1.00800000E+00  0.00000000E+00  1.60000000E+01  1.00800000E+00  1.00800000E+00
  0.00000000E+00  1.60000000E+01  1.00800000E+00  1.00800000E+00  0.00000000E+00
  1.60000000E+01  1.00800000E+00  1.00800000E+00  0.00000000E+00  1.60000000E+01
  1.00800000E+00  1.00800000E+00  0.00000000E+00  1.60000000E+01  1.00800000E+00
  1.00800000E+00  0.00000000E+00  1.60000000E+01  1.00800000E+00  1.00800000E+00
  0.00000000E+00  1.60000000E+01  1.00800000E+00  1.00800000E+00  0.00000000E+00
  1.60000000E+01  1.00800000E+00  1.00800000E+00  0.00000000E+00  1.60000000E+01
  1.00800000E+00  1.00800000E+00  0.00000000E+00  1.60000000E+01  1.00800000E+00
  1.00800000E+00  0.00000000E+00  1.60000000E+01  1.00800000E+00  1.00800000E+00
  0.00000000E+00  1.60000000E+01  1.00800000E+00  1.00800000E+00  0.00000000E+00
  1.60000000E+01  1.00800000E+00  1.00800000E+00  0.00000000E+00  1.60000000E+01
  1.00800000E+00  1.00800000E+00  0.00000000E+00  1.60000000E+01  1.00800000E+00
  1.00800000E+00  0.00000000E+00  1.60000000E+01  1.00800000E+00  1.00800000E+00
  0.00000000E+00  1.60000000E+01  1.00800000E+00  1.00800000E+00  0.00000000E+00
  1.60000000E+01  1.00800000E+00  1.00800000E+00  0.00000000E+00  1.60000000E+01
  1.00800000E+00  1.00800000E+00  0.00000000E+00  1.60000000E+01  1.00800000E+00
  1.00800000E+00  0.00000000E+00  1.60000000E+01  1.00800000E+00  1.00800000E+00
  0.00000000E+00  1.60000000E+01  1.00800000E+00  1.00800000E+00  0.00000000E+00
  1.60000000E+01  1.00800000E+00  1.00800000E+00  0.00000000E+00  1.60000000E+01
  1.00800000E+00  1.00800000E+00  0.00000000E+00  1.60000000E+01  1.00800000E+00
  1.00800000E+00  0.00000000E+00  1.60000000E+01  1.00800000E+00  1.00800000E+00
  0.00000000E+00  1.60000000E+01  1.00800000E+00  1.00800000E+00  0.00000000E+00
  1.60000000E+01  1.00800000E+00  1.00800000E+00  0.00000000E+00  1.60000000E+01
  1.00800000E+00  1.00800000E+00  0.00000000E+00  1.60000000E+01  1.00800000E+00
  1.00800000E+00  0.00000000E+00  1.60000000E+01  1.00800000E+00  1.00800000E+00
  0.00000000E+00  1.60000000E+01  1.00800000E+00  1.00800000E+00  0.00000000E+00
  1.60000000E+01  1.00800000E+00  1.00800000E+00  0.00000000E+00  1.60000000E+01
  1.00800000E+00  1.00800000E+00  0.00000000E+00  1.60000000E+01  1.00800000E+00
  1.00800000E+00  0.00000000E+00  1.60000000E+01  1.00800000E+00  1.00800000E+00
  0.00000000E+00  1.60000000E+01  1.00800000E+00  1.00800000E+00  0.00000000E+00
  1.60000000E+01  1.00800000E+00  1.00800000E+00  0.00000000E+00  1.60000000E+01
  1.00800000E+00  1.00800000E+00  0.00000000E+00  1.60000000E+01  1.00800000E+00
  1.00800000E+00  0.00000000E+00  1.60000000E+01  1.00800000E+00  1.00800000E+00
  0.00000000E+00  1.60000000E+01  1.00800000E+00  1.00800000E+00  0.00000000E+00
  1.60000000E+01  1.00800000E+00  1.00800000E+00  0.00000000E+00  1.60000000E+01
  1.00800000E+00  1.00800000E+00  0.00000000E+00  1.60000000E+01  1.00800000E+00
  1.00800000E+00  0.00000000E+00  1.60000000E+01  1.00800000E+00  1.00800000E+00
  0.00000000E+00  1.60000000E+01  1.00800000E+00  1.00800000E+00  0.00000000E+00
  1.60000000E+01  1.00800000E+00  1.00800000E+00  0.00000000E+00  1.60000000E+01
  1.00800000E+00  1.00800000E+00  0.00000000E+00  1.60000000E+01  1.00800000E+00
  1.00800000E+00  0.00000000E+00  1.60000000E+01  1.00800000E+00  1.00800000E+00
  0.00000000E+00  1.60000000E+01  1.00800000E+00  1.00800000E+00  0.00000000E+00
  1.60000000E+01  1.00800000E+00  1.00800000E+00  0.00000000E+00  1.60000000E+01
  1.00800000E+00  1.00800000E+00  0.00000000E+00  1.60000000E+01  1.00800000E+00
  1.00800000E+00  0.00000000E+00  1.60000000E+01  1.00800000E+00  1.00800000E+00
  0.00000000E+00  1.60000000E+01  1.00800000E+00  1.00800000E+00  0.00000000E+00
  1.60000000E+01  1.00800000E+00  1.00800000E+00  0.00000000E+00  1.60000000E+01
  1.00800000E+00  1.00800000E+00  0.00000000E+00  1.60000000E+01  1.00800000E+00
  1.00800000E+00  0.00000000E+00  1.60000000E+01  1.00800000E+00  1.00800000E+00
  0.00000000E+00  1.60000000E+01  1.00800000E+00  1.00800000E+00  0.00000000E+00
  1.60000000E+01  1.00800000E+00  1.00800000E+00  0.00000000E+00  1.60000000E+01
  1.00800000E+00  1.00800000E+00  0.00000000E+00  1.60000000E+01  1.00800000E+00
  1.00800000E+00  0.00000000E+00  1.60000000E+01  1.00800000E+00  1.00800000E+00
  0.00000000E+00  1.60000000E+01  1.00800000E+00  1.00800000E+00  0.00000000E+00
  1.60000000E+01  1.00800000E+00  1.00800000E+00  0.00000000E+00  1.60000000E+01
  1.00800000E+00  1.00800000E+00  0.00000000E+00  1.60000000E+01  1.00800000E+00
  1.00800000E+00  0.00000000E+00  1.60000000E+01  1.00800000E+00  1.00800000E+00
  0.00000000E+00  1.60000000E+01  1.00800000E+00  1.00800000E+00  0.00000000E+00
  1.60000000E+01  1.00800000E+00  1.00800000E+00  0.00000000E+00  1.60000000E+01
  1.00800000E+00  1.00800000E+00  0.00000000E+00  1.60000000E+01  1.00800000E+00
  1.00800000E+00  0.00000000E+00  1.60000000E+01  1.00800000E+00  1.00800000E+00
  0.00000000E+00  1.60000000E+01  1.00800000E+00  1.00800000E+00  0.00000000E+00
  1.60000000E+01  1.00800000E+00  1.00800000E+00  0.00000000E+00  1.60000000E+01
  1.00800000E+00  1.00800000E+00  0.00000000E+00  1.60000000E+01  1.00800000E+00
  1.00800000E+00  0.00000000E+00  1.60000000E+01  1.00800000E+00  1.00800000E+00
  0.00000000E+00  1.60000000E+01  1.00800000E+00  1.00800000E+00  0.00000000E+00
  1.60000000E+01  1.00800000E+00  1.00800000E+00  0.00000000E+00  1.60000000E+01
  1.00800000E+00  1.00800000E+00  0.00000000E+00  1.60000000E+01  1.00800000E+00
  1.00800000E+00  0.00000000E+00  1.60000000E+01  1.00800000E+00  1.00800000E+00
  0.00000000E+00  1.60000000E+01  1.00800000E+00  1.00800000E+00  0.00000000E+00
  1.60000000E+01  1.00800000E+00  1.00800000E+00  0.00000000E+00  1.60000000E+01
  1.00800000E+00  1.00800000E+00  0.00000000E+00  1.60000000E+01  1.00800000E+00
  1.00800000E+00  0.00000000E+00  1.60000000E+01  1.00800000E+00  1.00800000E+00
  0.00000000E+00  1.60000000E+01  1.00800000E+00  1.00800000E+00  0.00000000E+00
  1.60000000E+01  1.00800000E+00  1.00800000E+00  0.00000000E+00  1.60000000E+01
  1.00800000E+00  1.00800000E+00  0.00000000E+00  1.60000000E+01  1.00800000E+00
  1.00800000E+00  0.00000000E+00  1.60000000E+01  1.00800000E+00  1.00800000E+00
  0.00000000E+00  1.60000000E+01  1.00800000E+00  1.00800000E+00  0.00000000E+00
  1.60000000E+01  1.00800000E+00  1.00800000E+00  0.00000000E+00  1.60000000E+01
  1.00800000E+00  1.00800000E+00  0.00000000E+00  1.60000000E+01  1.00800000E+00
  1.00800000E+00  0.00000000E+00  1.60000000E+01  1.00800000E+00  1.00800000E+00
  0.00000000E+00  1.60000000E+01  1.00800000E+00  1.00800000E+00  0.00000000E+00
  1.60000000E+01  1.00800000E+00  1.00800000E+00  0.00000000E+00  1.60000000E+01
  1.00800000E+00  1.00800000E+00  0.00000000E+00  1.60000000E+01  1.00800000E+00
  1.00800000E+00  0.00000000E+00  1.60000000E+01  1.00800000E+00  1.00800000E+00
  0.00000000E+00  1.60000000E+01  1.00800000E+00  1.00800000E+00  0.00000000E+00
  1.60000000E+01  1.00800000E+00  1.00800000E+00  0.00000000E+00  1.60000000E+01
  1.00800000E+00  1.00800000E+00  0.00000000E+00  1.60000000E+01  1.00800000E+00
  1.00800000E+00  0.00000000E+00  1.60000000E+01  1.00800000E+00  1.00800000E+00
  0.00000000E+00  1.60000000E+01  1.00800000E+00  1.00800000E+00  0.00000000E+00
  1.60000000E+01  1.00800000E+00  1.00800000E+00  0.00000000E+00  1.60000000E+01
  1.00800000E+00  1.00800000E+00  0.00000000E+00  1.60000000E+01  1.00800000E+00
  1.00800000E+00  0.00000000E+00  1.60000000E+01  1.00800000E+00  1.00800000E+00
  0.00000000E+00  1.60000000E+01  1.00800000E+00  1.00800000E+00  0.00000000E+00
  1.60000000E+01  1.00800000E+00  1.00800000E+00  0.00000000E+00  1.60000000E+01
  1.00800000E+00  1.00800000E+00  0.00000000E+00  1.60000000E+01  1.00800000E+00
  1.00800000E+00  0.00000000E+00  1.60000000E+01  1.00800000E+00  1.00800000E+00
  0.00000000E+00  1.60000000E+01  1.00800000E+00  1.00800000E+00  0.00000000E+00
  1.60000000E+01  1.00800000E+00  1.00800000E+00  0.00000000E+00  1.60000000E+01
  1.00800000E+00  1.00800000E+00  0.00000000E+00  1.60000000E+01  1.00800000E+00
  1.00800000E+00  0.00000000E+00  1.60000000E+01  1.00800000E+00  1.00800000E+00
  0.00000000E+00  1.60000000E+01  1.00800000E+00  1.00800000E+00  0.00000000E+00
  1.60000000E+01  1.00800000E+00  1.00800000E+00  0.00000000E+00  1.60000000E+01
  1.00800000E+00  1.00800000E+00  0.00000000E+00  1.60000000E+01  1.00800000E+00
  1.00800000E+00  0.00000000E+00  1.60000000E+01  1.00800000E+00  1.00800000E+00
  0.00000000E+00  1.60000000E+01  1.00800000E+00  1.00800000E+00  0.00000000E+00
  1.60000000E+01  1.00800000E+00  1.00800000E+00  0.00000000E+00  1.60000000E+01
  1.00800000E+00  1.00800000E+00  0.00000000E+00  1.60000000E+01  1.00800000E+00
  1.00800000E+00  0.00000000E+00  1.60000000E+01  1.00800000E+00  1.00800000E+00
  0.00000000E+00  1.60000000E+01  1.00800000E+00  1.00800000E+00  0.00000000E+00
  1.60000000E+01  1.00800000E+00  1.00800000E+00  0.00000000E+00  1.60000000E+01
  1.00800000E+00  1.00800000E+00  0.00000000E+00  1.60000000E+01  1.00800000E+00
  1.00800000E+00  0.00000000E+00  1.60000000E+01  1.00800000E+00  1.00800000E+00
  0.00000000E+00  1.60000000E+01  1.00800000E+00  1.00800000E+00  0.00000000E+00
  1.60000000E+01  1.00800000E+00  1.00800000E+00  0.00000000E+00  1.60000000E+01
  1.00800000E+00  1.00800000E+00  0.00000000E+00  1.60000000E+01  1.00800000E+00
  1.00800000E+00  0.00000000E+00  1.60000000E+01  1.00800000E+00  1.00800000E+00
  0.00000000E+00  1.60000000E+01  1.00800000E+00  1.00800000E+00  0.00000000E+00
  1.60000000E+01  1.00800000E+00  1.00800000E+00  0.00000000E+00  1.60000000E+01
  1.00800000E+00  1.00800000E+00  0.00000000E+00  1.60000000E+01  1.00800000E+00
  1.00800000E+00  0.00000000E+00  1.60000000E+01  1.00800000E+00  1.00800000E+00
  0.00000000E+00  1.60000000E+01  1.00800000E+00  1.00800000E+00  0.00000000E+00
  1.60000000E+01  1.00800000E+00  1.00800000E+00  0.00000000E+00  1.60000000E+01
  1.00800000E+00  1.00800000E+00  0.00000000E+00  1.60000000E+01  1.00800000E+00
  1.00800000E+00  0.00000000E+00  1.60000000E+01  1.00800000E+00  1.00800000E+00
  0.00000000E+00  1.60000000E+01  1.00800000E+00  1.00800000E+00  0.00000000E+00
  1.60000000E+01  1.00800000E+00  1.00800000E+00  0.00000000E+00  1.60000000E+01
  1.00800000E+00  1.00800000E+00  0.00000000E+00  1.60000000E+01  1.00800000E+00
  1.00800000E+00  0.00000000E+00  1.60000000E+01  1.00800000E+00  1.00800000E+00
  0.00000000E+00  1.60000000E+01  1.00800000E+00  1.00800000E+00  0.00000000E+00
  1.60000000E+01  1.00800000E+00  1.00800000E+00  0.00000000E+00  1.60000000E+01
  1.00800000E+00  1.00800000E+00  0.00000000E+00  1.60000000E+01  1.00800000E+00
  1.00800000E+00  0.00000000E+00  1.60000000E+01  1.00800000E+00  1.00800000E+00
  0.00000000E+00  1.60000000E+01  1.00800000E+00  1.00800000E+00  0.00000000E+00
  1.60000000E+01  1.00800000E+00  1.00800000E+00  0.00000000E+00  1.60000000E+01
  1.00800000E+00  1.00800000E+00  0.00000000E+00  1.60000000E+01  1.00800000E+00
  1.00800000E+00  0.00000000E+00  1.60000000E+01  1.00800000E+00  1.00800000E+00
  0.00000000E+00  1.60000000E+01  1.00800000E+00  1.00800000E+00  0.00000000E+00
  1.60000000E+01  1.00800000E+00  1.00800000E+00  0.00000000E+00  1.60000000E+01
  1.00800000E+00  1.00800000E+00  0.00000000E+00  1.60000000E+01  1.00800000E+00
  1.00800000E+00  0.00000000E+00  1.60000000E+01  1.00800000E+00  1.00800000E+00
  0.00000000E+00  1.60000000E+01  1.00800000E+00  1.00800000E+00  0.00000000E+00
  1.60000000E+01  1.00800000E+00  1.00800000E+00  0.00000000E+00  1.60000000E+01
  1.00800000E+00  1.00800000E+00  0.00000000E+00  1.60000000E+01  1.00800000E+00
  1.00800000E+00  0.00000000E+00  1.60000000E+01  1.00800000E+00  1.00800000E+00
  0.00000000E+00  1.60000000E+01  1.00800000E+00  1.00800000E+00  0.00000000E+00
  1.60000000E+01  1.00800000E+00  1.00800000E+00  0.00000000E+00  1.60000000E+01
  1.00800000E+00  1.00800000E+00  0.00000000E+00  1.60000000E+01  1.00800000E+00
  1.00800000E+00  0.00000000E+00  1.60000000E+01  1.00800000E+00  1.00800000E+00
  0.00000000E+00  1.60000000E+01  1.00800000E+00  1.00800000E+00  0.00000000E+00
  1.60000000E+01  1.00800000E+00  1.00800000E+00  0.00000000E+00  1.60000000E+01
  1.00800000E+00  1.00800000E+00  0.00000000E+00  1.60000000E+01  1.00800000E+00
  1.00800000E+00  0.00000000E+00  1.60000000E+01  1.00800000E+00  1.00800000E+00
  0.00000000E+00  1.60000000E+01  1.00800000E+00  1.00800000E+00  0.00000000E+00
  1.60000000E+01  1.00800000E+00  1.00800000E+00  0.00000000E+00  1.60000000E+01
  1.00800000E+00  1.00800000E+00  0.00000000E+00  1.60000000E+01  1.00800000E+00
  1.00800000E+00  0.00000000E+00  1.60000000E+01  1.00800000E+00  1.00800000E+00
  0.00000000E+00  1.60000000E+01  1.00800000E+00  1.00800000E+00  0.00000000E+00
  1.60000000E+01  1.00800000E+00  1.00800000E+00  0.00000000E+00  1.60000000E+01
  1.00800000E+00  1.00800000E+00  0.00000000E+00  1.60000000E+01  1.00800000E+00
  1.00800000E+00  0.00000000E+00  1.60000000E+01  1.00800000E+00  1.00800000E+00
  0.00000000E+00  1.60000000E+01  1.00800000E+00  1.00800000E+00  0.00000000E+00
  1.60000000E+01  1.00800000E+00  1.00800000E+00  0.00000000E+00  1.60000000E+01
  1.00800000E+00  1.00800000E+00  0.00000000E+00  1.60000000E+01  1.00800000E+00
  1.00800000E+00  0.00000000E+00  1.60000000E+01  1.00800000E+00  1.00800000E+00
  0.00000000E+00  1.60000000E+01  1.00800000E+00  1.00800000E+00  0.00000000E+00
  1.60000000E+01  1.00800000E+00  1.00800000E+00  0.00000000E+00  1.60000000E+01
  1.00800000E+00  1.00800000E+00  0.00000000E+00  1.60000000E+01  1.00800000E+00
  1.00800000E+00  0.00000000E+00  1.60000000E+01  1.00800000E+00  1.00800000E+00
  0.00000000E+00  1.60000000E+01  1.00800000E+00  1.00800000E+00  0.00000000E+00
  1.60000000E+01  1.00800000E+00  1.00800000E+00  0.00000000E+00  1.60000000E+01
  1.00800000E+00  1.00800000E+00  0.00000000E+00  1.60000000E+01  1.00800000E+00
  1.00800000E+00  0.00000000E+00  1.60000000E+01  1.00800000E+00  1.00800000E+00
  0.00000000E+00  1.60000000E+01  1.00800000E+00  1.00800000E+00  0.00000000E+00
  1.60000000E+01  1.00800000E+00  1.00800000E+00  0.00000000E+00  1.60000000E+01
  1.00800000E+00  1.00800000E+00  0.00000000E+00  1.60000000E+01  1.00800000E+00
  1.00800000E+00  0.00000000E+00  1.60000000E+01  1.00800000E+00  1.00800000E+00
  0.00000000E+00  1.60000000E+01  1.00800000E+00  1.00800000E+00  0.00000000E+00
  1.60000000E+01  1.00800000E+00  1.00800000E+00  0.00000000E+00  1.60000000E+01
  1.00800000E+00  1.00800000E+00  0.00000000E+00  1.60000000E+01  1.00800000E+00
  1.00800000E+00  0.00000000E+00  1.60000000E+01  1.00800000E+00  1.00800000E+00
  0.00000000E+00  1.60000000E+01  1.00800000E+00  1.00800000E+00  0.00000000E+00
  1.60000000E+01  1.00800000E+00  1.00800000E+00  0.00000000E+00  1.60000000E+01
  1.00800000E+00  1.00800000E+00  0.00000000E+00  1.60000000E+01  1.00800000E+00
  1.00800000E+00  0.00000000E+00  1.60000000E+01  1.00800000E+00  1.00800000E+00
  0.00000000E+00  1.60000000E+01  1.00800000E+00  1.00800000E+00  0.00000000E+00
  1.60000000E+01  1.00800000E+00  1.00800000E+00  0.00000000E+00  1.60000000E+01
  1.00800000E+00  1.00800000E+00  0.00000000E+00  1.60000000E+01  1.00800000E+00
  1.00800000E+00  0.00000000E+00  1.60000000E+01  1.00800000E+00  1.00800000E+00
  0.00000000E+00  1.60000000E+01  1.00800000E+00  1.00800000E+00  0.00000000E+00
  1.60000000E+01  1.00800000E+00  1.00800000E+00  0.00000000E+00  1.60000000E+01
  1.00800000E+00  1.00800000E+00  0.00000000E+00  1.60000000E+01  1.00800000E+00
  1.00800000E+00  0.00000000E+00  1.60000000E+01  1.00800000E+00  1.00800000E+00
  0.00000000E+00  1.60000000E+01  1.00800000E+00  1.00800000E+00  0.00000000E+00
  1.60000000E+01  1.00800000E+00  1.00800000E+00  0.00000000E+00  1.60000000E+01
  1.00800000E+00  1.00800000E+00  0.00000000E+00  1.60000000E+01  1.00800000E+00
  1.00800000E+00  0.00000000E+00  1.60000000E+01  1.00800000E+00  1.00800000E+00
  0.00000000E+00  1.60000000E+01  1.00800000E+00  1.00800000E+00  0.00000000E+00
  1.60000000E+01  1.00800000E+00  1.00800000E+00  0.00000000E+00  1.60000000E+01
  1.00800000E+00  1.00800000E+00  0.00000000E+00  1.60000000E+01  1.00800000E+00
  1.00800000E+00  0.00000000E+00  1.60000000E+01  1.00800000E+00  1.00800000E+00
  0.00000000E+00  1.60000000E+01  1.00800000E+00  1.00800000E+00  0.00000000E+00
  1.60000000E+01  1.00800000E+00  1.00800000E+00  0.00000000E+00  1.60000000E+01
  1.00800000E+00  1.00800000E+00  0.00000000E+00  1.60000000E+01  1.00800000E+00
  1.00800000E+00  0.00000000E+00  1.60000000E+01  1.00800000E+00  1.00800000E+00
  0.00000000E+00  1.60000000E+01  1.00800000E+00  1.00800000E+00  0.00000000E+00
  1.60000000E+01  1.00800000E+00  1.00800000E+00  0.00000000E+00  1.60000000E+01
  1.00800000E+00  1.00800000E+00  0.00000000E+00  1.60000000E+01  1.00800000E+00
  1.00800000E+00  0.00000000E+00  1.60000000E+01  1.00800000E+00  1.00800000E+00
  0.00000000E+00  1.60000000E+01  1.00800000E+00  1.00800000E+00  0.00000000E+00
  1.60000000E+01  1.00800000E+00  1.00800000E+00  0.00000000E+00  1.60000000E+01
  1.00800000E+00  1.00800000E+00  0.00000000E+00  1.60000000E+01  1.00800000E+00
  1.00800000E+00  0.00000000E+00  1.60000000E+01  1.00800000E+00  1.00800000E+00
  0.00000000E+00  1.60000000E+01  1.00800000E+00  1.00800000E+00  0.00000000E+00
  1.60000000E+01  1.00800000E+00  1.00800000E+00  0.00000000E+00  1.60000000E+01
  1.00800000E+00  1.00800000E+00  0.00000000E+00  1.60000000E+01  1.00800000E+00
  1.00800000E+00  0.00000000E+00  1.60000000E+01  1.00800000E+00  1.00800000E+00
  0.00000000E+00  1.60000000E+01  1.00800000E+00  1.00800000E+00  0.00000000E+00
  1.60000000E+01  1.00800000E+00  1.00800000E+00  0.00000000E+00  1.60000000E+01
  1.00800000E+00  1.00800000E+00  0.00000000E+00  1.60000000E+01  1.00800000E+00
  1.00800000E+00  0.00000000E+00  1.60000000E+01  1.00800000E+00  1.00800000E+00
  0.00000000E+00  1.60000000E+01  1.00800000E+00  1.00800000E+00  0.00000000E+00
  1.60000000E+01  1.00800000E+00  1.00800000E+00  0.00000000E+00  1.60000000E+01
  1.00800000E+00  1.00800000E+00  0.00000000E+00  1.60000000E+01  1.00800000E+00
  1.00800000E+00  0.00000000E+00  1.60000000E+01  1.00800000E+00  1.00800000E+00
  0.00000000E+00  1.60000000E+01  1.00800000E+00  1.00800000E+00  0.00000000E+00
  1.60000000E+01  1.00800000E+00  1.00800000E+00  0.00000000E+00  1.60000000E+01
  1.00800000E+00  1.00800000E+00  0.00000000E+00  1.60000000E+01  1.00800000E+00
  1.00800000E+00  0.00000000E+00  1.60000000E+01  1.00800000E+00  1.00800000E+00
  0.00000000E+00  1.60000000E+01  1.00800000E+00  1.00800000E+00  0.00000000E+00
  1.60000000E+01  1.00800000E+00  1.00800000E+00  0.00000000E+00  1.60000000E+01
  1.00800000E+00  1.00800000E+00  0.00000000E+00  1.60000000E+01  1.00800000E+00
  1.00800000E+00  0.00000000E+00  1.60000000E+01  1.00800000E+00  1.00800000E+00
  0.00000000E+00  1.60000000E+01  1.00800000E+00  1.00800000E+00  0.00000000E+00
  1.60000000E+01  1.00800000E+00  1.00800000E+00  0.00000000E+00  1.60000000E+01
  1.00800000E+00  1.00800000E+00  0.00000000E+00  1.60000000E+01  1.00800000E+00
  1.00800000E+00  0.00000000E+00  1.60000000E+01  1.00800000E+00  1.00800000E+00
  0.00000000E+00  1.60000000E+01  1.00800000E+00  1.00800000E+00  0.00000000E+00
  1.60000000E+01  1.00800000E+00  1.00800000E+00  0.00000000E+00  1.60000000E+01
  1.00800000E+00  1.00800000E+00  0.00000000E+00  1.60000000E+01  1.00800000E+00
  1.00800000E+00  0.00000000E+00  1.60000000E+01  1.00800000E+00  1.00800000E+00
  0.00000000E+00  1.60000000E+01  1.00800000E+00  1.00800000E+00  0.00000000E+00
  1.60000000E+01  1.00800000E+00  1.00800000E+00  0.00000000E+00  1.60000000E+01
  1.00800000E+00  1.00800000E+00  0.00000000E+00  1.60000000E+01  1.00800000E+00
  1.00800000E+00  0.00000000E+00  1.60000000E+01  1.00800000E+00  1.00800000E+00
  0.00000000E+00  1.60000000E+01  1.00800000E+00  1.00800000E+00  0.00000000E+00
  1.60000000E+01  1.00800000E+00  1.00800000E+00  0.00000000E+00  1.60000000E+01
  1.00800000E+00  1.00800000E+00  0.00000000E+00  1.60000000E+01  1.00800000E+00
  1.00800000E+00  0.00000000E+00  1.60000000E+01  1.00800000E+00  1.00800000E+00
  0.00000000E+00  1.60000000E+01  1.00800000E+00  1.00800000E+00  0.00000000E+00
  1.60000000E+01  1.00800000E+00  1.00800000E+00  0.00000000E+00  1.60000000E+01
  1.00800000E+00  1.00800000E+00  0.00000000E+00  1.60000000E+01  1.00800000E+00
  1.00800000E+00  0.00000000E+00  1.60000000E+01  1.00800000E+00  1.00800000E+00
  0.00000000E+00  1.60000000E+01  1.00800000E+00  1.00800000E+00  0.00000000E+00
  1.60000000E+01  1.00800000E+00  1.00800000E+00  0.00000000E+00  1.60000000E+01
  1.00800000E+00  1.00800000E+00  0.00000000E+00  1.60000000E+01  1.00800000E+00
  1.00800000E+00  0.00000000E+00  1.60000000E+01  1.00800000E+00  1.00800000E+00
  0.00000000E+00  1.60000000E+01  1.00800000E+00  1.00800000E+00  0.00000000E+00
  1.60000000E+01  1.00800000E+00  1.00800000E+00  0.00000000E+00  1.60000000E+01
  1.00800000E+00  1.00800000E+00  0.00000000E+00  1.60000000E+01  1.00800000E+00
  1.00800000E+00  0.00000000E+00  1.60000000E+01  1.00800000E+00  1.00800000E+00
  0.00000000E+00  1.60000000E+01  1.00800000E+00  1.00800000E+00  0.00000000E+00
  1.60000000E+01  1.00800000E+00  1.00800000E+00  0.00000000E+00  1.60000000E+01
  1.00800000E+00  1.00800000E+00  0.00000000E+00  1.60000000E+01  1.00800000E+00
  1.00800000E+00  0.00000000E+00  1.60000000E+01  1.00800000E+00  1.00800000E+00
  0.00000000E+00  1.60000000E+01  1.00800000E+00  1.00800000E+00  0.00000000E+00
  1.60000000E+01  1.00800000E+00  1.00800000E+00  0.00000000E+00  1.60000000E+01
  1.00800000E+00  1.00800000E+00  0.00000000E+00  1.60000000E+01  1.00800000E+00
  1.00800000E+00  0.00000000E+00  1.60000000E+01  1.00800000E+00  1.00800000E+00
  0.00000000E+00  1.60000000E+01  1.00800000E+00  1.00800000E+00  0.00000000E+00
  1.60000000E+01  1.00800000E+00  1.00800000E+00  0.00000000E+00  1.60000000E+01
  1.00800000E+00  1.00800000E+00  0.00000000E+00  1.60000000E+01  1.00800000E+00
  1.00800000E+00  0.00000000E+00  1.60000000E+01  1.00800000E+00  1.00800000E+00
  0.00000000E+00  1.60000000E+01  1.00800000E+00  1.00800000E+00  0.00000000E+00
  1.60000000E+01  1.00800000E+00  1.00800000E+00  0.00000000E+00  1.60000000E+01
  1.00800000E+00  1.00800000E+00  0.00000000E+00  1.60000000E+01  1.00800000E+00
  1.00800000E+00  0.00000000E+00  1.60000000E+01  1.00800000E+00  1.00800000E+00
  0.00000000E+00  1.60000000E+01  1.00800000E+00  1.00800000E+00  0.00000000E+00
  1.60000000E+01  1.00800000E+00  1.00800000E+00  0.00000000E+00  1.60000000E+01
  1.00800000E+00  1.00800000E+00  0.00000000E+00  1.60000000E+01  1.00800000E+00
  1.00800000E+00  0.00000000E+00  1.60000000E+01  1.00800000E+00  1.00800000E+00
  0.00000000E+00  1.60000000E+01  1.00800000E+00  1.00800000E+00  0.00000000E+00
  1.60000000E+01  1.00800000E+00  1.00800000E+00  0.00000000E+00  1.60000000E+01
  1.00800000E+00  1.00800000E+00  0.00000000E+00  1.60000000E+01  1.00800000E+00
  1.00800000E+00  0.00000000E+00  1.60000000E+01  1.00800000E+00  1.00800000E+00
  0.00000000E+00  1.60000000E+01  1.00800000E+00  1.00800000E+00  0.00000000E+00
  1.60000000E+01  1.00800000E+00  1.00800000E+00  0.00000000E+00  1.60000000E+01
  1.00800000E+00  1.00800000E+00  0.00000000E+00  1.60000000E+01  1.00800000E+00
  1.00800000E+00  0.00000000E+00  1.60000000E+01  1.00800000E+00  1.00800000E+00
  0.00000000E+00  1.60000000E+01  1.00800000E+00  1.00800000E+00  0.00000000E+00
  1.60000000E+01  1.00800000E+00  1.00800000E+00  0.00000000E+00  1.60000000E+01
  1.00800000E+00  1.00800000E+00  0.00000000E+00  1.60000000E+01  1.00800000E+00
  1.00800000E+00  0.00000000E+00  1.60000000E+01  1.00800000E+00  1.00800000E+00
  0.00000000E+00  1.60000000E+01  1.00800000E+00  1.00800000E+00  0.00000000E+00
  1.60000000E+01  1.00800000E+00  1.00800000E+00  0.00000000E+00  1.60000000E+01
  1.00800000E+00  1.00800000E+00  0.00000000E+00  1.60000000E+01  1.00800000E+00
  1.00800000E+00  0.00000000E+00  1.60000000E+01  1.00800000E+00  1.00800000E+00
  0.00000000E+00  1.60000000E+01  1.00800000E+00  1.00800000E+00  0.00000000E+00
  1.60000000E+01  1.00800000E+00  1.00800000E+00  0.00000000E+00  1.60000000E+01
  1.00800000E+00  1.00800000E+00  0.00000000E+00  1.60000000E+01  1.00800000E+00
  1.00800000E+00  0.00000000E+00  1.60000000E+01  1.00800000E+00  1.00800000E+00
  0.00000000E+00  1.60000000E+01  1.00800000E+00  1.00800000E+00  0.00000000E+00
  1.60000000E+01  1.00800000E+00  1.00800000E+00  0.00000000E+00  1.60000000E+01
  1.00800000E+00  1.00800000E+00  0.00000000E+00  1.60000000E+01  1.00800000E+00
  1.00800000E+00  0.00000000E+00  1.60000000E+01  1.00800000E+00  1.00800000E+00
  0.00000000E+00  1.60000000E+01  1.00800000E+00  1.00800000E+00  0.00000000E+00
  1.60000000E+01  1.00800000E+00  1.00800000E+00  0.00000000E+00  1.60000000E+01
  1.00800000E+00  1.00800000E+00  0.00000000E+00  1.60000000E+01  1.00800000E+00
  1.00800000E+00  0.00000000E+00  1.60000000E+01  1.00800000E+00  1.00800000E+00
  0.00000000E+00  1.60000000E+01  1.00800000E+00  1.00800000E+00  0.00000000E+00
  1.60000000E+01  1.00800000E+00  1.00800000E+00  0.00000000E+00  1.60000000E+01
  1.00800000E+00  1.00800000E+00  0.00000000E+00  1.60000000E+01  1.00800000E+00
  1.00800000E+00  0.00000000E+00  1.60000000E+01  1.00800000E+00  1.00800000E+00
  0.00000000E+00  1.60000000E+01  1.00800000E+00  1.00800000E+00  0.00000000E+00
  1.60000000E+01  1.00800000E+00  1.00800000E+00  0.00000000E+00  1.60000000E+01
  1.00800000E+00  1.00800000E+00  0.00000000E+00  1.60000000E+01  1.00800000E+00
  1.00800000E+00  0.00000000E+00  1.60000000E+01  1.00800000E+00  1.00800000E+00
  0.00000000E+00  1.60000000E+01  1.00800000E+00  1.00800000E+00  0.00000000E+00
  1.60000000E+01  1.00800000E+00  1.00800000E+00  0.00000000E+00  1.60000000E+01
  1.00800000E+00  1.00800000E+00  0.00000000E+00  1.60000000E+01  1.00800000E+00
  1.00800000E+00  0.00000000E+00  1.60000000E+01  1.00800000E+00  1.00800000E+00
  0.00000000E+00  1.60000000E+01  1.00800000E+00  1.00800000E+00  0.00000000E+00
  1.60000000E+01  1.00800000E+00  1.00800000E+00  0.00000000E+00  1.60000000E+01
  1.00800000E+00  1.00800000E+00  0.00000000E+00  1.60000000E+01  1.00800000E+00
  1.00800000E+00  0.00000000E+00  1.60000000E+01  1.00800000E+00  1.00800000E+00
  0.00000000E+00  1.60000000E+01  1.00800000E+00  1.00800000E+00  0.00000000E+00
  1.60000000E+01  1.00800000E+00  1.00800000E+00  0.00000000E+00  1.60000000E+01
  1.00800000E+00  1.00800000E+00  0.00000000E+00  1.60000000E+01  1.00800000E+00
  1.00800000E+00  0.00000000E+00  1.60000000E+01  1.00800000E+00  1.00800000E+00
  0.00000000E+00  1.60000000E+01  1.00800000E+00  1.00800000E+00  0.00000000E+00
  1.60000000E+01  1.00800000E+00  1.00800000E+00  0.00000000E+00  1.60000000E+01
  1.00800000E+00  1.00800000E+00  0.00000000E+00  1.60000000E+01  1.00800000E+00
  1.00800000E+00  0.00000000E+00  1.60000000E+01  1.00800000E+00  1.00800000E+00
  0.00000000E+00  1.60000000E+01  1.00800000E+00  1.00800000E+00  0.00000000E+00
  1.60000000E+01  1.00800000E+00  1.00800000E+00  0.00000000E+00  1.60000000E+01
  1.00800000E+00  1.00800000E+00  0.00000000E+00  1.60000000E+01  1.00800000E+00
  1.00800000E+00  0.00000000E+00  1.60000000E+01  1.00800000E+00  1.00800000E+00
  0.00000000E+00  1.60000000E+01  1.00800000E+00  1.00800000E+00  0.00000000E+00
  1.60000000E+01  1.00800000E+00  1.00800000E+00  0.00000000E+00  1.60000000E+01
  1.00800000E+00  1.00800000E+00  0.00000000E+00  1.60000000E+01  1.00800000E+00
  1.00800000E+00  0.00000000E+00  1.60000000E+01  1.00800000E+00  1.00800000E+00
  0.00000000E+00  1.60000000E+01  1.00800000E+00  1.00800000E+00  0.00000000E+00
  1.60000000E+01  1.00800000E+00  1.00800000E+00  0.00000000E+00  1.60000000E+01
  1.00800000E+00  1.00800000E+00  0.00000000E+00  1.60000000E+01  1.00800000E+00
  1.00800000E+00  0.00000000E+00  1.60000000E+01  1.00800000E+00  1.00800000E+00
  0.00000000E+00  1.60000000E+01  1.00800000E+00  1.00800000E+00  0.00000000E+00
  1.60000000E+01  1.00800000E+00  1.00800000E+00  0.00000000E+00  1.60000000E+01
  1.00800000E+00  1.00800000E+00  0.00000000E+00  1.60000000E+01  1.00800000E+00
  1.00800000E+00  0.00000000E+00  1.60000000E+01  1.00800000E+00  1.00800000E+00
  0.00000000E+00  1.60000000E+01  1.00800000E+00  1.00800000E+00  0.00000000E+00
  1.60000000E+01  1.00800000E+00  1.00800000E+00  0.00000000E+00  1.60000000E+01
  1.00800000E+00  1.00800000E+00  0.00000000E+00  1.60000000E+01  1.00800000E+00
  1.00800000E+00  0.00000000E+00  1.60000000E+01  1.00800000E+00  1.00800000E+00
  0.00000000E+00  1.60000000E+01  1.00800000E+00  1.00800000E+00  0.00000000E+00
  1.60000000E+01  1.00800000E+00  1.00800000E+00  0.00000000E+00  1.60000000E+01
  1.00800000E+00  1.00800000E+00  0.00000000E+00  1.60000000E+01  1.00800000E+00
  1.00800000E+00  0.00000000E+00  1.60000000E+01  1.00800000E+00  1.00800000E+00
  0.00000000E+00  1.60000000E+01  1.00800000E+00  1.00800000E+00  0.00000000E+00
  1.60000000E+01  1.00800000E+00  1.00800000E+00  0.00000000E+00  1.60000000E+01
  1.00800000E+00  1.00800000E+00  0.00000000E+00  1.60000000E+01  1.00800000E+00
  1.00800000E+00  0.00000000E+00  1.60000000E+01  1.00800000E+00  1.00800000E+00
  0.00000000E+00  1.60000000E+01  1.00800000E+00  1.00800000E+00  0.00000000E+00
  1.60000000E+01  1.00800000E+00  1.00800000E+00  0.00000000E+00  1.60000000E+01
  1.00800000E+00  1.00800000E+00  0.00000000E+00  1.60000000E+01  1.00800000E+00
  1.00800000E+00  0.00000000E+00  1.60000000E+01  1.00800000E+00  1.00800000E+00
  0.00000000E+00  1.60000000E+01  1.00800000E+00  1.00800000E+00  0.00000000E+00
  1.60000000E+01  1.00800000E+00  1.00800000E+00  0.00000000E+00  1.60000000E+01
  1.00800000E+00  1.00800000E+00  0.00000000E+00  1.60000000E+01  1.00800000E+00
  1.00800000E+00  0.00000000E+00  1.60000000E+01  1.00800000E+00  1.00800000E+00
  0.00000000E+00  1.60000000E+01  1.00800000E+00  1.00800000E+00  0.00000000E+00
  1.60000000E+01  1.00800000E+00  1.00800000E+00  0.00000000E+00  1.60000000E+01
  1.00800000E+00  1.00800000E+00  0.00000000E+00  1.60000000E+01  1.00800000E+00
  1.00800000E+00  0.00000000E+00  1.60000000E+01  1.00800000E+00  1.00800000E+00
  0.00000000E+00  1.60000000E+01  1.00800000E+00  1.00800000E+00  0.00000000E+00
  1.60000000E+01  1.00800000E+00  1.00800000E+00  0.00000000E+00  1.60000000E+01
  1.00800000E+00  1.00800000E+00  0.00000000E+00  1.60000000E+01  1.00800000E+00
  1.00800000E+00  0.00000000E+00  1.60000000E+01  1.00800000E+00  1.00800000E+00
  0.00000000E+00  1.60000000E+01  1.00800000E+00  1.00800000E+00  0.00000000E+00
  1.60000000E+01  1.00800000E+00  1.00800000E+00  0.00000000E+00  1.60000000E+01
  1.00800000E+00  1.00800000E+00  0.00000000E+00  1.60000000E+01  1.00800000E+00
  1.00800000E+00  0.00000000E+00  1.60000000E+01  1.00800000E+00  1.00800000E+00
  0.00000000E+00  1.60000000E+01  1.00800000E+00  1.00800000E+00  0.00000000E+00
  1.60000000E+01  1.00800000E+00  1.00800000E+00  0.00000000E+00  1.60000000E+01
  1.00800000E+00  1.00800000E+00  0.00000000E+00  1.60000000E+01  1.00800000E+00
  1.00800000E+00  0.00000000E+00  1.60000000E+01  1.00800000E+00  1.00800000E+00
  0.00000000E+00  1.60000000E+01  1.00800000E+00  1.00800000E+00  0.00000000E+00
  1.60000000E+01  1.00800000E+00  1.00800000E+00  0.00000000E+00  1.60000000E+01
  1.00800000E+00  1.00800000E+00  0.00000000E+00  1.60000000E+01  1.00800000E+00
  1.00800000E+00  0.00000000E+00  1.60000000E+01  1.00800000E+00  1.00800000E+00
  0.00000000E+00  1.60000000E+01  1.00800000E+00  1.00800000E+00  0.00000000E+00
  1.60000000E+01  1.00800000E+00  1.00800000E+00  0.00000000E+00  1.60000000E+01
  1.00800000E+00  1.00800000E+00  0.00000000E+00  1.60000000E+01  1.00800000E+00
  1.00800000E+00  0.00000000E+00  1.60000000E+01  1.00800000E+00  1.00800000E+00
  0.00000000E+00  1.60000000E+01  1.00800000E+00  1.00800000E+00  0.00000000E+00
  1.60000000E+01  1.00800000E+00  1.00800000E+00  0.00000000E+00  1.60000000E+01
  1.00800000E+00  1.00800000E+00  0.00000000E+00  1.60000000E+01  1.00800000E+00
  1.00800000E+00  0.00000000E+00  1.60000000E+01  1.00800000E+00  1.00800000E+00
  0.00000000E+00  1.60000000E+01  1.00800000E+00  1.00800000E+00  0.00000000E+00
  1.60000000E+01  1.00800000E+00  1.00800000E+00  0.00000000E+00  1.60000000E+01
  1.00800000E+00  1.00800000E+00  0.00000000E+00  1.60000000E+01  1.00800000E+00
  1.00800000E+00  0.00000000E+00  1.60000000E+01  1.00800000E+00  1.00800000E+00
  0.00000000E+00  1.60000000E+01  1.00800000E+00  1.00800000E+00  0.00000000E+00
  1.60000000E+01  1.00800000E+00  1.00800000E+00  0.00000000E+00  1.60000000E+01
  1.00800000E+00  1.00800000E+00  0.00000000E+00  1.60000000E+01  1.00800000E+00
  1.00800000E+00  0.00000000E+00  1.60000000E+01  1.00800000E+00  1.00800000E+00
  0.00000000E+00  1.60000000E+01  1.00800000E+00  1.00800000E+00  0.00000000E+00
  1.60000000E+01  1.00800000E+00  1.00800000E+00  0.00000000E+00  1.60000000E+01
  1.00800000E+00  1.00800000E+00  0.00000000E+00  1.60000000E+01  1.00800000E+00
  1.00800000E+00  0.00000000E+00  1.60000000E+01  1.00800000E+00  1.00800000E+00
  0.00000000E+00  1.60000000E+01  1.00800000E+00  1.00800000E+00  0.00000000E+00
  1.60000000E+01  1.00800000E+00  1.00800000E+00  0.00000000E+00  1.60000000E+01
  1.00800000E+00  1.00800000E+00  0.00000000E+00  1.60000000E+01  1.00800000E+00
  1.00800000E+00  0.00000000E+00  1.60000000E+01  1.00800000E+00  1.00800000E+00
  0.00000000E+00  1.60000000E+01  1.00800000E+00  1.00800000E+00  0.00000000E+00
  1.60000000E+01  1.00800000E+00  1.00800000E+00  0.00000000E+00  1.60000000E+01
  1.00800000E+00  1.00800000E+00  0.00000000E+00  1.60000000E+01  1.00800000E+00
  1.00800000E+00  0.00000000E+00  1.60000000E+01  1.00800000E+00  1.00800000E+00
  0.00000000E+00  1.60000000E+01  1.00800000E+00  1.00800000E+00  0.00000000E+00
  1.60000000E+01  1.00800000E+00  1.00800000E+00  0.00000000E+00  1.60000000E+01
  1.00800000E+00  1.00800000E+00  0.00000000E+00  1.60000000E+01  1.00800000E+00
  1.00800000E+00  0.00000000E+00  1.60000000E+01  1.00800000E+00  1.00800000E+00
  0.00000000E+00  1.60000000E+01  1.00800000E+00  1.00800000E+00  0.00000000E+00
  1.60000000E+01  1.00800000E+00  1.00800000E+00  0.00000000E+00  1.60000000E+01
  1.00800000E+00  1.00800000E+00  0.00000000E+00  1.60000000E+01  1.00800000E+00
  1.00800000E+00  0.00000000E+00  1.60000000E+01  1.00800000E+00  1.00800000E+00
  0.00000000E+00  1.60000000E+01  1.00800000E+00  1.00800000E+00  0.00000000E+00
  1.60000000E+01  1.00800000E+00  1.00800000E+00  0.00000000E+00  1.60000000E+01
  1.00800000E+00  1.00800000E+00  0.00000000E+00  1.60000000E+01  1.00800000E+00
  1.00800000E+00  0.00000000E+00  1.60000000E+01  1.00800000E+00  1.00800000E+00
  0.00000000E+00  1.60000000E+01  1.00800000E+00  1.00800000E+00  0.00000000E+00
  1.60000000E+01  1.00800000E+00  1.00800000E+00  0.00000000E+00  1.60000000E+01
  1.00800000E+00  1.00800000E+00  0.00000000E+00  1.60000000E+01  1.00800000E+00
  1.00800000E+00  0.00000000E+00  1.60000000E+01  1.00800000E+00  1.00800000E+00
  0.00000000E+00  1.60000000E+01  1.00800000E+00  1.00800000E+00  0.00000000E+00
  1.60000000E+01  1.00800000E+00  1.00800000E+00  0.00000000E+00  1.60000000E+01
  1.00800000E+00  1.00800000E+00  0.00000000E+00  1.60000000E+01  1.00800000E+00
  1.00800000E+00  0.00000000E+00  1.60000000E+01  1.00800000E+00  1.00800000E+00
  0.00000000E+00  1.60000000E+01  1.00800000E+00  1.00800000E+00  0.00000000E+00
  1.60000000E+01  1.00800000E+00  1.00800000E+00  0.00000000E+00  1.60000000E+01
  1.00800000E+00  1.00800000E+00  0.00000000E+00  1.60000000E+01  1.00800000E+00
  1.00800000E+00  0.00000000E+00  1.60000000E+01  1.00800000E+00  1.00800000E+00
  0.00000000E+00  1.60000000E+01  1.00800000E+00  1.00800000E+00  0.00000000E+00
  1.60000000E+01  1.00800000E+00  1.00800000E+00  0.00000000E+00  1.60000000E+01
  1.00800000E+00  1.00800000E+00  0.00000000E+00  1.60000000E+01  1.00800000E+00
  1.00800000E+00  0.00000000E+00  1.60000000E+01  1.00800000E+00  1.00800000E+00
  0.00000000E+00  1.60000000E+01  1.00800000E+00  1.00800000E+00  0.00000000E+00
  1.60000000E+01  1.00800000E+00  1.00800000E+00  0.00000000E+00  1.60000000E+01
  1.00800000E+00  1.00800000E+00  0.00000000E+00  1.60000000E+01  1.00800000E+00
  1.00800000E+00  0.00000000E+00  1.60000000E+01  1.00800000E+00  1.00800000E+00
  0.00000000E+00  1.60000000E+01  1.00800000E+00  1.00800000E+00  0.00000000E+00
  1.60000000E+01  1.00800000E+00  1.00800000E+00  0.00000000E+00  1.60000000E+01
  1.00800000E+00  1.00800000E+00  0.00000000E+00  1.60000000E+01  1.00800000E+00
  1.00800000E+00  0.00000000E+00  1.60000000E+01  1.00800000E+00  1.00800000E+00
  0.00000000E+00  1.60000000E+01  1.00800000E+00  1.00800000E+00  0.00000000E+00
  1.60000000E+01  1.00800000E+00  1.00800000E+00  0.00000000E+00  1.60000000E+01
  1.00800000E+00  1.00800000E+00  0.00000000E+00  1.60000000E+01  1.00800000E+00
  1.00800000E+00  0.00000000E+00  1.60000000E+01  1.00800000E+00  1.00800000E+00
  0.00000000E+00  1.60000000E+01  1.00800000E+00  1.00800000E+00  0.00000000E+00
  1.60000000E+01  1.00800000E+00  1.00800000E+00  0.00000000E+00  1.60000000E+01
  1.00800000E+00  1.00800000E+00  0.00000000E+00  1.60000000E+01  1.00800000E+00
  1.00800000E+00  0.00000000E+00  1.60000000E+01  1.00800000E+00  1.00800000E+00
  0.00000000E+00  1.60000000E+01  1.00800000E+00  1.00800000E+00  0.00000000E+00
  1.60000000E+01  1.00800000E+00  1.00800000E+00  0.00000000E+00  1.60000000E+01
  1.00800000E+00  1.00800000E+00  0.00000000E+00  1.60000000E+01  1.00800000E+00
  1.00800000E+00  0.00000000E+00  1.60000000E+01  1.00800000E+00  1.00800000E+00
  0.00000000E+00  1.60000000E+01  1.00800000E+00  1.00800000E+00  0.00000000E+00
  1.60000000E+01  1.00800000E+00  1.00800000E+00  0.00000000E+00  1.60000000E+01
  1.00800000E+00  1.00800000E+00  0.00000000E+00  1.60000000E+01  1.00800000E+00
  1.00800000E+00  0.00000000E+00  1.60000000E+01  1.00800000E+00  1.00800000E+00
  0.00000000E+00  1.60000000E+01  1.00800000E+00  1.00800000E+00  0.00000000E+00
  1.60000000E+01  1.00800000E+00  1.00800000E+00  0.00000000E+00  1.60000000E+01
  1.00800000E+00  1.00800000E+00  0.00000000E+00  1.60000000E+01  1.00800000E+00
  1.00800000E+00  0.00000000E+00  1.60000000E+01  1.00800000E+00  1.00800000E+00
  0.00000000E+00  1.60000000E+01  1.00800000E+00  1.00800000E+00  0.00000000E+00
  1.60000000E+01  1.00800000E+00  1.00800000E+00  0.00000000E+00  1.60000000E+01
  1.00800000E+00  1.00800000E+00  0.00000000E+00  1.60000000E+01  1.00800000E+00
  1.00800000E+00  0.00000000E+00  1.60000000E+01  1.00800000E+00  1.00800000E+00
  0.00000000E+00  1.60000000E+01  1.00800000E+00  1.00800000E+00  0.00000000E+00
  1.60000000E+01  1.00800000E+00  1.00800000E+00  0.00000000E+00  1.60000000E+01
  1.00800000E+00  1.00800000E+00  0.00000000E+00  1.60000000E+01  1.00800000E+00
  1.00800000E+00  0.00000000E+00  1.60000000E+01  1.00800000E+00  1.00800000E+00
  0.00000000E+00  1.60000000E+01  1.00800000E+00  1.00800000E+00  0.00000000E+00
  1.60000000E+01  1.00800000E+00  1.00800000E+00  0.00000000E+00  1.60000000E+01
  1.00800000E+00  1.00800000E+00  0.00000000E+00  1.60000000E+01  1.00800000E+00
  1.00800000E+00  0.00000000E+00  1.60000000E+01  1.00800000E+00  1.00800000E+00
  0.00000000E+00  1.60000000E+01  1.00800000E+00  1.00800000E+00  0.00000000E+00
  1.60000000E+01  1.00800000E+00  1.00800000E+00  0.00000000E+00  1.60000000E+01
  1.00800000E+00  1.00800000E+00  0.00000000E+00  1.60000000E+01  1.00800000E+00
  1.00800000E+00  0.00000000E+00  1.60000000E+01  1.00800000E+00  1.00800000E+00
  0.00000000E+00  1.60000000E+01  1.00800000E+00  1.00800000E+00  0.00000000E+00
  1.60000000E+01  1.00800000E+00  1.00800000E+00  0.00000000E+00  1.60000000E+01
  1.00800000E+00  1.00800000E+00  0.00000000E+00  1.60000000E+01  1.00800000E+00
  1.00800000E+00  0.00000000E+00  1.60000000E+01  1.00800000E+00  1.00800000E+00
  0.00000000E+00  1.60000000E+01  1.00800000E+00  1.00800000E+00  0.00000000E+00
  1.60000000E+01  1.00800000E+00  1.00800000E+00  0.00000000E+00  1.60000000E+01
  1.00800000E+00  1.00800000E+00  0.00000000E+00  1.60000000E+01  1.00800000E+00
  1.00800000E+00  0.00000000E+00  1.60000000E+01  1.00800000E+00  1.00800000E+00
  0.00000000E+00  1.60000000E+01  1.00800000E+00  1.00800000E+00  0.00000000E+00
  1.60000000E+01  1.00800000E+00  1.00800000E+00  0.00000000E+00  1.60000000E+01
  1.00800000E+00  1.00800000E+00  0.00000000E+00  1.60000000E+01  1.00800000E+00
  1.00800000E+00  0.00000000E+00  1.60000000E+01  1.00800000E+00  1.00800000E+00
  0.00000000E+00  1.60000000E+01  1.00800000E+00  1.00800000E+00  0.00000000E+00
  1.60000000E+01  1.00800000E+00  1.00800000E+00  0.00000000E+00  1.60000000E+01
  1.00800000E+00  1.00800000E+00  0.00000000E+00  1.60000000E+01  1.00800000E+00
  1.00800000E+00  0.00000000E+00  1.60000000E+01  1.00800000E+00  1.00800000E+00
  0.00000000E+00  1.60000000E+01  1.00800000E+00  1.00800000E+00  0.00000000E+00
  1.60000000E+01  1.00800000E+00  1.00800000E+00  0.00000000E+00  1.60000000E+01
  1.00800000E+00  1.00800000E+00  0.00000000E+00  1.60000000E+01  1.00800000E+00
  1.00800000E+00  0.00000000E+00  1.60000000E+01  1.00800000E+00  1.00800000E+00
  0.00000000E+00  1.60000000E+01  1.00800000E+00  1.00800000E+00  0.00000000E+00
  1.60000000E+01  1.00800000E+00  1.00800000E+00  0.00000000E+00  1.60000000E+01
  1.00800000E+00  1.00800000E+00  0.00000000E+00  1.60000000E+01  1.00800000E+00
  1.00800000E+00  0.00000000E+00  1.60000000E+01  1.00800000E+00  1.00800000E+00
  0.00000000E+00  1.60000000E+01  1.00800000E+00  1.00800000E+00  0.00000000E+00
  1.60000000E+01  1.00800000E+00  1.00800000E+00  0.00000000E+00  1.60000000E+01
  1.00800000E+00  1.00800000E+00  0.00000000E+00  1.60000000E+01  1.00800000E+00
  1.00800000E+00  0.00000000E+00  1.60000000E+01  1.00800000E+00  1.00800000E+00
  0.00000000E+00  1.60000000E+01  1.00800000E+00  1.00800000E+00  0.00000000E+00
  1.60000000E+01  1.00800000E+00  1.00800000E+00  0.00000000E+00  1.60000000E+01
  1.00800000E+00  1.00800000E+00  0.00000000E+00  1.60000000E+01  1.00800000E+00
  1.00800000E+00  0.00000000E+00  1.60000000E+01  1.00800000E+00  1.00800000E+00
  0.00000000E+00  1.60000000E+01  1.00800000E+00  1.00800000E+00  0.00000000E+00
  1.60000000E+01  1.00800000E+00  1.00800000E+00  0.00000000E+00  1.60000000E+01
  1.00800000E+00  1.00800000E+00  0.00000000E+00  1.60000000E+01  1.00800000E+00
  1.00800000E+00  0.00000000E+00  1.60000000E+01  1.00800000E+00  1.00800000E+00
  0.00000000E+00  1.60000000E+01  1.00800000E+00  1.00800000E+00  0.00000000E+00
  1.60000000E+01  1.00800000E+00  1.00800000E+00  0.00000000E+00  1.60000000E+01
  1.00800000E+00  1.00800000E+00  0.00000000E+00  1.60000000E+01  1.00800000E+00
  1.00800000E+00  0.00000000E+00  1.60000000E+01  1.00800000E+00  1.00800000E+00
  0.00000000E+00  1.60000000E+01  1.00800000E+00  1.00800000E+00  0.00000000E+00
  1.60000000E+01  1.00800000E+00  1.00800000E+00  0.00000000E+00  1.60000000E+01
  1.00800000E+00  1.00800000E+00  0.00000000E+00  1.60000000E+01  1.00800000E+00
  1.00800000E+00  0.00000000E+00  1.60000000E+01  1.00800000E+00  1.00800000E+00
  0.00000000E+00  1.60000000E+01  1.00800000E+00  1.00800000E+00  0.00000000E+00
  1.60000000E+01  1.00800000E+00  1.00800000E+00  0.00000000E+00  1.60000000E+01
  1.00800000E+00  1.00800000E+00  0.00000000E+00  1.60000000E+01  1.00800000E+00
  1.00800000E+00  0.00000000E+00  1.60000000E+01  1.00800000E+00  1.00800000E+00
  0.00000000E+00  1.60000000E+01  1.00800000E+00  1.00800000E+00  0.00000000E+00
  1.60000000E+01  1.00800000E+00  1.00800000E+00  0.00000000E+00  1.60000000E+01
  1.00800000E+00  1.00800000E+00  0.00000000E+00  1.60000000E+01  1.00800000E+00
  1.00800000E+00  0.00000000E+00  1.60000000E+01  1.00800000E+00  1.00800000E+00
  0.00000000E+00  1.60000000E+01  1.00800000E+00  1.00800000E+00  0.00000000E+00
  1.60000000E+01  1.00800000E+00  1.00800000E+00  0.00000000E+00  1.60000000E+01
  1.00800000E+00  1.00800000E+00  0.00000000E+00  1.60000000E+01  1.00800000E+00
  1.00800000E+00  0.00000000E+00  1.60000000E+01  1.00800000E+00  1.00800000E+00
  0.00000000E+00  1.60000000E+01  1.00800000E+00  1.00800000E+00  0.00000000E+00
  1.60000000E+01  1.00800000E+00  1.00800000E+00  0.00000000E+00  1.60000000E+01
  1.00800000E+00  1.00800000E+00  0.00000000E+00  1.60000000E+01  1.00800000E+00
  1.00800000E+00  0.00000000E+00  1.60000000E+01  1.00800000E+00  1.00800000E+00
  0.00000000E+00  1.60000000E+01  1.00800000E+00  1.00800000E+00  0.00000000E+00
  1.60000000E+01  1.00800000E+00  1.00800000E+00  0.00000000E+00  1.60000000E+01
  1.00800000E+00  1.00800000E+00  0.00000000E+00  1.60000000E+01  1.00800000E+00
  1.00800000E+00  0.00000000E+00  1.60000000E+01  1.00800000E+00  1.00800000E+00
  0.00000000E+00  1.60000000E+01  1.00800000E+00  1.00800000E+00  0.00000000E+00
  1.60000000E+01  1.00800000E+00  1.00800000E+00  0.00000000E+00  1.60000000E+01
  1.00800000E+00  1.00800000E+00  0.00000000E+00  1.60000000E+01  1.00800000E+00
  1.00800000E+00  0.00000000E+00  1.60000000E+01  1.00800000E+00  1.00800000E+00
  0.00000000E+00  1.60000000E+01  1.00800000E+00  1.00800000E+00  0.00000000E+00
  1.60000000E+01  1.00800000E+00  1.00800000E+00  0.00000000E+00  1.60000000E+01
  1.00800000E+00  1.00800000E+00  0.00000000E+00  1.60000000E+01  1.00800000E+00
  1.00800000E+00  0.00000000E+00  1.60000000E+01  1.00800000E+00  1.00800000E+00
  0.00000000E+00  1.60000000E+01  1.00800000E+00  1.00800000E+00  0.00000000E+00
  1.60000000E+01  1.00800000E+00  1.00800000E+00  0.00000000E+00  1.60000000E+01
  1.00800000E+00  1.00800000E+00  0.00000000E+00  1.60000000E+01  1.00800000E+00
  1.00800000E+00  0.00000000E+00  1.60000000E+01  1.00800000E+00  1.00800000E+00
  0.00000000E+00  1.60000000E+01  1.00800000E+00  1.00800000E+00  0.00000000E+00
  1.60000000E+01  1.00800000E+00  1.00800000E+00  0.00000000E+00  1.60000000E+01
  1.00800000E+00  1.00800000E+00  0.00000000E+00  1.60000000E+01  1.00800000E+00
  1.00800000E+00  0.00000000E+00  1.60000000E+01  1.00800000E+00  1.00800000E+00
  0.00000000E+00  1.60000000E+01  1.00800000E+00  1.00800000E+00  0.00000000E+00
  1.60000000E+01  1.00800000E+00  1.00800000E+00  0.00000000E+00  1.60000000E+01
  1.00800000E+00  1.00800000E+00  0.00000000E+00  1.60000000E+01  1.00800000E+00
  1.00800000E+00  0.00000000E+00  1.60000000E+01  1.00800000E+00  1.00800000E+00
  0.00000000E+00  1.60000000E+01  1.00800000E+00  1.00800000E+00  0.00000000E+00
  1.60000000E+01  1.00800000E+00  1.00800000E+00  0.00000000E+00  1.60000000E+01
  1.00800000E+00  1.00800000E+00  0.00000000E+00  1.60000000E+01  1.00800000E+00
  1.00800000E+00  0.00000000E+00  1.60000000E+01  1.00800000E+00  1.00800000E+00
  0.00000000E+00  1.60000000E+01  1.00800000E+00  1.00800000E+00  0.00000000E+00
  1.60000000E+01  1.00800000E+00  1.00800000E+00  0.00000000E+00  1.60000000E+01
  1.00800000E+00  1.00800000E+00  0.00000000E+00  1.60000000E+01  1.00800000E+00
  1.00800000E+00  0.00000000E+00  1.60000000E+01  1.00800000E+00  1.00800000E+00
  0.00000000E+00  1.60000000E+01  1.00800000E+00  1.00800000E+00  0.00000000E+00
  1.60000000E+01  1.00800000E+00  1.00800000E+00  0.00000000E+00  1.60000000E+01
  1.00800000E+00  1.00800000E+00  0.00000000E+00  1.60000000E+01  1.00800000E+00
  1.00800000E+00  0.00000000E+00  1.60000000E+01  1.00800000E+00  1.00800000E+00
  0.00000000E+00  1.60000000E+01  1.00800000E+00  1.00800000E+00  0.00000000E+00
  1.60000000E+01  1.00800000E+00  1.00800000E+00  0.00000000E+00  1.60000000E+01
  1.00800000E+00  1.00800000E+00  0.00000000E+00  1.60000000E+01  1.00800000E+00
  1.00800000E+00  0.00000000E+00  1.60000000E+01  1.00800000E+00  1.00800000E+00
  0.00000000E+00  1.60000000E+01  1.00800000E+00  1.00800000E+00  0.00000000E+00
  1.60000000E+01  1.00800000E+00  1.00800000E+00  0.00000000E+00  1.60000000E+01
  1.00800000E+00  1.00800000E+00  0.00000000E+00  1.60000000E+01  1.00800000E+00
  1.00800000E+00  0.00000000E+00  1.60000000E+01  1.00800000E+00  1.00800000E+00
  0.00000000E+00  1.60000000E+01  1.00800000E+00  1.00800000E+00  0.00000000E+00
  1.60000000E+01  1.00800000E+00  1.00800000E+00  0.00000000E+00  1.60000000E+01
  1.00800000E+00  1.00800000E+00  0.00000000E+00  1.60000000E+01  1.00800000E+00
  1.00800000E+00  0.00000000E+00  1.60000000E+01  1.00800000E+00  1.00800000E+00
  0.00000000E+00  1.60000000E+01  1.00800000E+00  1.00800000E+00  0.00000000E+00
  1.60000000E+01  1.00800000E+00  1.00800000E+00  0.00000000E+00  1.60000000E+01
  1.00800000E+00  1.00800000E+00  0.00000000E+00  1.60000000E+01  1.00800000E+00
  1.00800000E+00  0.00000000E+00  1.60000000E+01  1.00800000E+00  1.00800000E+00
  0.00000000E+00  1.60000000E+01  1.00800000E+00  1.00800000E+00  0.00000000E+00
  1.60000000E+01  1.00800000E+00  1.00800000E+00  0.00000000E+00  1.60000000E+01
  1.00800000E+00  1.00800000E+00  0.00000000E+00  1.60000000E+01  1.00800000E+00
  1.00800000E+00  0.00000000E+00  1.60000000E+01  1.00800000E+00  1.00800000E+00
  0.00000000E+00  1.60000000E+01  1.00800000E+00  1.00800000E+00  0.00000000E+00
  1.60000000E+01  1.00800000E+00  1.00800000E+00  0.00000000E+00  1.60000000E+01
  1.00800000E+00  1.00800000E+00  0.00000000E+00  1.60000000E+01  1.00800000E+00
  1.00800000E+00  0.00000000E+00  1.60000000E+01  1.00800000E+00  1.00800000E+00
  0.00000000E+00  1.60000000E+01  1.00800000E+00  1.00800000E+00  0.00000000E+00
  1.60000000E+01  1.00800000E+00  1.00800000E+00  0.00000000E+00  1.60000000E+01
  1.00800000E+00  1.00800000E+00  0.00000000E+00  1.60000000E+01  1.00800000E+00
  1.00800000E+00  0.00000000E+00  1.60000000E+01  1.00800000E+00  1.00800000E+00
  0.00000000E+00  1.60000000E+01  1.00800000E+00  1.00800000E+00  0.00000000E+00
  1.60000000E+01  1.00800000E+00  1.00800000E+00  0.00000000E+00  1.60000000E+01
  1.00800000E+00  1.00800000E+00  0.00000000E+00  1.60000000E+01  1.00800000E+00
  1.00800000E+00  0.00000000E+00  1.60000000E+01  1.00800000E+00  1.00800000E+00
  0.00000000E+00  1.60000000E+01  1.00800000E+00  1.00800000E+00  0.00000000E+00
  1.60000000E+01  1.00800000E+00  1.00800000E+00  0.00000000E+00  1.60000000E+01
  1.00800000E+00  1.00800000E+00  0.00000000E+00  1.60000000E+01  1.00800000E+00
  1.00800000E+00  0.00000000E+00  1.60000000E+01  1.00800000E+00  1.00800000E+00
  0.00000000E+00  1.60000000E+01  1.00800000E+00  1.00800000E+00  0.00000000E+00
  1.60000000E+01  1.00800000E+00  1.00800000E+00  0.00000000E+00  1.60000000E+01
  1.00800000E+00  1.00800000E+00  0.00000000E+00  1.60000000E+01  1.00800000E+00
  1.00800000E+00  0.00000000E+00  1.60000000E+01  1.00800000E+00  1.00800000E+00
  0.00000000E+00  1.60000000E+01  1.00800000E+00  1.00800000E+00  0.00000000E+00
  1.60000000E+01  1.00800000E+00  1.00800000E+00  0.00000000E+00  1.60000000E+01
  1.00800000E+00  1.00800000E+00  0.00000000E+00  1.60000000E+01  1.00800000E+00
  1.00800000E+00  0.00000000E+00  1.60000000E+01  1.00800000E+00  1.00800000E+00
  0.00000000E+00  1.60000000E+01  1.00800000E+00  1.00800000E+00  0.00000000E+00
  1.60000000E+01  1.00800000E+00  1.00800000E+00  0.00000000E+00  1.60000000E+01
  1.00800000E+00  1.00800000E+00  0.00000000E+00  1.60000000E+01  1.00800000E+00
  1.00800000E+00  0.00000000E+00  1.60000000E+01  1.00800000E+00  1.00800000E+00
  0.00000000E+00  1.60000000E+01  1.00800000E+00  1.00800000E+00  0.00000000E+00
  1.60000000E+01  1.00800000E+00  1.00800000E+00  0.00000000E+00  1.60000000E+01
  1.00800000E+00  1.00800000E+00  0.00000000E+00  1.60000000E+01  1.00800000E+00
  1.00800000E+00  0.00000000E+00  1.60000000E+01  1.00800000E+00  1.00800000E+00
  0.00000000E+00  1.60000000E+01  1.00800000E+00  1.00800000E+00  0.00000000E+00
  1.60000000E+01  1.00800000E+00  1.00800000E+00  0.00000000E+00  1.60000000E+01
  1.00800000E+00  1.00800000E+00  0.00000000E+00  1.60000000E+01  1.00800000E+00
  1.00800000E+00  0.00000000E+00  1.60000000E+01  1.00800000E+00  1.00800000E+00
  0.00000000E+00  1.60000000E+01  1.00800000E+00  1.00800000E+00  0.00000000E+00
  1.60000000E+01  1.00800000E+00  1.00800000E+00  0.00000000E+00  1.60000000E+01
  1.00800000E+00  1.00800000E+00  0.00000000E+00  1.60000000E+01  1.00800000E+00
  1.00800000E+00  0.00000000E+00  1.60000000E+01  1.00800000E+00  1.00800000E+00
  0.00000000E+00  1.60000000E+01  1.00800000E+00  1.00800000E+00  0.00000000E+00
  1.60000000E+01  1.00800000E+00  1.00800000E+00  0.00000000E+00  1.60000000E+01
  1.00800000E+00  1.00800000E+00  0.00000000E+00  1.60000000E+01  1.00800000E+00
  1.00800000E+00  0.00000000E+00  1.60000000E+01  1.00800000E+00  1.00800000E+00
  0.00000000E+00  1.60000000E+01  1.00800000E+00  1.00800000E+00  0.00000000E+00
  1.60000000E+01  1.00800000E+00  1.00800000E+00  0.00000000E+00  1.60000000E+01
  1.00800000E+00  1.00800000E+00  0.00000000E+00  1.60000000E+01  1.00800000E+00
  1.00800000E+00  0.00000000E+00  1.60000000E+01  1.00800000E+00  1.00800000E+00
  0.00000000E+00  1.60000000E+01  1.00800000E+00  1.00800000E+00  0.00000000E+00
  1.60000000E+01  1.00800000E+00  1.00800000E+00  0.00000000E+00  1.60000000E+01
  1.00800000E+00  1.00800000E+00  0.00000000E+00  1.60000000E+01  1.00800000E+00
  1.00800000E+00  0.00000000E+00  1.60000000E+01  1.00800000E+00  1.00800000E+00
  0.00000000E+00  1.60000000E+01  1.00800000E+00  1.00800000E+00  0.00000000E+00
  1.60000000E+01  1.00800000E+00  1.00800000E+00  0.00000000E+00  1.60000000E+01
  1.00800000E+00  1.00800000E+00  0.00000000E+00  1.60000000E+01  1.00800000E+00
  1.00800000E+00  0.00000000E+00  1.60000000E+01  1.00800000E+00  1.00800000E+00
  0.00000000E+00  1.60000000E+01  1.00800000E+00  1.00800000E+00  0.00000000E+00
  1.60000000E+01  1.00800000E+00  1.00800000E+00  0.00000000E+00  1.60000000E+01
  1.00800000E+00  1.00800000E+00  0.00000000E+00  1.60000000E+01  1.00800000E+00
  1.00800000E+00  0.00000000E+00  1.60000000E+01  1.00800000E+00  1.00800000E+00
  0.00000000E+00  1.60000000E+01  1.00800000E+00  1.00800000E+00  0.00000000E+00
  1.60000000E+01  1.00800000E+00  1.00800000E+00  0.00000000E+00  1.60000000E+01
  1.00800000E+00  1.00800000E+00  0.00000000E+00  1.60000000E+01  1.00800000E+00
  1.00800000E+00  0.00000000E+00  1.60000000E+01  1.00800000E+00  1.00800000E+00
  0.00000000E+00  1.60000000E+01  1.00800000E+00  1.00800000E+00  0.00000000E+00
  1.60000000E+01  1.00800000E+00  1.00800000E+00  0.00000000E+00  1.60000000E+01
  1.00800000E+00  1.00800000E+00  0.00000000E+00  1.60000000E+01  1.00800000E+00
  1.00800000E+00  0.00000000E+00  1.60000000E+01  1.00800000E+00  1.00800000E+00
  0.00000000E+00  1.60000000E+01  1.00800000E+00  1.00800000E+00  0.00000000E+00
  1.60000000E+01  1.00800000E+00  1.00800000E+00  0.00000000E+00  1.60000000E+01
  1.00800000E+00  1.00800000E+00  0.00000000E+00  1.60000000E+01  1.00800000E+00
  1.00800000E+00  0.00000000E+00  1.60000000E+01  1.00800000E+00  1.00800000E+00
  0.00000000E+00  1.60000000E+01  1.00800000E+00  1.00800000E+00  0.00000000E+00
  1.60000000E+01  1.00800000E+00  1.00800000E+00  0.00000000E+00  1.60000000E+01
  1.00800000E+00  1.00800000E+00  0.00000000E+00  1.60000000E+01  1.00800000E+00
  1.00800000E+00  0.00000000E+00  1.60000000E+01  1.00800000E+00  1.00800000E+00
  0.00000000E+00  1.60000000E+01  1.00800000E+00  1.00800000E+00  0.00000000E+00
  1.60000000E+01  1.00800000E+00  1.00800000E+00  0.00000000E+00  1.60000000E+01
  1.00800000E+00  1.00800000E+00  0.00000000E+00  1.60000000E+01  1.00800000E+00
  1.00800000E+00  0.00000000E+00  1.60000000E+01  1.00800000E+00  1.00800000E+00
  0.00000000E+00  1.60000000E+01  1.00800000E+00  1.00800000E+00  0.00000000E+00
  1.60000000E+01  1.00800000E+00  1.00800000E+00  0.00000000E+00  1.60000000E+01
  1.00800000E+00  1.00800000E+00  0.00000000E+00  1.60000000E+01  1.00800000E+00
  1.00800000E+00  0.00000000E+00  1.60000000E+01  1.00800000E+00  1.00800000E+00
  0.00000000E+00  1.60000000E+01  1.00800000E+00  1.00800000E+00  0.00000000E+00
  1.60000000E+01  1.00800000E+00  1.00800000E+00  0.00000000E+00  1.60000000E+01
  1.00800000E+00  1.00800000E+00  0.00000000E+00  1.60000000E+01  1.00800000E+00
  1.00800000E+00  0.00000000E+00  1.60000000E+01  1.00800000E+00  1.00800000E+00
  0.00000000E+00  1.60000000E+01  1.00800000E+00  1.00800000E+00  0.00000000E+00
  1.60000000E+01  1.00800000E+00  1.00800000E+00  0.00000000E+00  1.60000000E+01
  1.00800000E+00  1.00800000E+00  0.00000000E+00  1.60000000E+01  1.00800000E+00
  1.00800000E+00  0.00000000E+00  1.60000000E+01  1.00800000E+00  1.00800000E+00
  0.00000000E+00  1.60000000E+01  1.00800000E+00  1.00800000E+00  0.00000000E+00
  1.60000000E+01  1.00800000E+00  1.00800000E+00  0.00000000E+00  1.60000000E+01
  1.00800000E+00  1.00800000E+00  0.00000000E+00  1.60000000E+01  1.00800000E+00
  1.00800000E+00  0.00000000E+00  1.60000000E+01  1.00800000E+00  1.00800000E+00
  0.00000000E+00  1.60000000E+01  1.00800000E+00  1.00800000E+00  0.00000000E+00
  1.60000000E+01  1.00800000E+00  1.00800000E+00  0.00000000E+00  1.60000000E+01
  1.00800000E+00  1.00800000E+00  0.00000000E+00  1.60000000E+01  1.00800000E+00
  1.00800000E+00  0.00000000E+00  1.60000000E+01  1.00800000E+00  1.00800000E+00
  0.00000000E+00  1.60000000E+01  1.00800000E+00  1.00800000E+00  0.00000000E+00
  1.60000000E+01  1.00800000E+00  1.00800000E+00  0.00000000E+00  1.60000000E+01
  1.00800000E+00  1.00800000E+00  0.00000000E+00  1.60000000E+01  1.00800000E+00
  1.00800000E+00  0.00000000E+00  1.60000000E+01  1.00800000E+00  1.00800000E+00
  0.00000000E+00  1.60000000E+01  1.00800000E+00  1.00800000E+00  0.00000000E+00
  1.60000000E+01  1.00800000E+00  1.00800000E+00  0.00000000E+00  1.60000000E+01
  1.00800000E+00  1.00800000E+00  0.00000000E+00  1.60000000E+01  1.00800000E+00
  1.00800000E+00  0.00000000E+00  1.60000000E+01  1.00800000E+00  1.00800000E+00
  0.00000000E+00  1.60000000E+01  1.00800000E+00  1.00800000E+00  0.00000000E+00
  1.60000000E+01  1.00800000E+00  1.00800000E+00  0.00000000E+00  1.60000000E+01
  1.00800000E+00  1.00800000E+00  0.00000000E+00  1.60000000E+01  1.00800000E+00
  1.00800000E+00  0.00000000E+00  1.60000000E+01  1.00800000E+00  1.00800000E+00
  0.00000000E+00  1.60000000E+01  1.00800000E+00  1.00800000E+00  0.00000000E+00
  1.60000000E+01  1.00800000E+00  1.00800000E+00  0.00000000E+00  1.60000000E+01
  1.00800000E+00  1.00800000E+00  0.00000000E+00  1.60000000E+01  1.00800000E+00
  1.00800000E+00  0.00000000E+00  1.60000000E+01  1.00800000E+00  1.00800000E+00
  0.00000000E+00  1.60000000E+01  1.00800000E+00  1.00800000E+00  0.00000000E+00
  1.60000000E+01  1.00800000E+00  1.00800000E+00  0.00000000E+00  1.60000000E+01
  1.00800000E+00  1.00800000E+00  0.00000000E+00  1.60000000E+01  1.00800000E+00
  1.00800000E+00  0.00000000E+00  1.60000000E+01  1.00800000E+00  1.00800000E+00
  0.00000000E+00  1.60000000E+01  1.00800000E+00  1.00800000E+00  0.00000000E+00
  1.60000000E+01  1.00800000E+00  1.00800000E+00  0.00000000E+00  1.60000000E+01
  1.00800000E+00  1.00800000E+00  0.00000000E+00  1.60000000E+01  1.00800000E+00
  1.00800000E+00  0.00000000E+00  1.60000000E+01  1.00800000E+00  1.00800000E+00
  0.00000000E+00  1.60000000E+01  1.00800000E+00  1.00800000E+00  0.00000000E+00
  1.60000000E+01  1.00800000E+00  1.00800000E+00  0.00000000E+00  1.60000000E+01
  1.00800000E+00  1.00800000E+00  0.00000000E+00  1.60000000E+01  1.00800000E+00
  1.00800000E+00  0.00000000E+00  1.60000000E+01  1.00800000E+00  1.00800000E+00
  0.00000000E+00  1.60000000E+01  1.00800000E+00  1.00800000E+00  0.00000000E+00
  1.60000000E+01  1.00800000E+00  1.00800000E+00  0.00000000E+00  1.60000000E+01
  1.00800000E+00  1.00800000E+00  0.00000000E+00  1.60000000E+01  1.00800000E+00
  1.00800000E+00  0.00000000E+00  1.60000000E+01  1.00800000E+00  1.00800000E+00
  0.00000000E+00  1.60000000E+01  1.00800000E+00  1.00800000E+00  0.00000000E+00
  1.60000000E+01  1.00800000E+00  1.00800000E+00  0.00000000E+00  1.60000000E+01
  1.00800000E+00  1.00800000E+00  0.00000000E+00  1.60000000E+01  1.00800000E+00
  1.00800000E+00  0.00000000E+00  1.60000000E+01  1.00800000E+00  1.00800000E+00
  0.00000000E+00  1.60000000E+01  1.00800000E+00  1.00800000E+00  0.00000000E+00
  1.60000000E+01  1.00800000E+00  1.00800000E+00  0.00000000E+00  1.60000000E+01
  1.00800000E+00  1.00800000E+00  0.00000000E+00  1.60000000E+01  1.00800000E+00
  1.00800000E+00  0.00000000E+00  1.60000000E+01  1.00800000E+00  1.00800000E+00
  0.00000000E+00  1.60000000E+01  1.00800000E+00  1.00800000E+00  0.00000000E+00
  1.60000000E+01  1.00800000E+00  1.00800000E+00  0.00000000E+00  1.60000000E+01
  1.00800000E+00  1.00800000E+00  0.00000000E+00  1.60000000E+01  1.00800000E+00
  1.00800000E+00  0.00000000E+00  1.60000000E+01  1.00800000E+00  1.00800000E+00
  0.00000000E+00  1.60000000E+01  1.00800000E+00  1.00800000E+00  0.00000000E+00
  1.60000000E+01  1.00800000E+00  1.00800000E+00  0.00000000E+00  1.60000000E+01
  1.00800000E+00  1.00800000E+00  0.00000000E+00  1.60000000E+01  1.00800000E+00
  1.00800000E+00  0.00000000E+00  1.60000000E+01  1.00800000E+00  1.00800000E+00
  0.00000000E+00  1.60000000E+01  1.00800000E+00  1.00800000E+00  0.00000000E+00
  1.60000000E+01  1.00800000E+00  1.00800000E+00  0.00000000E+00  1.60000000E+01
  1.00800000E+00  1.00800000E+00  0.00000000E+00  1.60000000E+01  1.00800000E+00
  1.00800000E+00  0.00000000E+00  1.60000000E+01  1.00800000E+00  1.00800000E+00
  0.00000000E+00  1.60000000E+01  1.00800000E+00  1.00800000E+00  0.00000000E+00
  1.60000000E+01  1.00800000E+00  1.00800000E+00  0.00000000E+00  1.60000000E+01
  1.00800000E+00  1.00800000E+00  0.00000000E+00  1.60000000E+01  1.00800000E+00
  1.00800000E+00  0.00000000E+00  1.60000000E+01  1.00800000E+00  1.00800000E+00
  0.00000000E+00  1.60000000E+01  1.00800000E+00  1.00800000E+00  0.00000000E+00
  1.60000000E+01  1.00800000E+00  1.00800000E+00  0.00000000E+00  1.60000000E+01
  1.00800000E+00  1.00800000E+00  0.00000000E+00  1.60000000E+01  1.00800000E+00
  1.00800000E+00  0.00000000E+00  1.60000000E+01  1.00800000E+00  1.00800000E+00
  0.00000000E+00  1.60000000E+01  1.00800000E+00  1.00800000E+00  0.00000000E+00
  1.60000000E+01  1.00800000E+00  1.00800000E+00  0.00000000E+00  1.60000000E+01
  1.00800000E+00  1.00800000E+00  0.00000000E+00  1.60000000E+01  1.00800000E+00
  1.00800000E+00  0.00000000E+00  1.60000000E+01  1.00800000E+00  1.00800000E+00
  0.00000000E+00  1.60000000E+01  1.00800000E+00  1.00800000E+00  0.00000000E+00
  1.60000000E+01  1.00800000E+00  1.00800000E+00  0.00000000E+00  1.60000000E+01
  1.00800000E+00  1.00800000E+00  0.00000000E+00  1.60000000E+01  1.00800000E+00
  1.00800000E+00  0.00000000E+00  1.60000000E+01  1.00800000E+00  1.00800000E+00
  0.00000000E+00  1.60000000E+01  1.00800000E+00  1.00800000E+00  0.00000000E+00
  1.60000000E+01  1.00800000E+00  1.00800000E+00  0.00000000E+00  1.60000000E+01
  1.00800000E+00  1.00800000E+00  0.00000000E+00  1.60000000E+01  1.00800000E+00
  1.00800000E+00  0.00000000E+00  1.60000000E+01  1.00800000E+00  1.00800000E+00
  0.00000000E+00  1.60000000E+01  1.00800000E+00  1.00800000E+00  0.00000000E+00
  1.60000000E+01  1.00800000E+00  1.00800000E+00  0.00000000E+00  1.60000000E+01
  1.00800000E+00  1.00800000E+00  0.00000000E+00  1.60000000E+01  1.00800000E+00
  1.00800000E+00  0.00000000E+00  1.60000000E+01  1.00800000E+00  1.00800000E+00
  0.00000000E+00  1.60000000E+01  1.00800000E+00  1.00800000E+00  0.00000000E+00
  1.60000000E+01  1.00800000E+00  1.00800000E+00  0.00000000E+00  1.60000000E+01
  1.00800000E+00  1.00800000E+00  0.00000000E+00  1.60000000E+01  1.00800000E+00
  1.00800000E+00  0.00000000E+00  1.60000000E+01  1.00800000E+00  1.00800000E+00
  0.00000000E+00  1.60000000E+01  1.00800000E+00  1.00800000E+00  0.00000000E+00
  1.60000000E+01  1.00800000E+00  1.00800000E+00  0.00000000E+00  1.60000000E+01
  1.00800000E+00  1.00800000E+00  0.00000000E+00  1.60000000E+01  1.00800000E+00
  1.00800000E+00  0.00000000E+00  1.60000000E+01  1.00800000E+00  1.00800000E+00
  0.00000000E+00  1.60000000E+01  1.00800000E+00  1.00800000E+00  0.00000000E+00
  1.60000000E+01  1.00800000E+00  1.00800000E+00  0.00000000E+00  1.60000000E+01
  1.00800000E+00  1.00800000E+00  0.00000000E+00  1.60000000E+01  1.00800000E+00
  1.00800000E+00  0.00000000E+00  1.60000000E+01  1.00800000E+00  1.00800000E+00
  0.00000000E+00  1.60000000E+01  1.00800000E+00  1.00800000E+00  0.00000000E+00
  1.60000000E+01  1.00800000E+00  1.00800000E+00  0.00000000E+00  1.60000000E+01
  1.00800000E+00  1.00800000E+00  0.00000000E+00  1.60000000E+01  1.00800000E+00
  1.00800000E+00  0.00000000E+00  1.60000000E+01  1.00800000E+00  1.00800000E+00
  0.00000000E+00  1.60000000E+01  1.00800000E+00  1.00800000E+00  0.00000000E+00
  1.60000000E+01  1.00800000E+00  1.00800000E+00  0.00000000E+00  1.60000000E+01
  1.00800000E+00  1.00800000E+00  0.00000000E+00  1.60000000E+01  1.00800000E+00
  1.00800000E+00  0.00000000E+00  1.60000000E+01  1.00800000E+00  1.00800000E+00
  0.00000000E+00  1.60000000E+01  1.00800000E+00  1.00800000E+00  0.00000000E+00
  1.60000000E+01  1.00800000E+00  1.00800000E+00  0.00000000E+00  1.60000000E+01
  1.00800000E+00  1.00800000E+00  0.00000000E+00  1.60000000E+01  1.00800000E+00
  1.00800000E+00  0.00000000E+00  1.60000000E+01  1.00800000E+00  1.00800000E+00
  0.00000000E+00  1.60000000E+01  1.00800000E+00  1.00800000E+00  0.00000000E+00
  1.60000000E+01  1.00800000E+00  1.00800000E+00  0.00000000E+00  1.60000000E+01
  1.00800000E+00  1.00800000E+00  0.00000000E+00  1.60000000E+01  1.00800000E+00
  1.00800000E+00  0.00000000E+00  1.60000000E+01  1.00800000E+00  1.00800000E+00
  0.00000000E+00  1.60000000E+01  1.00800000E+00  1.00800000E+00  0.00000000E+00
  1.60000000E+01  1.00800000E+00  1.00800000E+00  0.00000000E+00  1.60000000E+01
  1.00800000E+00  1.00800000E+00  0.00000000E+00  1.60000000E+01  1.00800000E+00
  1.00800000E+00  0.00000000E+00  1.60000000E+01  1.00800000E+00  1.00800000E+00
  0.00000000E+00  1.60000000E+01  1.00800000E+00  1.00800000E+00  0.00000000E+00
  1.60000000E+01  1.00800000E+00  1.00800000E+00  0.00000000E+00  1.60000000E+01
  1.00800000E+00  1.00800000E+00  0.00000000E+00  1.60000000E+01  1.00800000E+00
  1.00800000E+00  0.00000000E+00  1.60000000E+01  1.00800000E+00  1.00800000E+00
  0.00000000E+00  1.60000000E+01  1.00800000E+00  1.00800000E+00  0.00000000E+00
  1.60000000E+01  1.00800000E+00  1.00800000E+00  0.00000000E+00  1.60000000E+01
  1.00800000E+00  1.00800000E+00  0.00000000E+00  1.60000000E+01  1.00800000E+00
  1.00800000E+00  0.00000000E+00  1.60000000E+01  1.00800000E+00  1.00800000E+00
  0.00000000E+00  1.60000000E+01  1.00800000E+00  1.00800000E+00  0.00000000E+00
  1.60000000E+01  1.00800000E+00  1.00800000E+00  0.00000000E+00  1.60000000E+01
  1.00800000E+00  1.00800000E+00  0.00000000E+00  1.60000000E+01  1.00800000E+00
  1.00800000E+00  0.00000000E+00  1.60000000E+01  1.00800000E+00  1.00800000E+00
  0.00000000E+00  1.60000000E+01  1.00800000E+00  1.00800000E+00  0.00000000E+00
  1.60000000E+01  1.00800000E+00  1.00800000E+00  0.00000000E+00  1.60000000E+01
  1.00800000E+00  1.00800000E+00  0.00000000E+00  1.60000000E+01  1.00800000E+00
  1.00800000E+00  0.00000000E+00  1.60000000E+01  1.00800000E+00  1.00800000E+00
  0.00000000E+00  1.60000000E+01  1.00800000E+00  1.00800000E+00  0.00000000E+00
  1.60000000E+01  1.00800000E+00  1.00800000E+00  0.00000000E+00  1.60000000E+01
  1.00800000E+00  1.00800000E+00  0.00000000E+00  1.60000000E+01  1.00800000E+00
  1.00800000E+00  0.00000000E+00  1.60000000E+01  1.00800000E+00  1.00800000E+00
  0.00000000E+00  1.60000000E+01  1.00800000E+00  1.00800000E+00  0.00000000E+00
  1.60000000E+01  1.00800000E+00  1.00800000E+00  0.00000000E+00  1.60000000E+01
  1.00800000E+00  1.00800000E+00  0.00000000E+00  1.60000000E+01  1.00800000E+00
  1.00800000E+00  0.00000000E+00  1.60000000E+01  1.00800000E+00  1.00800000E+00
  0.00000000E+00  1.60000000E+01  1.00800000E+00  1.00800000E+00  0.00000000E+00
  1.60000000E+01  1.00800000E+00  1.00800000E+00  0.00000000E+00  1.60000000E+01
  1.00800000E+00  1.00800000E+00  0.00000000E+00  1.60000000E+01  1.00800000E+00
  1.00800000E+00  0.00000000E+00  1.60000000E+01  1.00800000E+00  1.00800000E+00
  0.00000000E+00  1.60000000E+01  1.00800000E+00  1.00800000E+00  0.00000000E+00
  1.60000000E+01  1.00800000E+00  1.00800000E+00  0.00000000E+00  1.60000000E+01
  1.00800000E+00  1.00800000E+00  0.00000000E+00  1.60000000E+01  1.00800000E+00
  1.00800000E+00  0.00000000E+00  1.60000000E+01  1.00800000E+00  1.00800000E+00
  0.00000000E+00  1.60000000E+01  1.00800000E+00  1.00800000E+00  0.00000000E+00
  1.60000000E+01  1.00800000E+00  1.00800000E+00  0.00000000E+00  1.60000000E+01
  1.00800000E+00  1.00800000E+00  0.00000000E+00  1.60000000E+01  1.00800000E+00
  1.00800000E+00  0.00000000E+00  1.60000000E+01  1.00800000E+00  1.00800000E+00
  0.00000000E+00  1.60000000E+01  1.00800000E+00  1.00800000E+00  0.00000000E+00
  1.60000000E+01  1.00800000E+00  1.00800000E+00  0.00000000E+00  1.60000000E+01
  1.00800000E+00  1.00800000E+00  0.00000000E+00  1.60000000E+01  1.00800000E+00
  1.00800000E+00  0.00000000E+00  1.60000000E+01  1.00800000E+00  1.00800000E+00
  0.00000000E+00  1.60000000E+01  1.00800000E+00  1.00800000E+00  0.00000000E+00
  1.60000000E+01  1.00800000E+00  1.00800000E+00  0.00000000E+00  1.60000000E+01
  1.00800000E+00  1.00800000E+00  0.00000000E+00  1.60000000E+01  1.00800000E+00
  1.00800000E+00  0.00000000E+00  1.60000000E+01  1.00800000E+00  1.00800000E+00
  0.00000000E+00  1.60000000E+01  1.00800000E+00  1.00800000E+00  0.00000000E+00
  1.60000000E+01  1.00800000E+00  1.00800000E+00  0.00000000E+00  1.60000000E+01
  1.00800000E+00  1.00800000E+00  0.00000000E+00  1.60000000E+01  1.00800000E+00
  1.00800000E+00  0.00000000E+00  1.60000000E+01  1.00800000E+00  1.00800000E+00
  0.00000000E+00  1.60000000E+01  1.00800000E+00  1.00800000E+00  0.00000000E+00
  1.60000000E+01  1.00800000E+00  1.00800000E+00  0.00000000E+00  1.60000000E+01
  1.00800000E+00  1.00800000E+00  0.00000000E+00  1.60000000E+01  1.00800000E+00
  1.00800000E+00  0.00000000E+00  1.60000000E+01  1.00800000E+00  1.00800000E+00
  0.00000000E+00  1.60000000E+01  1.00800000E+00  1.00800000E+00  0.00000000E+00
  1.60000000E+01  1.00800000E+00  1.00800000E+00  0.00000000E+00  1.60000000E+01
  1.00800000E+00  1.00800000E+00  0.00000000E+00  1.60000000E+01  1.00800000E+00
  1.00800000E+00  0.00000000E+00  1.60000000E+01  1.00800000E+00  1.00800000E+00
  0.00000000E+00  1.60000000E+01  1.00800000E+00  1.00800000E+00  0.00000000E+00
  1.60000000E+01  1.00800000E+00  1.00800000E+00  0.00000000E+00  1.60000000E+01
  1.00800000E+00  1.00800000E+00  0.00000000E+00  1.60000000E+01  1.00800000E+00
  1.00800000E+00  0.00000000E+00  1.60000000E+01  1.00800000E+00  1.00800000E+00
  0.00000000E+00  1.60000000E+01  1.00800000E+00  1.00800000E+00  0.00000000E+00
  1.60000000E+01  1.00800000E+00  1.00800000E+00  0.00000000E+00  1.60000000E+01
  1.00800000E+00  1.00800000E+00  0.00000000E+00  1.60000000E+01  1.00800000E+00
  1.00800000E+00  0.00000000E+00  1.60000000E+01  1.00800000E+00  1.00800000E+00
  0.00000000E+00  1.60000000E+01  1.00800000E+00  1.00800000E+00  0.00000000E+00
  1.60000000E+01  1.00800000E+00  1.00800000E+00  0.00000000E+00  1.60000000E+01
  1.00800000E+00  1.00800000E+00  0.00000000E+00  1.60000000E+01  1.00800000E+00
  1.00800000E+00  0.00000000E+00  1.60000000E+01  1.00800000E+00  1.00800000E+00
  0.00000000E+00  1.60000000E+01  1.00800000E+00  1.00800000E+00  0.00000000E+00
  1.60000000E+01  1.00800000E+00  1.00800000E+00  0.00000000E+00  1.60000000E+01
  1.00800000E+00  1.00800000E+00  0.00000000E+00  1.60000000E+01  1.00800000E+00
  1.00800000E+00  0.00000000E+00  1.60000000E+01  1.00800000E+00  1.00800000E+00
  0.00000000E+00  1.60000000E+01  1.00800000E+00  1.00800000E+00  0.00000000E+00
  1.60000000E+01  1.00800000E+00  1.00800000E+00  0.00000000E+00  1.60000000E+01
  1.00800000E+00  1.00800000E+00  0.00000000E+00  1.60000000E+01  1.00800000E+00
  1.00800000E+00  0.00000000E+00  1.60000000E+01  1.00800000E+00  1.00800000E+00
  0.00000000E+00  1.60000000E+01  1.00800000E+00  1.00800000E+00  0.00000000E+00
  1.60000000E+01  1.00800000E+00  1.00800000E+00  0.00000000E+00  1.60000000E+01
  1.00800000E+00  1.00800000E+00  0.00000000E+00  1.60000000E+01  1.00800000E+00
  1.00800000E+00  0.00000000E+00  1.60000000E+01  1.00800000E+00  1.00800000E+00
  0.00000000E+00  1.60000000E+01  1.00800000E+00  1.00800000E+00  0.00000000E+00
  1.60000000E+01  1.00800000E+00  1.00800000E+00  0.00000000E+00  1.60000000E+01
  1.00800000E+00  1.00800000E+00  0.00000000E+00  1.60000000E+01  1.00800000E+00
  1.00800000E+00  0.00000000E+00  1.60000000E+01  1.00800000E+00  1.00800000E+00
  0.00000000E+00  1.60000000E+01  1.00800000E+00  1.00800000E+00  0.00000000E+00
  1.60000000E+01  1.00800000E+00  1.00800000E+00  0.00000000E+00  1.60000000E+01
  1.00800000E+00  1.00800000E+00  0.00000000E+00  1.60000000E+01  1.00800000E+00
  1.00800000E+00  0.00000000E+00  1.60000000E+01  1.00800000E+00  1.00800000E+00
  0.00000000E+00  1.60000000E+01  1.00800000E+00  1.00800000E+00  0.00000000E+00
  1.60000000E+01  1.00800000E+00  1.00800000E+00  0.00000000E+00  1.60000000E+01
  1.00800000E+00  1.00800000E+00  0.00000000E+00  1.60000000E+01  1.00800000E+00
  1.00800000E+00  0.00000000E+00  1.60000000E+01  1.00800000E+00  1.00800000E+00
  0.00000000E+00  1.60000000E+01  1.00800000E+00  1.00800000E+00  0.00000000E+00
  1.60000000E+01  1.00800000E+00  1.00800000E+00  0.00000000E+00  1.60000000E+01
  1.00800000E+00  1.00800000E+00  0.00000000E+00  1.60000000E+01  1.00800000E+00
  1.00800000E+00  0.00000000E+00  1.60000000E+01  1.00800000E+00  1.00800000E+00
  0.00000000E+00  1.60000000E+01  1.00800000E+00  1.00800000E+00  0.00000000E+00
  1.60000000E+01  1.00800000E+00  1.00800000E+00  0.00000000E+00  1.60000000E+01
  1.00800000E+00  1.00800000E+00  0.00000000E+00  1.60000000E+01  1.00800000E+00
  1.00800000E+00  0.00000000E+00  1.60000000E+01  1.00800000E+00  1.00800000E+00
  0.00000000E+00  1.60000000E+01  1.00800000E+00  1.00800000E+00  0.00000000E+00
  1.60000000E+01  1.00800000E+00  1.00800000E+00  0.00000000E+00  1.60000000E+01
  1.00800000E+00  1.00800000E+00  0.00000000E+00  1.60000000E+01  1.00800000E+00
  1.00800000E+00  0.00000000E+00  1.60000000E+01  1.00800000E+00  1.00800000E+00
  0.00000000E+00  1.60000000E+01  1.00800000E+00  1.00800000E+00  0.00000000E+00
  1.60000000E+01  1.00800000E+00  1.00800000E+00  0.00000000E+00  1.60000000E+01
  1.00800000E+00  1.00800000E+00  0.00000000E+00  1.60000000E+01  1.00800000E+00
  1.00800000E+00  0.00000000E+00  1.60000000E+01  1.00800000E+00  1.00800000E+00
  0.00000000E+00  1.60000000E+01  1.00800000E+00  1.00800000E+00  0.00000000E+00
  1.60000000E+01  1.00800000E+00  1.00800000E+00  0.00000000E+00  1.60000000E+01
  1.00800000E+00  1.00800000E+00  0.00000000E+00  1.60000000E+01  1.00800000E+00
  1.00800000E+00  0.00000000E+00  1.60000000E+01  1.00800000E+00  1.00800000E+00
  0.00000000E+00  1.60000000E+01  1.00800000E+00  1.00800000E+00  0.00000000E+00
  1.60000000E+01  1.00800000E+00  1.00800000E+00  0.00000000E+00  1.60000000E+01
  1.00800000E+00  1.00800000E+00  0.00000000E+00  1.60000000E+01  1.00800000E+00
  1.00800000E+00  0.00000000E+00  1.60000000E+01  1.00800000E+00  1.00800000E+00
  0.00000000E+00  1.60000000E+01  1.00800000E+00  1.00800000E+00  0.00000000E+00
  1.60000000E+01  1.00800000E+00  1.00800000E+00  0.00000000E+00  1.60000000E+01
  1.00800000E+00  1.00800000E+00  0.00000000E+00  1.60000000E+01  1.00800000E+00
  1.00800000E+00  0.00000000E+00  1.60000000E+01  1.00800000E+00  1.00800000E+00
  0.00000000E+00  1.60000000E+01  1.00800000E+00  1.00800000E+00  0.00000000E+00
  1.60000000E+01  1.00800000E+00  1.00800000E+00  0.00000000E+00  1.60000000E+01
  1.00800000E+00  1.00800000E+00  0.00000000E+00  1.60000000E+01  1.00800000E+00
  1.00800000E+00  0.00000000E+00  1.60000000E+01  1.00800000E+00  1.00800000E+00
  0.00000000E+00  1.60000000E+01  1.00800000E+00  1.00800000E+00  0.00000000E+00
  1.60000000E+01  1.00800000E+00  1.00800000E+00  0.00000000E+00  1.60000000E+01
  1.00800000E+00  1.00800000E+00  0.00000000E+00  1.60000000E+01  1.00800000E+00
  1.00800000E+00  0.00000000E+00  1.60000000E+01  1.00800000E+00  1.00800000E+00
  0.00000000E+00  1.60000000E+01  1.00800000E+00  1.00800000E+00  0.00000000E+00
  1.60000000E+01  1.00800000E+00  1.00800000E+00  0.00000000E+00  1.60000000E+01
  1.00800000E+00  1.00800000E+00  0.00000000E+00  1.60000000E+01  1.00800000E+00
  1.00800000E+00  0.00000000E+00  1.60000000E+01  1.00800000E+00  1.00800000E+00
  0.00000000E+00  1.60000000E+01  1.00800000E+00  1.00800000E+00  0.00000000E+00
  1.60000000E+01  1.00800000E+00  1.00800000E+00  0.00000000E+00  1.60000000E+01
  1.00800000E+00  1.00800000E+00  0.00000000E+00  1.60000000E+01  1.00800000E+00
  1.00800000E+00  0.00000000E+00  1.60000000E+01  1.00800000E+00  1.00800000E+00
  0.00000000E+00  1.60000000E+01  1.00800000E+00  1.00800000E+00  0.00000000E+00
  1.60000000E+01  1.00800000E+00  1.00800000E+00  0.00000000E+00  1.60000000E+01
  1.00800000E+00  1.00800000E+00  0.00000000E+00  1.60000000E+01  1.00800000E+00
  1.00800000E+00  0.00000000E+00  1.60000000E+01  1.00800000E+00  1.00800000E+00
  0.00000000E+00  1.60000000E+01  1.00800000E+00  1.00800000E+00  0.00000000E+00
  1.60000000E+01  1.00800000E+00  1.00800000E+00  0.00000000E+00  1.60000000E+01
  1.00800000E+00  1.00800000E+00  0.00000000E+00  1.60000000E+01  1.00800000E+00
  1.00800000E+00  0.00000000E+00  1.60000000E+01  1.00800000E+00  1.00800000E+00
  0.00000000E+00  1.60000000E+01  1.00800000E+00  1.00800000E+00  0.00000000E+00
  1.60000000E+01  1.00800000E+00  1.00800000E+00  0.00000000E+00  1.60000000E+01
  1.00800000E+00  1.00800000E+00  0.00000000E+00  1.60000000E+01  1.00800000E+00
  1.00800000E+00  0.00000000E+00  1.60000000E+01  1.00800000E+00  1.00800000E+00
  0.00000000E+00  1.60000000E+01  1.00800000E+00  1.00800000E+00  0.00000000E+00
  1.60000000E+01  1.00800000E+00  1.00800000E+00  0.00000000E+00  1.60000000E+01
  1.00800000E+00  1.00800000E+00  0.00000000E+00  1.60000000E+01  1.00800000E+00
  1.00800000E+00  0.00000000E+00  1.60000000E+01  1.00800000E+00  1.00800000E+00
  0.00000000E+00  1.60000000E+01  1.00800000E+00  1.00800000E+00  0.00000000E+00
  1.60000000E+01  1.00800000E+00  1.00800000E+00  0.00000000E+00  1.60000000E+01
  1.00800000E+00  1.00800000E+00  0.00000000E+00  1.60000000E+01  1.00800000E+00
  1.00800000E+00  0.00000000E+00  1.60000000E+01  1.00800000E+00  1.00800000E+00
  0.00000000E+00  1.60000000E+01  1.00800000E+00  1.00800000E+00  0.00000000E+00
  1.60000000E+01  1.00800000E+00  1.00800000E+00  0.00000000E+00  1.60000000E+01
  1.00800000E+00  1.00800000E+00  0.00000000E+00  1.60000000E+01  1.00800000E+00
  1.00800000E+00  0.00000000E+00  1.60000000E+01  1.00800000E+00  1.00800000E+00
  0.00000000E+00  1.60000000E+01  1.00800000E+00  1.00800000E+00  0.00000000E+00
  1.60000000E+01  1.00800000E+00  1.00800000E+00  0.00000000E+00  1.60000000E+01
  1.00800000E+00  1.00800000E+00  0.00000000E+00  1.60000000E+01  1.00800000E+00
  1.00800000E+00  0.00000000E+00  1.60000000E+01  1.00800000E+00  1.00800000E+00
  0.00000000E+00  1.60000000E+01  1.00800000E+00  1.00800000E+00  0.00000000E+00
  1.60000000E+01  1.00800000E+00  1.00800000E+00  0.00000000E+00  1.60000000E+01
  1.00800000E+00  1.00800000E+00  0.00000000E+00  1.60000000E+01  1.00800000E+00
  1.00800000E+00  0.00000000E+00  1.60000000E+01  1.00800000E+00  1.00800000E+00
  0.00000000E+00  1.60000000E+01  1.00800000E+00  1.00800000E+00  0.00000000E+00
  1.60000000E+01  1.00800000E+00  1.00800000E+00  0.00000000E+00  1.60000000E+01
  1.00800000E+00  1.00800000E+00  0.00000000E+00  1.60000000E+01  1.00800000E+00
  1.00800000E+00  0.00000000E+00  1.60000000E+01  1.00800000E+00  1.00800000E+00
  0.00000000E+00  1.60000000E+01  1.00800000E+00  1.00800000E+00  0.00000000E+00
  1.60000000E+01  1.00800000E+00  1.00800000E+00  0.00000000E+00  1.60000000E+01
  1.00800000E+00  1.00800000E+00  0.00000000E+00  1.60000000E+01  1.00800000E+00
  1.00800000E+00  0.00000000E+00  1.60000000E+01  1.00800000E+00  1.00800000E+00
  0.00000000E+00  1.60000000E+01  1.00800000E+00  1.00800000E+00  0.00000000E+00
  1.60000000E+01  1.00800000E+00  1.00800000E+00  0.00000000E+00  1.60000000E+01
  1.00800000E+00  1.00800000E+00  0.00000000E+00  1.60000000E+01  1.00800000E+00
  1.00800000E+00  0.00000000E+00  1.60000000E+01  1.00800000E+00  1.00800000E+00
  0.00000000E+00  1.60000000E+01  1.00800000E+00  1.00800000E+00  0.00000000E+00
  1.60000000E+01  1.00800000E+00  1.00800000E+00  0.00000000E+00  1.60000000E+01
  1.00800000E+00  1.00800000E+00  0.00000000E+00  1.60000000E+01  1.00800000E+00
  1.00800000E+00  0.00000000E+00  1.60000000E+01  1.00800000E+00  1.00800000E+00
  0.00000000E+00  1.60000000E+01  1.00800000E+00  1.00800000E+00  0.00000000E+00
  1.60000000E+01  1.00800000E+00  1.00800000E+00  0.00000000E+00  1.60000000E+01
  1.00800000E+00  1.00800000E+00  0.00000000E+00  1.60000000E+01  1.00800000E+00
  1.00800000E+00  0.00000000E+00  1.60000000E+01  1.00800000E+00  1.00800000E+00
  0.00000000E+00  1.60000000E+01  1.00800000E+00  1.00800000E+00  0.00000000E+00
  1.60000000E+01  1.00800000E+00  1.00800000E+00  0.00000000E+00  1.60000000E+01
  1.00800000E+00  1.00800000E+00  0.00000000E+00  1.60000000E+01  1.00800000E+00
  1.00800000E+00  0.00000000E+00  1.60000000E+01  1.00800000E+00  1.00800000E+00
  0.00000000E+00  1.60000000E+01  1.00800000E+00  1.00800000E+00  0.00000000E+00
  1.60000000E+01  1.00800000E+00  1.00800000E+00  0.00000000E+00  1.60000000E+01
  1.00800000E+00  1.00800000E+00  0.00000000E+00  1.60000000E+01  1.00800000E+00
  1.00800000E+00  0.00000000E+00  1.60000000E+01  1.00800000E+00  1.00800000E+00
  0.00000000E+00  1.60000000E+01  1.00800000E+00  1.00800000E+00  0.00000000E+00
  1.60000000E+01  1.00800000E+00  1.00800000E+00  0.00000000E+00  1.60000000E+01
  1.00800000E+00  1.00800000E+00  0.00000000E+00  1.60000000E+01  1.00800000E+00
  1.00800000E+00  0.00000000E+00  1.60000000E+01  1.00800000E+00  1.00800000E+00
  0.00000000E+00  1.60000000E+01  1.00800000E+00  1.00800000E+00  0.00000000E+00
  1.60000000E+01  1.00800000E+00  1.00800000E+00  0.00000000E+00  1.60000000E+01
  1.00800000E+00  1.00800000E+00  0.00000000E+00  1.60000000E+01  1.00800000E+00
  1.00800000E+00  0.00000000E+00  1.60000000E+01  1.00800000E+00  1.00800000E+00
  0.00000000E+00  1.60000000E+01  1.00800000E+00  1.00800000E+00  0.00000000E+00
  1.60000000E+01  1.00800000E+00  1.00800000E+00  0.00000000E+00  1.60000000E+01
  1.00800000E+00  1.00800000E+00  0.00000000E+00  1.60000000E+01  1.00800000E+00
  1.00800000E+00  0.00000000E+00  1.60000000E+01  1.00800000E+00  1.00800000E+00
  0.00000000E+00  1.60000000E+01  1.00800000E+00  1.00800000E+00  0.00000000E+00
  1.60000000E+01  1.00800000E+00  1.00800000E+00  0.00000000E+00  1.60000000E+01
  1.00800000E+00  1.00800000E+00  0.00000000E+00  1.60000000E+01  1.00800000E+00
  1.00800000E+00  0.00000000E+00  1.60000000E+01  1.00800000E+00  1.00800000E+00
  0.00000000E+00  1.60000000E+01  1.00800000E+00  1.00800000E+00  0.00000000E+00
  1.60000000E+01  1.00800000E+00  1.00800000E+00  0.00000000E+00  1.60000000E+01
  1.00800000E+00  1.00800000E+00  0.00000000E+00  1.60000000E+01  1.00800000E+00
  1.00800000E+00  0.00000000E+00  1.60000000E+01  1.00800000E+00  1.00800000E+00
  0.00000000E+00  1.60000000E+01  1.00800000E+00  1.00800000E+00  0.00000000E+00
  1.60000000E+01  1.00800000E+00  1.00800000E+00  0.00000000E+00  1.60000000E+01
  1.00800000E+00  1.00800000E+00  0.00000000E+00  1.60000000E+01  1.00800000E+00
  1.00800000E+00  0.00000000E+00  1.60000000E+01  1.00800000E+00  1.00800000E+00
  0.00000000E+00  1.60000000E+01  1.00800000E+00  1.00800000E+00  0.00000000E+00
  1.60000000E+01  1.00800000E+00  1.00800000E+00  0.00000000E+00  1.60000000E+01
  1.00800000E+00  1.00800000E+00  0.00000000E+00  1.60000000E+01  1.00800000E+00
  1.00800000E+00  0.00000000E+00  1.60000000E+01  1.00800000E+00  1.00800000E+00
  0.00000000E+00  1.60000000E+01  1.00800000E+00  1.00800000E+00  0.00000000E+00
  1.60000000E+01  1.00800000E+00  1.00800000E+00  0.00000000E+00  1.60000000E+01
  1.00800000E+00  1.00800000E+00  0.00000000E+00  1.60000000E+01  1.00800000E+00
  1.00800000E+00  0.00000000E+00  1.60000000E+01  1.00800000E+00  1.00800000E+00
  0.00000000E+00  1.60000000E+01  1.00800000E+00  1.00800000E+00  0.00000000E+00
  1.60000000E+01  1.00800000E+00  1.00800000E+00  0.00000000E+00  1.60000000E+01
  1.00800000E+00  1.00800000E+00  0.00000000E+00  1.60000000E+01  1.00800000E+00
  1.00800000E+00  0.00000000E+00  1.60000000E+01  1.00800000E+00  1.00800000E+00
  0.00000000E+00  1.60000000E+01  1.00800000E+00  1.00800000E+00  0.00000000E+00
  1.60000000E+01  1.00800000E+00  1.00800000E+00  0.00000000E+00  1.60000000E+01
  1.00800000E+00  1.00800000E+00  0.00000000E+00  1.60000000E+01  1.00800000E+00
  1.00800000E+00  0.00000000E+00  1.60000000E+01  1.00800000E+00  1.00800000E+00
  0.00000000E+00  1.60000000E+01  1.00800000E+00  1.00800000E+00  0.00000000E+00
  1.60000000E+01  1.00800000E+00  1.00800000E+00  0.00000000E+00  1.60000000E+01
  1.00800000E+00  1.00800000E+00  0.00000000E+00  1.60000000E+01  1.00800000E+00
  1.00800000E+00  0.00000000E+00  1.60000000E+01  1.00800000E+00  1.00800000E+00
  0.00000000E+00  1.60000000E+01  1.00800000E+00  1.00800000E+00  0.00000000E+00
  1.60000000E+01  1.00800000E+00  1.00800000E+00  0.00000000E+00  1.60000000E+01
  1.00800000E+00  1.00800000E+00  0.00000000E+00  1.60000000E+01  1.00800000E+00
  1.00800000E+00  0.00000000E+00  1.60000000E+01  1.00800000E+00  1.00800000E+00
  0.00000000E+00  1.60000000E+01  1.00800000E+00  1.00800000E+00  0.00000000E+00
  1.60000000E+01  1.00800000E+00  1.00800000E+00  0.00000000E+00  1.60000000E+01
  1.00800000E+00  1.00800000E+00  0.00000000E+00  1.60000000E+01  1.00800000E+00
  1.00800000E+00  0.00000000E+00  1.60000000E+01  1.00800000E+00  1.00800000E+00
  0.00000000E+00  1.60000000E+01  1.00800000E+00  1.00800000E+00  0.00000000E+00
  1.60000000E+01  1.00800000E+00  1.00800000E+00  0.00000000E+00  1.60000000E+01
  1.00800000E+00  1.00800000E+00  0.00000000E+00  1.60000000E+01  1.00800000E+00
  1.00800000E+00  0.00000000E+00  1.60000000E+01  1.00800000E+00  1.00800000E+00
  0.00000000E+00  1.60000000E+01  1.00800000E+00  1.00800000E+00  0.00000000E+00
  1.60000000E+01  1.00800000E+00  1.00800000E+00  0.00000000E+00  1.60000000E+01
  1.00800000E+00  1.00800000E+00  0.00000000E+00  1.60000000E+01  1.00800000E+00
  1.00800000E+00  0.00000000E+00  1.60000000E+01  1.00800000E+00  1.00800000E+00
  0.00000000E+00  1.60000000E+01  1.00800000E+00  1.00800000E+00  0.00000000E+00
  1.60000000E+01  1.00800000E+00  1.00800000E+00  0.00000000E+00  1.60000000E+01
  1.00800000E+00  1.00800000E+00  0.00000000E+00  1.60000000E+01  1.00800000E+00
  1.00800000E+00  0.00000000E+00  1.60000000E+01  1.00800000E+00  1.00800000E+00
  0.00000000E+00  1.60000000E+01  1.00800000E+00  1.00800000E+00  0.00000000E+00
  1.60000000E+01  1.00800000E+00  1.00800000E+00  0.00000000E+00  1.60000000E+01
  1.00800000E+00  1.00800000E+00  0.00000000E+00  1.60000000E+01  1.00800000E+00
  1.00800000E+00  0.00000000E+00  1.60000000E+01  1.00800000E+00  1.00800000E+00
  0.00000000E+00  1.60000000E+01  1.00800000E+00  1.00800000E+00  0.00000000E+00
  1.60000000E+01  1.00800000E+00  1.00800000E+00  0.00000000E+00  1.60000000E+01
  1.00800000E+00  1.00800000E+00  0.00000000E+00  1.60000000E+01  1.00800000E+00
  1.00800000E+00  0.00000000E+00  1.60000000E+01  1.00800000E+00  1.00800000E+00
  0.00000000E+00  1.60000000E+01  1.00800000E+00  1.00800000E+00  0.00000000E+00
  1.60000000E+01  1.00800000E+00  1.00800000E+00  0.00000000E+00  1.60000000E+01
  1.00800000E+00  1.00800000E+00  0.00000000E+00  1.60000000E+01  1.00800000E+00
  1.00800000E+00  0.00000000E+00  1.60000000E+01  1.00800000E+00  1.00800000E+00
  0.00000000E+00  1.60000000E+01  1.00800000E+00  1.00800000E+00  0.00000000E+00
  1.60000000E+01  1.00800000E+00  1.00800000E+00  0.00000000E+00  1.60000000E+01
  1.00800000E+00  1.00800000E+00  0.00000000E+00  1.60000000E+01  1.00800000E+00
  1.00800000E+00  0.00000000E+00  1.60000000E+01  1.00800000E+00  1.00800000E+00
  0.00000000E+00  1.60000000E+01  1.00800000E+00  1.00800000E+00  0.00000000E+00
  1.60000000E+01  1.00800000E+00  1.00800000E+00  0.00000000E+00  1.60000000E+01
  1.00800000E+00  1.00800000E+00  0.00000000E+00  1.60000000E+01  1.00800000E+00
  1.00800000E+00  0.00000000E+00  1.60000000E+01  1.00800000E+00  1.00800000E+00
  0.00000000E+00  1.60000000E+01  1.00800000E+00  1.00800000E+00  0.00000000E+00
  1.60000000E+01  1.00800000E+00  1.00800000E+00  0.00000000E+00  1.60000000E+01
  1.00800000E+00  1.00800000E+00  0.00000000E+00  1.60000000E+01  1.00800000E+00
  1.00800000E+00  0.00000000E+00  1.60000000E+01  1.00800000E+00  1.00800000E+00
  0.00000000E+00  1.60000000E+01  1.00800000E+00  1.00800000E+00  0.00000000E+00
  1.60000000E+01  1.00800000E+00  1.00800000E+00  0.00000000E+00  1.60000000E+01
  1.00800000E+00  1.00800000E+00  0.00000000E+00  1.60000000E+01  1.00800000E+00
  1.00800000E+00  0.00000000E+00  1.60000000E+01  1.00800000E+00  1.00800000E+00
  0.00000000E+00  1.60000000E+01  1.00800000E+00  1.00800000E+00  0.00000000E+00
  1.60000000E+01  1.00800000E+00  1.00800000E+00  0.00000000E+00  1.60000000E+01
  1.00800000E+00  1.00800000E+00  0.00000000E+00  1.60000000E+01  1.00800000E+00
  1.00800000E+00  0.00000000E+00  1.60000000E+01  1.00800000E+00  1.00800000E+00
  0.00000000E+00  1.60000000E+01  1.00800000E+00  1.00800000E+00  0.00000000E+00
  1.60000000E+01  1.00800000E+00  1.00800000E+00  0.00000000E+00  1.60000000E+01
  1.00800000E+00  1.00800000E+00  0.00000000E+00  1.60000000E+01  1.00800000E+00
  1.00800000E+00  0.00000000E+00  1.60000000E+01  1.00800000E+00  1.00800000E+00
  0.00000000E+00  1.60000000E+01  1.00800000E+00  1.00800000E+00  0.00000000E+00
  1.60000000E+01  1.00800000E+00  1.00800000E+00  0.00000000E+00  1.60000000E+01
  1.00800000E+00  1.00800000E+00  0.00000000E+00  1.60000000E+01  1.00800000E+00
  1.00800000E+00  0.00000000E+00  1.60000000E+01  1.00800000E+00  1.00800000E+00
  0.00000000E+00  1.60000000E+01  1.00800000E+00  1.00800000E+00  0.00000000E+00
  1.60000000E+01  1.00800000E+00  1.00800000E+00  0.00000000E+00  1.60000000E+01
  1.00800000E+00  1.00800000E+00  0.00000000E+00  1.60000000E+01  1.00800000E+00
  1.00800000E+00  0.00000000E+00  1.60000000E+01  1.00800000E+00  1.00800000E+00
  0.00000000E+00  1.60000000E+01  1.00800000E+00  1.00800000E+00  0.00000000E+00
  1.60000000E+01  1.00800000E+00  1.00800000E+00  0.00000000E+00  1.60000000E+01
  1.00800000E+00  1.00800000E+00  0.00000000E+00  1.60000000E+01  1.00800000E+00
  1.00800000E+00  0.00000000E+00  1.60000000E+01  1.00800000E+00  1.00800000E+00
  0.00000000E+00  1.60000000E+01  1.00800000E+00  1.00800000E+00  0.00000000E+00
  1.60000000E+01  1.00800000E+00  1.00800000E+00  0.00000000E+00  1.60000000E+01
  1.00800000E+00  1.00800000E+00  0.00000000E+00  1.60000000E+01  1.00800000E+00
  1.00800000E+00  0.00000000E+00  1.60000000E+01  1.00800000E+00  1.00800000E+00
  0.00000000E+00  1.60000000E+01  1.00800000E+00  1.00800000E+00  0.00000000E+00
  1.60000000E+01  1.00800000E+00  1.00800000E+00  0.00000000E+00  1.60000000E+01
  1.00800000E+00  1.00800000E+00  0.00000000E+00  1.60000000E+01  1.00800000E+00
  1.00800000E+00  0.00000000E+00  1.60000000E+01  1.00800000E+00  1.00800000E+00
  0.00000000E+00  1.60000000E+01  1.00800000E+00  1.00800000E+00  0.00000000E+00
  1.60000000E+01  1.00800000E+00  1.00800000E+00  0.00000000E+00  1.60000000E+01
  1.00800000E+00  1.00800000E+00  0.00000000E+00  1.60000000E+01  1.00800000E+00
  1.00800000E+00  0.00000000E+00  1.60000000E+01  1.00800000E+00  1.00800000E+00
  0.00000000E+00  1.60000000E+01  1.00800000E+00  1.00800000E+00  0.00000000E+00
  1.60000000E+01  1.00800000E+00  1.00800000E+00  0.00000000E+00  1.60000000E+01
  1.00800000E+00  1.00800000E+00  0.00000000E+00  1.60000000E+01  1.00800000E+00
  1.00800000E+00  0.00000000E+00  1.60000000E+01  1.00800000E+00  1.00800000E+00
  0.00000000E+00  1.60000000E+01  1.00800000E+00  1.00800000E+00  0.00000000E+00
  1.60000000E+01  1.00800000E+00  1.00800000E+00  0.00000000E+00  1.60000000E+01
  1.00800000E+00  1.00800000E+00  0.00000000E+00  1.60000000E+01  1.00800000E+00
  1.00800000E+00  0.00000000E+00  1.60000000E+01  1.00800000E+00  1.00800000E+00
  0.00000000E+00  1.60000000E+01  1.00800000E+00  1.00800000E+00  0.00000000E+00
  1.60000000E+01  1.00800000E+00  1.00800000E+00  0.00000000E+00  1.60000000E+01
  1.00800000E+00  1.00800000E+00  0.00000000E+00  1.60000000E+01  1.00800000E+00
  1.00800000E+00  0.00000000E+00  1.60000000E+01  1.00800000E+00  1.00800000E+00
  0.00000000E+00  1.60000000E+01  1.00800000E+00  1.00800000E+00  0.00000000E+00
  1.60000000E+01  1.00800000E+00  1.00800000E+00  0.00000000E+00  1.60000000E+01
  1.00800000E+00  1.00800000E+00  0.00000000E+00  1.60000000E+01  1.00800000E+00
  1.00800000E+00  0.00000000E+00  1.60000000E+01  1.00800000E+00  1.00800000E+00
  0.00000000E+00  1.60000000E+01  1.00800000E+00  1.00800000E+00  0.00000000E+00
  1.60000000E+01  1.00800000E+00  1.00800000E+00  0.00000000E+00  1.60000000E+01
  1.00800000E+00  1.00800000E+00  0.00000000E+00  1.60000000E+01  1.00800000E+00
  1.00800000E+00  0.00000000E+00  1.60000000E+01  1.00800000E+00  1.00800000E+00
  0.00000000E+00  1.60000000E+01  1.00800000E+00  1.00800000E+00  0.00000000E+00
  1.60000000E+01  1.00800000E+00  1.00800000E+00  0.00000000E+00  1.60000000E+01
  1.00800000E+00  1.00800000E+00  0.00000000E+00  1.60000000E+01  1.00800000E+00
  1.00800000E+00  0.00000000E+00  1.60000000E+01  1.00800000E+00  1.00800000E+00
  0.00000000E+00  1.60000000E+01  1.00800000E+00  1.00800000E+00  0.00000000E+00
  1.60000000E+01  1.00800000E+00  1.00800000E+00  0.00000000E+00  1.60000000E+01
  1.00800000E+00  1.00800000E+00  0.00000000E+00  1.60000000E+01  1.00800000E+00
  1.00800000E+00  0.00000000E+00  1.60000000E+01  1.00800000E+00  1.00800000E+00
  0.00000000E+00  1.60000000E+01  1.00800000E+00  1.00800000E+00  0.00000000E+00
  1.60000000E+01  1.00800000E+00  1.00800000E+00  0.00000000E+00  1.60000000E+01
  1.00800000E+00  1.00800000E+00  0.00000000E+00  1.60000000E+01  1.00800000E+00
  1.00800000E+00  0.00000000E+00  1.60000000E+01  1.00800000E+00  1.00800000E+00
  0.00000000E+00  1.60000000E+01  1.00800000E+00  1.00800000E+00  0.00000000E+00
  1.60000000E+01  1.00800000E+00  1.00800000E+00  0.00000000E+00  1.60000000E+01
  1.00800000E+00  1.00800000E+00  0.00000000E+00  1.60000000E+01  1.00800000E+00
  1.00800000E+00  0.00000000E+00  1.60000000E+01  1.00800000E+00  1.00800000E+00
  0.00000000E+00  1.60000000E+01  1.00800000E+00  1.00800000E+00  0.00000000E+00
  1.60000000E+01  1.00800000E+00  1.00800000E+00  0.00000000E+00  1.60000000E+01
  1.00800000E+00  1.00800000E+00  0.00000000E+00  1.60000000E+01  1.00800000E+00
  1.00800000E+00  0.00000000E+00  1.60000000E+01  1.00800000E+00  1.00800000E+00
  0.00000000E+00  1.60000000E+01  1.00800000E+00  1.00800000E+00  0.00000000E+00
  1.60000000E+01  1.00800000E+00  1.00800000E+00  0.00000000E+00  1.60000000E+01
  1.00800000E+00  1.00800000E+00  0.00000000E+00  1.60000000E+01  1.00800000E+00
  1.00800000E+00  0.00000000E+00  1.60000000E+01  1.00800000E+00  1.00800000E+00
  0.00000000E+00  1.60000000E+01  1.00800000E+00  1.00800000E+00  0.00000000E+00
  1.60000000E+01  1.00800000E+00  1.00800000E+00  0.00000000E+00  1.60000000E+01
  1.00800000E+00  1.00800000E+00  0.00000000E+00  1.60000000E+01  1.00800000E+00
  1.00800000E+00  0.00000000E+00  1.60000000E+01  1.00800000E+00  1.00800000E+00
  0.00000000E+00  1.60000000E+01  1.00800000E+00  1.00800000E+00  0.00000000E+00
  1.60000000E+01  1.00800000E+00  1.00800000E+00  0.00000000E+00  1.60000000E+01
  1.00800000E+00  1.00800000E+00  0.00000000E+00  1.60000000E+01  1.00800000E+00
  1.00800000E+00  0.00000000E+00  1.60000000E+01  1.00800000E+00  1.00800000E+00
  0.00000000E+00  1.60000000E+01  1.00800000E+00  1.00800000E+00  0.00000000E+00
  1.60000000E+01  1.00800000E+00  1.00800000E+00  0.00000000E+00  1.60000000E+01
  1.00800000E+00  1.00800000E+00  0.00000000E+00  1.60000000E+01  1.00800000E+00
  1.00800000E+00  0.00000000E+00  1.60000000E+01  1.00800000E+00  1.00800000E+00
  0.00000000E+00  1.60000000E+01  1.00800000E+00  1.00800000E+00  0.00000000E+00
  1.60000000E+01  1.00800000E+00  1.00800000E+00  0.00000000E+00  1.60000000E+01
  1.00800000E+00  1.00800000E+00  0.00000000E+00  1.60000000E+01  1.00800000E+00
  1.00800000E+00  0.00000000E+00  1.60000000E+01  1.00800000E+00  1.00800000E+00
  0.00000000E+00  1.60000000E+01  1.00800000E+00  1.00800000E+00  0.00000000E+00
  1.60000000E+01  1.00800000E+00  1.00800000E+00  0.00000000E+00  1.60000000E+01
  1.00800000E+00  1.00800000E+00  0.00000000E+00  1.60000000E+01  1.00800000E+00
  1.00800000E+00  0.00000000E+00  1.60000000E+01  1.00800000E+00  1.00800000E+00
  0.00000000E+00  1.60000000E+01  1.00800000E+00  1.00800000E+00  0.00000000E+00
  1.60000000E+01  1.00800000E+00  1.00800000E+00  0.00000000E+00  1.60000000E+01
  1.00800000E+00  1.00800000E+00  0.00000000E+00  1.60000000E+01  1.00800000E+00
  1.00800000E+00  0.00000000E+00  1.60000000E+01  1.00800000E+00  1.00800000E+00
  0.00000000E+00  1.60000000E+01  1.00800000E+00  1.00800000E+00  0.00000000E+00
  1.60000000E+01  1.00800000E+00  1.00800000E+00  0.00000000E+00  1.60000000E+01
  1.00800000E+00  1.00800000E+00  0.00000000E+00  1.60000000E+01  1.00800000E+00
  1.00800000E+00  0.00000000E+00  1.60000000E+01  1.00800000E+00  1.00800000E+00
  0.00000000E+00  1.60000000E+01  1.00800000E+00  1.00800000E+00  0.00000000E+00
  1.60000000E+01  1.00800000E+00  1.00800000E+00  0.00000000E+00  1.60000000E+01
  1.00800000E+00  1.00800000E+00  0.00000000E+00  1.60000000E+01  1.00800000E+00
  1.00800000E+00  0.00000000E+00  1.60000000E+01  1.00800000E+00  1.00800000E+00
  0.00000000E+00  1.60000000E+01  1.00800000E+00  1.00800000E+00  0.00000000E+00
  1.60000000E+01  1.00800000E+00  1.00800000E+00  0.00000000E+00  1.60000000E+01
  1.00800000E+00  1.00800000E+00  0.00000000E+00  1.60000000E+01  1.00800000E+00
  1.00800000E+00  0.00000000E+00  1.60000000E+01  1.00800000E+00  1.00800000E+00
  0.00000000E+00  1.60000000E+01  1.00800000E+00  1.00800000E+00  0.00000000E+00
  1.60000000E+01  1.00800000E+00  1.00800000E+00  0.00000000E+00  1.60000000E+01
  1.00800000E+00  1.00800000E+00  0.00000000E+00  1.60000000E+01  1.00800000E+00
  1.00800000E+00  0.00000000E+00  1.60000000E+01  1.00800000E+00  1.00800000E+00
  0.00000000E+00  1.60000000E+01  1.00800000E+00  1.00800000E+00  0.00000000E+00
  1.60000000E+01  1.00800000E+00  1.00800000E+00  0.00000000E+00  1.60000000E+01
  1.00800000E+00  1.00800000E+00  0.00000000E+00  1.60000000E+01  1.00800000E+00
  1.00800000E+00  0.00000000E+00  1.60000000E+01  1.00800000E+00  1.00800000E+00
  0.00000000E+00  1.60000000E+01  1.00800000E+00  1.00800000E+00  0.00000000E+00
  1.60000000E+01  1.00800000E+00  1.00800000E+00  0.00000000E+00  1.60000000E+01
  1.00800000E+00  1.00800000E+00  0.00000000E+00  1.60000000E+01  1.00800000E+00
  1.00800000E+00  0.00000000E+00  1.60000000E+01  1.00800000E+00  1.00800000E+00
  0.00000000E+00  1.60000000E+01  1.00800000E+00  1.00800000E+00  0.00000000E+00
  1.60000000E+01  1.00800000E+00  1.00800000E+00  0.00000000E+00  1.60000000E+01
  1.00800000E+00  1.00800000E+00  0.00000000E+00  1.60000000E+01  1.00800000E+00
  1.00800000E+00  0.00000000E+00  1.60000000E+01  1.00800000E+00  1.00800000E+00
  0.00000000E+00  1.60000000E+01  1.00800000E+00  1.00800000E+00  0.00000000E+00
  1.60000000E+01  1.00800000E+00  1.00800000E+00  0.00000000E+00  1.60000000E+01
  1.00800000E+00  1.00800000E+00  0.00000000E+00  1.60000000E+01  1.00800000E+00
  1.00800000E+00  0.00000000E+00  1.60000000E+01  1.00800000E+00  1.00800000E+00
  0.00000000E+00  1.60000000E+01  1.00800000E+00  1.00800000E+00  0.00000000E+00
  1.60000000E+01  1.00800000E+00  1.00800000E+00  0.00000000E+00  1.60000000E+01
  1.00800000E+00  1.00800000E+00  0.00000000E+00  1.60000000E+01  1.00800000E+00
  1.00800000E+00  0.00000000E+00  1.60000000E+01  1.00800000E+00  1.00800000E+00
  0.00000000E+00  1.60000000E+01  1.00800000E+00  1.00800000E+00  0.00000000E+00
  1.60000000E+01  1.00800000E+00  1.00800000E+00  0.00000000E+00  1.60000000E+01
  1.00800000E+00  1.00800000E+00  0.00000000E+00  1.60000000E+01  1.00800000E+00
  1.00800000E+00  0.00000000E+00  1.60000000E+01  1.00800000E+00  1.00800000E+00
  0.00000000E+00  1.60000000E+01  1.00800000E+00  1.00800000E+00  0.00000000E+00
  1.60000000E+01  1.00800000E+00  1.00800000E+00  0.00000000E+00  1.60000000E+01
  1.00800000E+00  1.00800000E+00  0.00000000E+00  1.60000000E+01  1.00800000E+00
  1.00800000E+00  0.00000000E+00  1.60000000E+01  1.00800000E+00  1.00800000E+00
  0.00000000E+00  1.60000000E+01  1.00800000E+00  1.00800000E+00  0.00000000E+00
  1.60000000E+01  1.00800000E+00  1.00800000E+00  0.00000000E+00  1.60000000E+01
  1.00800000E+00  1.00800000E+00  0.00000000E+00  1.60000000E+01  1.00800000E+00
  1.00800000E+00  0.00000000E+00  1.60000000E+01  1.00800000E+00  1.00800000E+00
  0.00000000E+00  1.60000000E+01  1.00800000E+00  1.00800000E+00  0.00000000E+00
  1.60000000E+01  1.00800000E+00  1.00800000E+00  0.00000000E+00  1.60000000E+01
  1.00800000E+00  1.00800000E+00  0.00000000E+00  1.60000000E+01  1.00800000E+00
  1.00800000E+00  0.00000000E+00  1.60000000E+01  1.00800000E+00  1.00800000E+00
  0.00000000E+00  1.60000000E+01  1.00800000E+00  1.00800000E+00  0.00000000E+00
  1.60000000E+01  1.00800000E+00  1.00800000E+00  0.00000000E+00  1.60000000E+01
  1.00800000E+00  1.00800000E+00  0.00000000E+00  1.60000000E+01  1.00800000E+00
  1.00800000E+00  0.00000000E+00  1.60000000E+01  1.00800000E+00  1.00800000E+00
  0.00000000E+00  1.60000000E+01  1.00800000E+00  1.00800000E+00  0.00000000E+00
  1.60000000E+01  1.00800000E+00  1.00800000E+00  0.00000000E+00  1.60000000E+01
  1.00800000E+00  1.00800000E+00  0.00000000E+00  1.60000000E+01  1.00800000E+00
  1.00800000E+00  0.00000000E+00  1.60000000E+01  1.00800000E+00  1.00800000E+00
  0.00000000E+00  1.60000000E+01  1.00800000E+00  1.00800000E+00  0.00000000E+00
  1.60000000E+01  1.00800000E+00  1.00800000E+00  0.00000000E+00  1.60000000E+01
  1.00800000E+00  1.00800000E+00  0.00000000E+00  1.60000000E+01  1.00800000E+00
  1.00800000E+00  0.00000000E+00  1.60000000E+01  1.00800000E+00  1.00800000E+00
  0.00000000E+00  1.60000000E+01  1.00800000E+00  1.00800000E+00  0.00000000E+00
  1.60000000E+01  1.00800000E+00  1.00800000E+00  0.00000000E+00  1.60000000E+01
  1.00800000E+00  1.00800000E+00  0.00000000E+00  1.60000000E+01  1.00800000E+00
  1.00800000E+00  0.00000000E+00  1.60000000E+01  1.00800000E+00  1.00800000E+00
  0.00000000E+00  1.60000000E+01  1.00800000E+00  1.00800000E+00  0.00000000E+00
  1.60000000E+01  1.00800000E+00  1.00800000E+00  0.00000000E+00  1.60000000E+01
  1.00800000E+00  1.00800000E+00  0.00000000E+00  1.60000000E+01  1.00800000E+00
  1.00800000E+00  0.00000000E+00  1.60000000E+01  1.00800000E+00  1.00800000E+00
  0.00000000E+00  1.60000000E+01  1.00800000E+00  1.00800000E+00  0.00000000E+00
  1.60000000E+01  1.00800000E+00  1.00800000E+00  0.00000000E+00  1.60000000E+01
  1.00800000E+00  1.00800000E+00  0.00000000E+00  1.60000000E+01  1.00800000E+00
  1.00800000E+00  0.00000000E+00  1.60000000E+01  1.00800000E+00  1.00800000E+00
  0.00000000E+00  1.60000000E+01  1.00800000E+00  1.00800000E+00  0.00000000E+00
  1.60000000E+01  1.00800000E+00  1.00800000E+00  0.00000000E+00  1.60000000E+01
  1.00800000E+00  1.00800000E+00  0.00000000E+00  1.60000000E+01  1.00800000E+00
  1.00800000E+00  0.00000000E+00  1.60000000E+01  1.00800000E+00  1.00800000E+00
  0.00000000E+00  1.60000000E+01  1.00800000E+00  1.00800000E+00  0.00000000E+00
  1.60000000E+01  1.00800000E+00  1.00800000E+00  0.00000000E+00  1.60000000E+01
  1.00800000E+00  1.00800000E+00  0.00000000E+00  1.60000000E+01  1.00800000E+00
  1.00800000E+00  0.00000000E+00  1.60000000E+01  1.00800000E+00  1.00800000E+00
  0.00000000E+00  1.60000000E+01  1.00800000E+00  1.00800000E+00  0.00000000E+00
  1.60000000E+01  1.00800000E+00  1.00800000E+00  0.00000000E+00  1.60000000E+01
  1.00800000E+00  1.00800000E+00  0.00000000E+00  1.60000000E+01  1.00800000E+00
  1.00800000E+00  0.00000000E+00  1.60000000E+01  1.00800000E+00  1.00800000E+00
  0.00000000E+00  1.60000000E+01  1.00800000E+00  1.00800000E+00  0.00000000E+00
  1.60000000E+01  1.00800000E+00  1.00800000E+00  0.00000000E+00  1.60000000E+01
  1.00800000E+00  1.00800000E+00  0.00000000E+00  1.60000000E+01  1.00800000E+00
  1.00800000E+00  0.00000000E+00  1.60000000E+01  1.00800000E+00  1.00800000E+00
  0.00000000E+00  1.60000000E+01  1.00800000E+00  1.00800000E+00  0.00000000E+00
  1.60000000E+01  1.00800000E+00  1.00800000E+00  0.00000000E+00  1.60000000E+01
  1.00800000E+00  1.00800000E+00  0.00000000E+00  1.60000000E+01  1.00800000E+00
  1.00800000E+00  0.00000000E+00  1.60000000E+01  1.00800000E+00  1.00800000E+00
  0.00000000E+00  1.60000000E+01  1.00800000E+00  1.00800000E+00  0.00000000E+00
  1.60000000E+01  1.00800000E+00  1.00800000E+00  0.00000000E+00  1.60000000E+01
  1.00800000E+00  1.00800000E+00  0.00000000E+00  1.60000000E+01  1.00800000E+00
  1.00800000E+00  0.00000000E+00  1.60000000E+01  1.00800000E+00  1.00800000E+00
  0.00000000E+00  1.60000000E+01  1.00800000E+00  1.00800000E+00  0.00000000E+00
  1.60000000E+01  1.00800000E+00  1.00800000E+00  0.00000000E+00  1.60000000E+01
  1.00800000E+00  1.00800000E+00  0.00000000E+00  1.60000000E+01  1.00800000E+00
  1.00800000E+00  0.00000000E+00  1.60000000E+01  1.00800000E+00  1.00800000E+00
  0.00000000E+00  1.60000000E+01  1.00800000E+00  1.00800000E+00  0.00000000E+00
  1.60000000E+01  1.00800000E+00  1.00800000E+00  0.00000000E+00  1.60000000E+01
  1.00800000E+00  1.00800000E+00  0.00000000E+00  1.60000000E+01  1.00800000E+00
  1.00800000E+00  0.00000000E+00  1.60000000E+01  1.00800000E+00  1.00800000E+00
  0.00000000E+00  1.60000000E+01  1.00800000E+00  1.00800000E+00  0.00000000E+00
  1.60000000E+01  1.00800000E+00  1.00800000E+00  0.00000000E+00  1.60000000E+01
  1.00800000E+00  1.00800000E+00  0.00000000E+00  1.60000000E+01  1.00800000E+00
  1.00800000E+00  0.00000000E+00  1.60000000E+01  1.00800000E+00  1.00800000E+00
  0.00000000E+00  1.60000000E+01  1.00800000E+00  1.00800000E+00  0.00000000E+00
  1.60000000E+01  1.00800000E+00  1.00800000E+00  0.00000000E+00  1.60000000E+01
  1.00800000E+00  1.00800000E+00  0.00000000E+00  1.60000000E+01  1.00800000E+00
  1.00800000E+00  0.00000000E+00  1.60000000E+01  1.00800000E+00  1.00800000E+00
  0.00000000E+00  1.60000000E+01  1.00800000E+00  1.00800000E+00  0.00000000E+00
  1.60000000E+01  1.00800000E+00  1.00800000E+00  0.00000000E+00  1.60000000E+01
  1.00800000E+00  1.00800000E+00  0.00000000E+00  1.60000000E+01  1.00800000E+00
  1.00800000E+00  0.00000000E+00  1.60000000E+01  1.00800000E+00  1.00800000E+00
  0.00000000E+00  1.60000000E+01  1.00800000E+00  1.00800000E+00  0.00000000E+00
  1.60000000E+01  1.00800000E+00  1.00800000E+00  0.00000000E+00  1.60000000E+01
  1.00800000E+00  1.00800000E+00  0.00000000E+00  1.60000000E+01  1.00800000E+00
  1.00800000E+00  0.00000000E+00  1.60000000E+01  1.00800000E+00  1.00800000E+00
  0.00000000E+00  1.60000000E+01  1.00800000E+00  1.00800000E+00  0.00000000E+00
  1.60000000E+01  1.00800000E+00  1.00800000E+00  0.00000000E+00  1.60000000E+01
  1.00800000E+00  1.00800000E+00  0.00000000E+00  1.60000000E+01  1.00800000E+00
  1.00800000E+00  0.00000000E+00  1.60000000E+01  1.00800000E+00  1.00800000E+00
  0.00000000E+00  1.60000000E+01  1.00800000E+00  1.00800000E+00  0.00000000E+00
  1.60000000E+01  1.00800000E+00  1.00800000E+00  0.00000000E+00  1.60000000E+01
  1.00800000E+00  1.00800000E+00  0.00000000E+00  1.60000000E+01  1.00800000E+00
  1.00800000E+00  0.00000000E+00  1.60000000E+01  1.00800000E+00  1.00800000E+00
  0.00000000E+00  1.60000000E+01  1.00800000E+00  1.00800000E+00  0.00000000E+00
  1.60000000E+01  1.00800000E+00  1.00800000E+00  0.00000000E+00  1.60000000E+01
  1.00800000E+00  1.00800000E+00  0.00000000E+00  1.60000000E+01  1.00800000E+00
  1.00800000E+00  0.00000000E+00  1.60000000E+01  1.00800000E+00  1.00800000E+00
  0.00000000E+00  1.60000000E+01  1.00800000E+00  1.00800000E+00  0.00000000E+00
  1.60000000E+01  1.00800000E+00  1.00800000E+00  0.00000000E+00  1.60000000E+01
  1.00800000E+00  1.00800000E+00  0.00000000E+00  1.60000000E+01  1.00800000E+00
  1.00800000E+00  0.00000000E+00  1.60000000E+01  1.00800000E+00  1.00800000E+00
  0.00000000E+00  1.60000000E+01  1.00800000E+00  1.00800000E+00  0.00000000E+00
  1.60000000E+01  1.00800000E+00  1.00800000E+00  0.00000000E+00  1.60000000E+01
  1.00800000E+00  1.00800000E+00  0.00000000E+00  1.60000000E+01  1.00800000E+00
  1.00800000E+00  0.00000000E+00  1.60000000E+01  1.00800000E+00  1.00800000E+00
  0.00000000E+00  1.60000000E+01  1.00800000E+00  1.00800000E+00  0.00000000E+00
  1.60000000E+01  1.00800000E+00  1.00800000E+00  0.00000000E+00  1.60000000E+01
  1.00800000E+00  1.00800000E+00  0.00000000E+00  1.60000000E+01  1.00800000E+00
  1.00800000E+00  0.00000000E+00  1.60000000E+01  1.00800000E+00  1.00800000E+00
  0.00000000E+00  1.60000000E+01  1.00800000E+00  1.00800000E+00  0.00000000E+00
  1.60000000E+01  1.00800000E+00  1.00800000E+00  0.00000000E+00  1.60000000E+01
  1.00800000E+00  1.00800000E+00  0.00000000E+00  1.60000000E+01  1.00800000E+00
  1.00800000E+00  0.00000000E+00  1.60000000E+01  1.00800000E+00  1.00800000E+00
  0.00000000E+00  1.60000000E+01  1.00800000E+00  1.00800000E+00  0.00000000E+00
  1.60000000E+01  1.00800000E+00  1.00800000E+00  0.00000000E+00  1.60000000E+01
  1.00800000E+00  1.00800000E+00  0.00000000E+00  1.60000000E+01  1.00800000E+00
  1.00800000E+00  0.00000000E+00  1.60000000E+01  1.00800000E+00  1.00800000E+00
  0.00000000E+00  1.60000000E+01  1.00800000E+00  1.00800000E+00  0.00000000E+00
  1.60000000E+01  1.00800000E+00  1.00800000E+00  0.00000000E+00  1.60000000E+01
  1.00800000E+00  1.00800000E+00  0.00000000E+00  1.60000000E+01  1.00800000E+00
  1.00800000E+00  0.00000000E+00  1.60000000E+01  1.00800000E+00  1.00800000E+00
  0.00000000E+00  1.60000000E+01  1.00800000E+00  1.00800000E+00  0.00000000E+00
  1.60000000E+01  1.00800000E+00  1.00800000E+00  0.00000000E+00  1.60000000E+01
  1.00800000E+00  1.00800000E+00  0.00000000E+00  1.60000000E+01  1.00800000E+00
  1.00800000E+00  0.00000000E+00  1.60000000E+01  1.00800000E+00  1.00800000E+00
  0.00000000E+00  1.60000000E+01  1.00800000E+00  1.00800000E+00  0.00000000E+00
  1.60000000E+01  1.00800000E+00  1.00800000E+00  0.00000000E+00  1.60000000E+01
  1.00800000E+00  1.00800000E+00  0.00000000E+00  1.60000000E+01  1.00800000E+00
  1.00800000E+00  0.00000000E+00  1.60000000E+01  1.00800000E+00  1.00800000E+00
  0.00000000E+00  1.60000000E+01  1.00800000E+00  1.00800000E+00  0.00000000E+00
  1.60000000E+01  1.00800000E+00  1.00800000E+00  0.00000000E+00  1.60000000E+01
  1.00800000E+00  1.00800000E+00  0.00000000E+00  1.60000000E+01  1.00800000E+00
  1.00800000E+00  0.00000000E+00  1.60000000E+01  1.00800000E+00  1.00800000E+00
  0.00000000E+00  1.60000000E+01  1.00800000E+00  1.00800000E+00  0.00000000E+00
  1.60000000E+01  1.00800000E+00  1.00800000E+00  0.00000000E+00  1.60000000E+01
  1.00800000E+00  1.00800000E+00  0.00000000E+00  1.60000000E+01  1.00800000E+00
  1.00800000E+00  0.00000000E+00  1.60000000E+01  1.00800000E+00  1.00800000E+00
  0.00000000E+00  1.60000000E+01  1.00800000E+00  1.00800000E+00  0.00000000E+00
  1.60000000E+01  1.00800000E+00  1.00800000E+00  0.00000000E+00  1.60000000E+01
  1.00800000E+00  1.00800000E+00  0.00000000E+00  1.60000000E+01  1.00800000E+00
  1.00800000E+00  0.00000000E+00  1.60000000E+01  1.00800000E+00  1.00800000E+00
  0.00000000E+00  1.60000000E+01  1.00800000E+00  1.00800000E+00  0.00000000E+00
  1.60000000E+01  1.00800000E+00  1.00800000E+00  0.00000000E+00  1.60000000E+01
  1.00800000E+00  1.00800000E+00  0.00000000E+00  1.60000000E+01  1.00800000E+00
  1.00800000E+00  0.00000000E+00  1.60000000E+01  1.00800000E+00  1.00800000E+00
  0.00000000E+00  1.60000000E+01  1.00800000E+00  1.00800000E+00  0.00000000E+00
  1.60000000E+01  1.00800000E+00  1.00800000E+00  0.00000000E+00  1.60000000E+01
  1.00800000E+00  1.00800000E+00  0.00000000E+00  1.60000000E+01  1.00800000E+00
  1.00800000E+00  0.00000000E+00  1.60000000E+01  1.00800000E+00  1.00800000E+00
  0.00000000E+00  1.60000000E+01  1.00800000E+00  1.00800000E+00  0.00000000E+00
  1.60000000E+01  1.00800000E+00  1.00800000E+00  0.00000000E+00  1.60000000E+01
  1.00800000E+00  1.00800000E+00  0.00000000E+00  1.60000000E+01  1.00800000E+00
  1.00800000E+00  0.00000000E+00  1.60000000E+01  1.00800000E+00  1.00800000E+00
  0.00000000E+00  1.60000000E+01  1.00800000E+00  1.00800000E+00  0.00000000E+00
  1.60000000E+01  1.00800000E+00  1.00800000E+00  0.00000000E+00  1.60000000E+01
  1.00800000E+00  1.00800000E+00  0.00000000E+00  1.60000000E+01  1.00800000E+00
  1.00800000E+00  0.00000000E+00  1.60000000E+01  1.00800000E+00  1.00800000E+00
  0.00000000E+00  1.60000000E+01  1.00800000E+00  1.00800000E+00  0.00000000E+00
  1.60000000E+01  1.00800000E+00  1.00800000E+00  0.00000000E+00  1.60000000E+01
  1.00800000E+00  1.00800000E+00  0.00000000E+00  1.60000000E+01  1.00800000E+00
  1.00800000E+00  0.00000000E+00  1.60000000E+01  1.00800000E+00  1.00800000E+00
  0.00000000E+00  1.60000000E+01  1.00800000E+00  1.00800000E+00  0.00000000E+00
  1.60000000E+01  1.00800000E+00  1.00800000E+00  0.00000000E+00  1.60000000E+01
  1.00800000E+00  1.00800000E+00  0.00000000E+00  1.60000000E+01  1.00800000E+00
  1.00800000E+00  0.00000000E+00  1.60000000E+01  1.00800000E+00  1.00800000E+00
  0.00000000E+00  1.60000000E+01  1.00800000E+00  1.00800000E+00  0.00000000E+00
  1.60000000E+01  1.00800000E+00  1.00800000E+00  0.00000000E+00  1.60000000E+01
  1.00800000E+00  1.00800000E+00  0.00000000E+00  1.60000000E+01  1.00800000E+00
  1.00800000E+00  0.00000000E+00  1.60000000E+01  1.00800000E+00  1.00800000E+00
  0.00000000E+00  1.60000000E+01  1.00800000E+00  1.00800000E+00  0.00000000E+00
  1.60000000E+01  1.00800000E+00  1.00800000E+00  0.00000000E+00  1.60000000E+01
  1.00800000E+00  1.00800000E+00  0.00000000E+00  1.60000000E+01  1.00800000E+00
  1.00800000E+00  0.00000000E+00  1.60000000E+01  1.00800000E+00  1.00800000E+00
  0.00000000E+00  1.60000000E+01  1.00800000E+00  1.00800000E+00  0.00000000E+00
  1.60000000E+01  1.00800000E+00  1.00800000E+00  0.00000000E+00  1.60000000E+01
  1.00800000E+00  1.00800000E+00  0.00000000E+00  1.60000000E+01  1.00800000E+00
  1.00800000E+00  0.00000000E+00  1.60000000E+01  1.00800000E+00  1.00800000E+00
  0.00000000E+00  1.60000000E+01  1.00800000E+00  1.00800000E+00  0.00000000E+00
  1.60000000E+01  1.00800000E+00  1.00800000E+00  0.00000000E+00  1.60000000E+01
  1.00800000E+00  1.00800000E+00  0.00000000E+00  1.60000000E+01  1.00800000E+00
  1.00800000E+00  0.00000000E+00  1.60000000E+01  1.00800000E+00  1.00800000E+00
  0.00000000E+00  1.60000000E+01  1.00800000E+00  1.00800000E+00  0.00000000E+00
  1.60000000E+01  1.00800000E+00  1.00800000E+00  0.00000000E+00  1.60000000E+01
  1.00800000E+00  1.00800000E+00  0.00000000E+00  1.60000000E+01  1.00800000E+00
  1.00800000E+00  0.00000000E+00  1.60000000E+01  1.00800000E+00  1.00800000E+00
  0.00000000E+00  1.60000000E+01  1.00800000E+00  1.00800000E+00  0.00000000E+00
  1.60000000E+01  1.00800000E+00  1.00800000E+00  0.00000000E+00  1.60000000E+01
  1.00800000E+00  1.00800000E+00  0.00000000E+00  1.60000000E+01  1.00800000E+00
  1.00800000E+00  0.00000000E+00  1.60000000E+01  1.00800000E+00  1.00800000E+00
  0.00000000E+00  1.60000000E+01  1.00800000E+00  1.00800000E+00  0.00000000E+00
  1.60000000E+01  1.00800000E+00  1.00800000E+00  0.00000000E+00  1.60000000E+01
  1.00800000E+00  1.00800000E+00  0.00000000E+00  1.60000000E+01  1.00800000E+00
  1.00800000E+00  0.00000000E+00  1.60000000E+01  1.00800000E+00  1.00800000E+00
  0.00000000E+00  1.60000000E+01  1.00800000E+00  1.00800000E+00  0.00000000E+00
  1.60000000E+01  1.00800000E+00  1.00800000E+00  0.00000000E+00  1.60000000E+01
  1.00800000E+00  1.00800000E+00  0.00000000E+00  1.60000000E+01  1.00800000E+00
  1.00800000E+00  0.00000000E+00  1.60000000E+01  1.00800000E+00  1.00800000E+00
  0.00000000E+00  1.60000000E+01  1.00800000E+00  1.00800000E+00  0.00000000E+00
  1.60000000E+01  1.00800000E+00  1.00800000E+00  0.00000000E+00  1.60000000E+01
  1.00800000E+00  1.00800000E+00  0.00000000E+00  1.60000000E+01  1.00800000E+00
  1.00800000E+00  0.00000000E+00  1.60000000E+01  1.00800000E+00  1.00800000E+00
  0.00000000E+00  1.60000000E+01  1.00800000E+00  1.00800000E+00  0.00000000E+00
  1.60000000E+01  1.00800000E+00  1.00800000E+00  0.00000000E+00  1.60000000E+01
  1.00800000E+00  1.00800000E+00  0.00000000E+00  1.60000000E+01  1.00800000E+00
  1.00800000E+00  0.00000000E+00  1.60000000E+01  1.00800000E+00  1.00800000E+00
  0.00000000E+00  1.60000000E+01  1.00800000E+00  1.00800000E+00  0.00000000E+00
  1.60000000E+01  1.00800000E+00  1.00800000E+00  0.00000000E+00  1.60000000E+01
  1.00800000E+00  1.00800000E+00  0.00000000E+00  1.60000000E+01  1.00800000E+00
  1.00800000E+00  0.00000000E+00  1.60000000E+01  1.00800000E+00  1.00800000E+00
  0.00000000E+00  1.60000000E+01  1.00800000E+00  1.00800000E+00  0.00000000E+00
  1.60000000E+01  1.00800000E+00  1.00800000E+00  0.00000000E+00  1.60000000E+01
  1.00800000E+00  1.00800000E+00  0.00000000E+00  1.60000000E+01  1.00800000E+00
  1.00800000E+00  0.00000000E+00  1.60000000E+01  1.00800000E+00  1.00800000E+00
  0.00000000E+00  1.60000000E+01  1.00800000E+00  1.00800000E+00  0.00000000E+00
  1.60000000E+01  1.00800000E+00  1.00800000E+00  0.00000000E+00  1.60000000E+01
  1.00800000E+00  1.00800000E+00  0.00000000E+00  1.60000000E+01  1.00800000E+00
  1.00800000E+00  0.00000000E+00  1.60000000E+01  1.00800000E+00  1.00800000E+00
  0.00000000E+00  1.60000000E+01  1.00800000E+00  1.00800000E+00  0.00000000E+00
  1.60000000E+01  1.00800000E+00  1.00800000E+00  0.00000000E+00  1.60000000E+01
  1.00800000E+00  1.00800000E+00  0.00000000E+00  1.60000000E+01  1.00800000E+00
  1.00800000E+00  0.00000000E+00  1.60000000E+01  1.00800000E+00  1.00800000E+00
  0.00000000E+00  1.60000000E+01  1.00800000E+00  1.00800000E+00  0.00000000E+00
  1.60000000E+01  1.00800000E+00  1.00800000E+00  0.00000000E+00  1.60000000E+01
  1.00800000E+00  1.00800000E+00  0.00000000E+00  1.60000000E+01  1.00800000E+00
  1.00800000E+00  0.00000000E+00  1.60000000E+01  1.00800000E+00  1.00800000E+00
  0.00000000E+00  1.60000000E+01  1.00800000E+00  1.00800000E+00  0.00000000E+00
  1.60000000E+01  1.00800000E+00  1.00800000E+00  0.00000000E+00  1.60000000E+01
  1.00800000E+00  1.00800000E+00  0.00000000E+00  1.60000000E+01  1.00800000E+00
  1.00800000E+00  0.00000000E+00  1.60000000E+01  1.00800000E+00  1.00800000E+00
  0.00000000E+00  1.60000000E+01  1.00800000E+00  1.00800000E+00  0.00000000E+00
  1.60000000E+01  1.00800000E+00  1.00800000E+00  0.00000000E+00  1.60000000E+01
  1.00800000E+00  1.00800000E+00  0.00000000E+00  1.60000000E+01  1.00800000E+00
  1.00800000E+00  0.00000000E+00  1.60000000E+01  1.00800000E+00  1.00800000E+00
  0.00000000E+00  1.60000000E+01  1.00800000E+00  1.00800000E+00  0.00000000E+00
  1.60000000E+01  1.00800000E+00  1.00800000E+00  0.00000000E+00  1.60000000E+01
  1.00800000E+00  1.00800000E+00  0.00000000E+00  1.60000000E+01  1.00800000E+00
  1.00800000E+00  0.00000000E+00  1.60000000E+01  1.00800000E+00  1.00800000E+00
  0.00000000E+00  1.60000000E+01  1.00800000E+00  1.00800000E+00  0.00000000E+00
  1.60000000E+01  1.00800000E+00  1.00800000E+00  0.00000000E+00  1.60000000E+01
  1.00800000E+00  1.00800000E+00  0.00000000E+00  1.60000000E+01  1.00800000E+00
  1.00800000E+00  0.00000000E+00  1.60000000E+01  1.00800000E+00  1.00800000E+00
  0.00000000E+00  1.60000000E+01  1.00800000E+00  1.00800000E+00  0.00000000E+00
  1.60000000E+01  1.00800000E+00  1.00800000E+00  0.00000000E+00  1.60000000E+01
  1.00800000E+00  1.00800000E+00  0.00000000E+00  1.60000000E+01  1.00800000E+00
  1.00800000E+00  0.00000000E+00  1.60000000E+01  1.00800000E+00  1.00800000E+00
  0.00000000E+00  1.60000000E+01  1.00800000E+00  1.00800000E+00  0.00000000E+00
  1.60000000E+01  1.00800000E+00  1.00800000E+00  0.00000000E+00  1.60000000E+01
  1.00800000E+00  1.00800000E+00  0.00000000E+00  1.60000000E+01  1.00800000E+00
  1.00800000E+00  0.00000000E+00  1.60000000E+01  1.00800000E+00  1.00800000E+00
  0.00000000E+00  1.60000000E+01  1.00800000E+00  1.00800000E+00  0.00000000E+00
  1.60000000E+01  1.00800000E+00  1.00800000E+00  0.00000000E+00  1.60000000E+01
  1.00800000E+00  1.00800000E+00  0.00000000E+00  1.60000000E+01  1.00800000E+00
  1.00800000E+00  0.00000000E+00  1.60000000E+01  1.00800000E+00  1.00800000E+00
  0.00000000E+00  1.60000000E+01  1.00800000E+00  1.00800000E+00  0.00000000E+00
  1.60000000E+01  1.00800000E+00  1.00800000E+00  0.00000000E+00  1.60000000E+01
  1.00800000E+00  1.00800000E+00  0.00000000E+00  1.60000000E+01  1.00800000E+00
  1.00800000E+00  0.00000000E+00  1.60000000E+01  1.00800000E+00  1.00800000E+00
  0.00000000E+00  1.60000000E+01  1.00800000E+00  1.00800000E+00  0.00000000E+00
  1.60000000E+01  1.00800000E+00  1.00800000E+00  0.00000000E+00  1.60000000E+01
  1.00800000E+00  1.00800000E+00  0.00000000E+00  1.60000000E+01  1.00800000E+00
  1.00800000E+00  0.00000000E+00  1.60000000E+01  1.00800000E+00  1.00800000E+00
  0.00000000E+00  1.60000000E+01  1.00800000E+00  1.00800000E+00  0.00000000E+00
  1.60000000E+01  1.00800000E+00  1.00800000E+00  0.00000000E+00  1.60000000E+01
  1.00800000E+00  1.00800000E+00  0.00000000E+00  1.60000000E+01  1.00800000E+00
  1.00800000E+00  0.00000000E+00  1.60000000E+01  1.00800000E+00  1.00800000E+00
  0.00000000E+00  1.60000000E+01  1.00800000E+00  1.00800000E+00  0.00000000E+00
  1.60000000E+01  1.00800000E+00  1.00800000E+00  0.00000000E+00  1.60000000E+01
  1.00800000E+00  1.00800000E+00  0.00000000E+00  1.60000000E+01  1.00800000E+00
  1.00800000E+00  0.00000000E+00  1.60000000E+01  1.00800000E+00  1.00800000E+00
  0.00000000E+00  1.60000000E+01  1.00800000E+00  1.00800000E+00  0.00000000E+00
  1.60000000E+01  1.00800000E+00  1.00800000E+00  0.00000000E+00  1.60000000E+01
  1.00800000E+00  1.00800000E+00  0.00000000E+00  1.60000000E+01  1.00800000E+00
  1.00800000E+00  0.00000000E+00  1.60000000E+01  1.00800000E+00  1.00800000E+00
  0.00000000E+00  1.60000000E+01  1.00800000E+00  1.00800000E+00  0.00000000E+00
  1.60000000E+01  1.00800000E+00  1.00800000E+00  0.00000000E+00  1.60000000E+01
  1.00800000E+00  1.00800000E+00  0.00000000E+00  1.60000000E+01  1.00800000E+00
  1.00800000E+00  0.00000000E+00  1.60000000E+01  1.00800000E+00  1.00800000E+00
  0.00000000E+00  1.60000000E+01  1.00800000E+00  1.00800000E+00  0.00000000E+00
  1.60000000E+01  1.00800000E+00  1.00800000E+00  0.00000000E+00  1.60000000E+01
  1.00800000E+00  1.00800000E+00  0.00000000E+00  1.60000000E+01  1.00800000E+00
  1.00800000E+00  0.00000000E+00  1.60000000E+01  1.00800000E+00  1.00800000E+00
  0.00000000E+00  1.60000000E+01  1.00800000E+00  1.00800000E+00  0.00000000E+00
  1.60000000E+01  1.00800000E+00  1.00800000E+00  0.00000000E+00  1.60000000E+01
  1.00800000E+00  1.00800000E+00  0.00000000E+00  1.60000000E+01  1.00800000E+00
  1.00800000E+00  0.00000000E+00  1.60000000E+01  1.00800000E+00  1.00800000E+00
  0.00000000E+00  1.60000000E+01  1.00800000E+00  1.00800000E+00  0.00000000E+00
  1.60000000E+01  1.00800000E+00  1.00800000E+00  0.00000000E+00  1.60000000E+01
  1.00800000E+00  1.00800000E+00  0.00000000E+00  1.60000000E+01  1.00800000E+00
  1.00800000E+00  0.00000000E+00  1.60000000E+01  1.00800000E+00  1.00800000E+00
  0.00000000E+00  1.60000000E+01  1.00800000E+00  1.00800000E+00  0.00000000E+00
  1.60000000E+01  1.00800000E+00  1.00800000E+00  0.00000000E+00  1.60000000E+01
  1.00800000E+00  1.00800000E+00  0.00000000E+00  1.60000000E+01  1.00800000E+00
  1.00800000E+00  0.00000000E+00  1.60000000E+01  1.00800000E+00  1.00800000E+00
  0.00000000E+00  1.60000000E+01  1.00800000E+00  1.00800000E+00  0.00000000E+00
  1.60000000E+01  1.00800000E+00  1.00800000E+00  0.00000000E+00  1.60000000E+01
  1.00800000E+00  1.00800000E+00  0.00000000E+00  1.60000000E+01  1.00800000E+00
  1.00800000E+00  0.00000000E+00  1.60000000E+01  1.00800000E+00  1.00800000E+00
  0.00000000E+00  1.60000000E+01  1.00800000E+00  1.00800000E+00  0.00000000E+00
  1.60000000E+01  1.00800000E+00  1.00800000E+00  0.00000000E+00  1.60000000E+01
  1.00800000E+00  1.00800000E+00  0.00000000E+00  1.60000000E+01  1.00800000E+00
  1.00800000E+00  0.00000000E+00  1.60000000E+01  1.00800000E+00  1.00800000E+00
  0.00000000E+00  1.60000000E+01  1.00800000E+00  1.00800000E+00  0.00000000E+00
  1.60000000E+01  1.00800000E+00  1.00800000E+00  0.00000000E+00  1.60000000E+01
  1.00800000E+00  1.00800000E+00  0.00000000E+00  1.60000000E+01  1.00800000E+00
  1.00800000E+00  0.00000000E+00  1.60000000E+01  1.00800000E+00  1.00800000E+00
  0.00000000E+00  1.60000000E+01  1.00800000E+00  1.00800000E+00  0.00000000E+00
  1.60000000E+01  1.00800000E+00  1.00800000E+00  0.00000000E+00  1.60000000E+01
  1.00800000E+00  1.00800000E+00  0.00000000E+00  1.60000000E+01  1.00800000E+00
  1.00800000E+00  0.00000000E+00  1.60000000E+01  1.00800000E+00  1.00800000E+00
  0.00000000E+00  1.60000000E+01  1.00800000E+00  1.00800000E+00  0.00000000E+00
  1.60000000E+01  1.00800000E+00  1.00800000E+00  0.00000000E+00  1.60000000E+01
  1.00800000E+00  1.00800000E+00  0.00000000E+00  1.60000000E+01  1.00800000E+00
  1.00800000E+00  0.00000000E+00  1.60000000E+01  1.00800000E+00  1.00800000E+00
  0.00000000E+00  1.60000000E+01  1.00800000E+00  1.00800000E+00  0.00000000E+00
  1.60000000E+01  1.00800000E+00  1.00800000E+00  0.00000000E+00  1.60000000E+01
  1.00800000E+00  1.00800000E+00  0.00000000E+00  1.60000000E+01  1.00800000E+00
  1.00800000E+00  0.00000000E+00  1.60000000E+01  1.00800000E+00  1.00800000E+00
  0.00000000E+00  1.60000000E+01  1.00800000E+00  1.00800000E+00  0.00000000E+00
  1.60000000E+01  1.00800000E+00  1.00800000E+00  0.00000000E+00  1.60000000E+01
  1.00800000E+00  1.00800000E+00  0.00000000E+00  1.60000000E+01  1.00800000E+00
  1.00800000E+00  0.00000000E+00  1.60000000E+01  1.00800000E+00  1.00800000E+00
  0.00000000E+00  1.60000000E+01  1.00800000E+00  1.00800000E+00  0.00000000E+00
  1.60000000E+01  1.00800000E+00  1.00800000E+00  0.00000000E+00  1.60000000E+01
  1.00800000E+00  1.00800000E+00  0.00000000E+00  1.60000000E+01  1.00800000E+00
  1.00800000E+00  0.00000000E+00  1.60000000E+01  1.00800000E+00  1.00800000E+00
  0.00000000E+00  1.60000000E+01  1.00800000E+00  1.00800000E+00  0.00000000E+00
  1.60000000E+01  1.00800000E+00  1.00800000E+00  0.00000000E+00  1.60000000E+01
  1.00800000E+00  1.00800000E+00  0.00000000E+00  1.60000000E+01  1.00800000E+00
  1.00800000E+00  0.00000000E+00  1.60000000E+01  1.00800000E+00  1.00800000E+00
  0.00000000E+00  1.60000000E+01  1.00800000E+00  1.00800000E+00  0.00000000E+00
  1.60000000E+01  1.00800000E+00  1.00800000E+00  0.00000000E+00  1.60000000E+01
  1.00800000E+00  1.00800000E+00  0.00000000E+00  1.60000000E+01  1.00800000E+00
  1.00800000E+00  0.00000000E+00  1.60000000E+01  1.00800000E+00  1.00800000E+00
  0.00000000E+00  1.60000000E+01  1.00800000E+00  1.00800000E+00  0.00000000E+00
  1.60000000E+01  1.00800000E+00  1.00800000E+00  0.00000000E+00  1.60000000E+01
  1.00800000E+00  1.00800000E+00  0.00000000E+00  1.60000000E+01  1.00800000E+00
  1.00800000E+00  0.00000000E+00  1.60000000E+01  1.00800000E+00  1.00800000E+00
  0.00000000E+00  1.60000000E+01  1.00800000E+00  1.00800000E+00  0.00000000E+00
  1.60000000E+01  1.00800000E+00  1.00800000E+00  0.00000000E+00  1.60000000E+01
  1.00800000E+00  1.00800000E+00  0.00000000E+00  1.60000000E+01  1.00800000E+00
  1.00800000E+00  0.00000000E+00  1.60000000E+01  1.00800000E+00  1.00800000E+00
  0.00000000E+00  1.60000000E+01  1.00800000E+00  1.00800000E+00  0.00000000E+00
  1.60000000E+01  1.00800000E+00  1.00800000E+00  0.00000000E+00  1.60000000E+01
  1.00800000E+00  1.00800000E+00  0.00000000E+00  1.60000000E+01  1.00800000E+00
  1.00800000E+00  0.00000000E+00  1.60000000E+01  1.00800000E+00  1.00800000E+00
  0.00000000E+00  1.60000000E+01  1.00800000E+00  1.00800000E+00  0.00000000E+00
  1.60000000E+01  1.00800000E+00  1.00800000E+00  0.00000000E+00  1.60000000E+01
  1.00800000E+00  1.00800000E+00  0.00000000E+00  1.60000000E+01  1.00800000E+00
  1.00800000E+00  0.00000000E+00  1.60000000E+01  1.00800000E+00  1.00800000E+00
  0.00000000E+00  1.60000000E+01  1.00800000E+00  1.00800000E+00  0.00000000E+00
  1.60000000E+01  1.00800000E+00  1.00800000E+00  0.00000000E+00  1.60000000E+01
  1.00800000E+00  1.00800000E+00  0.00000000E+00  1.60000000E+01  1.00800000E+00
  1.00800000E+00  0.00000000E+00  1.60000000E+01  1.00800000E+00  1.00800000E+00
  0.00000000E+00  1.60000000E+01  1.00800000E+00  1.00800000E+00  0.00000000E+00
  1.60000000E+01  1.00800000E+00  1.00800000E+00  0.00000000E+00  1.60000000E+01
  1.00800000E+00  1.00800000E+00  0.00000000E+00  1.60000000E+01  1.00800000E+00
  1.00800000E+00  0.00000000E+00  1.60000000E+01  1.00800000E+00  1.00800000E+00
  0.00000000E+00  1.60000000E+01  1.00800000E+00  1.00800000E+00  0.00000000E+00
  1.60000000E+01  1.00800000E+00  1.00800000E+00  0.00000000E+00  1.60000000E+01
  1.00800000E+00  1.00800000E+00  0.00000000E+00  1.60000000E+01  1.00800000E+00
  1.00800000E+00  0.00000000E+00  1.60000000E+01  1.00800000E+00  1.00800000E+00
  0.00000000E+00  1.60000000E+01  1.00800000E+00  1.00800000E+00  0.00000000E+00
  1.60000000E+01  1.00800000E+00  1.00800000E+00  0.00000000E+00  1.60000000E+01
  1.00800000E+00  1.00800000E+00  0.00000000E+00  1.60000000E+01  1.00800000E+00
  1.00800000E+00  0.00000000E+00  1.60000000E+01  1.00800000E+00  1.00800000E+00
  0.00000000E+00  1.60000000E+01  1.00800000E+00  1.00800000E+00  0.00000000E+00
  1.60000000E+01  1.00800000E+00  1.00800000E+00  0.00000000E+00  1.60000000E+01
  1.00800000E+00  1.00800000E+00  0.00000000E+00  1.60000000E+01  1.00800000E+00
  1.00800000E+00  0.00000000E+00  1.60000000E+01  1.00800000E+00  1.00800000E+00
  0.00000000E+00  1.60000000E+01  1.00800000E+00  1.00800000E+00  0.00000000E+00
  1.60000000E+01  1.00800000E+00  1.00800000E+00  0.00000000E+00  1.60000000E+01
  1.00800000E+00  1.00800000E+00  0.00000000E+00  1.60000000E+01  1.00800000E+00
  1.00800000E+00  0.00000000E+00  1.60000000E+01  1.00800000E+00  1.00800000E+00
  0.00000000E+00  1.60000000E+01  1.00800000E+00  1.00800000E+00  0.00000000E+00
  1.60000000E+01  1.00800000E+00  1.00800000E+00  0.00000000E+00  1.60000000E+01
  1.00800000E+00  1.00800000E+00  0.00000000E+00  1.60000000E+01  1.00800000E+00
  1.00800000E+00  0.00000000E+00  1.60000000E+01  1.00800000E+00  1.00800000E+00
  0.00000000E+00  1.60000000E+01  1.00800000E+00  1.00800000E+00  0.00000000E+00
  1.60000000E+01  1.00800000E+00  1.00800000E+00  0.00000000E+00  1.60000000E+01
  1.00800000E+00  1.00800000E+00  0.00000000E+00  1.60000000E+01  1.00800000E+00
  1.00800000E+00  0.00000000E+00  1.60000000E+01  1.00800000E+00  1.00800000E+00
  0.00000000E+00  1.60000000E+01  1.00800000E+00  1.00800000E+00  0.00000000E+00
  1.60000000E+01  1.00800000E+00  1.00800000E+00  0.00000000E+00  1.60000000E+01
  1.00800000E+00  1.00800000E+00  0.00000000E+00  1.60000000E+01  1.00800000E+00
  1.00800000E+00  0.00000000E+00  1.60000000E+01  1.00800000E+00  1.00800000E+00
  0.00000000E+00  1.60000000E+01  1.00800000E+00  1.00800000E+00  0.00000000E+00
  1.60000000E+01  1.00800000E+00  1.00800000E+00  0.00000000E+00  1.60000000E+01
  1.00800000E+00  1.00800000E+00  0.00000000E+00  1.60000000E+01  1.00800000E+00
  1.00800000E+00  0.00000000E+00  1.60000000E+01  1.00800000E+00  1.00800000E+00
  0.00000000E+00  1.60000000E+01  1.00800000E+00  1.00800000E+00  0.00000000E+00
  1.60000000E+01  1.00800000E+00  1.00800000E+00  0.00000000E+00  1.60000000E+01
  1.00800000E+00  1.00800000E+00  0.00000000E+00  1.60000000E+01  1.00800000E+00
  1.00800000E+00  0.00000000E+00  1.60000000E+01  1.00800000E+00  1.00800000E+00
  0.00000000E+00  1.60000000E+01  1.00800000E+00  1.00800000E+00  0.00000000E+00
  1.60000000E+01  1.00800000E+00  1.00800000E+00  0.00000000E+00  1.60000000E+01
  1.00800000E+00  1.00800000E+00  0.00000000E+00  1.60000000E+01  1.00800000E+00
  1.00800000E+00  0.00000000E+00  1.60000000E+01  1.00800000E+00  1.00800000E+00
  0.00000000E+00  1.60000000E+01  1.00800000E+00  1.00800000E+00  0.00000000E+00
  1.60000000E+01  1.00800000E+00  1.00800000E+00  0.00000000E+00  1.60000000E+01
  1.00800000E+00  1.00800000E+00  0.00000000E+00  1.60000000E+01  1.00800000E+00
  1.00800000E+00  0.00000000E+00  1.60000000E+01  1.00800000E+00  1.00800000E+00
  0.00000000E+00  1.60000000E+01  1.00800000E+00  1.00800000E+00  0.00000000E+00
  1.60000000E+01  1.00800000E+00  1.00800000E+00  0.00000000E+00  1.60000000E+01
  1.00800000E+00  1.00800000E+00  0.00000000E+00  1.60000000E+01  1.00800000E+00
  1.00800000E+00  0.00000000E+00  1.60000000E+01  1.00800000E+00  1.00800000E+00
  0.00000000E+00  1.60000000E+01  1.00800000E+00  1.00800000E+00  0.00000000E+00
  1.60000000E+01  1.00800000E+00  1.00800000E+00  0.00000000E+00  1.60000000E+01
  1.00800000E+00  1.00800000E+00  0.00000000E+00  1.60000000E+01  1.00800000E+00
  1.00800000E+00  0.00000000E+00  1.60000000E+01  1.00800000E+00  1.00800000E+00
  0.00000000E+00  1.60000000E+01  1.00800000E+00  1.00800000E+00  0.00000000E+00
  1.60000000E+01  1.00800000E+00  1.00800000E+00  0.00000000E+00  1.60000000E+01
  1.00800000E+00  1.00800000E+00  0.00000000E+00  1.60000000E+01  1.00800000E+00
  1.00800000E+00  0.00000000E+00  1.60000000E+01  1.00800000E+00  1.00800000E+00
  0.00000000E+00  1.60000000E+01  1.00800000E+00  1.00800000E+00  0.00000000E+00
  1.60000000E+01  1.00800000E+00  1.00800000E+00  0.00000000E+00  1.60000000E+01
  1.00800000E+00  1.00800000E+00  0.00000000E+00  1.60000000E+01  1.00800000E+00
  1.00800000E+00  0.00000000E+00  1.60000000E+01  1.00800000E+00  1.00800000E+00
  0.00000000E+00  1.60000000E+01  1.00800000E+00  1.00800000E+00  0.00000000E+00
  1.60000000E+01  1.00800000E+00  1.00800000E+00  0.00000000E+00  1.60000000E+01
  1.00800000E+00  1.00800000E+00  0.00000000E+00  1.60000000E+01  1.00800000E+00
  1.00800000E+00  0.00000000E+00  1.60000000E+01  1.00800000E+00  1.00800000E+00
  0.00000000E+00  1.60000000E+01  1.00800000E+00  1.00800000E+00  0.00000000E+00
  1.60000000E+01  1.00800000E+00  1.00800000E+00  0.00000000E+00  1.60000000E+01
  1.00800000E+00  1.00800000E+00  0.00000000E+00  1.60000000E+01  1.00800000E+00
  1.00800000E+00  0.00000000E+00  1.60000000E+01  1.00800000E+00  1.00800000E+00
  0.00000000E+00  1.60000000E+01  1.00800000E+00  1.00800000E+00  0.00000000E+00
  1.60000000E+01  1.00800000E+00  1.00800000E+00  0.00000000E+00  1.60000000E+01
  1.00800000E+00  1.00800000E+00  0.00000000E+00  1.60000000E+01  1.00800000E+00
  1.00800000E+00  0.00000000E+00  1.60000000E+01  1.00800000E+00  1.00800000E+00
  0.00000000E+00  1.60000000E+01  1.00800000E+00  1.00800000E+00  0.00000000E+00
  1.60000000E+01  1.00800000E+00  1.00800000E+00  0.00000000E+00  1.60000000E+01
  1.00800000E+00  1.00800000E+00  0.00000000E+00  1.60000000E+01  1.00800000E+00
  1.00800000E+00  0.00000000E+00  1.60000000E+01  1.00800000E+00  1.00800000E+00
  0.00000000E+00  1.60000000E+01  1.00800000E+00  1.00800000E+00  0.00000000E+00
  1.60000000E+01  1.00800000E+00  1.00800000E+00  0.00000000E+00  1.60000000E+01
  1.00800000E+00  1.00800000E+00  0.00000000E+00  1.60000000E+01  1.00800000E+00
  1.00800000E+00  0.00000000E+00  1.60000000E+01  1.00800000E+00  1.00800000E+00
  0.00000000E+00  1.60000000E+01  1.00800000E+00  1.00800000E+00  0.00000000E+00
  1.60000000E+01  1.00800000E+00  1.00800000E+00  0.00000000E+00  1.60000000E+01
  1.00800000E+00  1.00800000E+00  0.00000000E+00  1.60000000E+01  1.00800000E+00
  1.00800000E+00  0.00000000E+00  1.60000000E+01  1.00800000E+00  1.00800000E+00
  0.00000000E+00  1.60000000E+01  1.00800000E+00  1.00800000E+00  0.00000000E+00
  1.60000000E+01  1.00800000E+00  1.00800000E+00  0.00000000E+00  1.60000000E+01
  1.00800000E+00  1.00800000E+00  0.00000000E+00  1.60000000E+01  1.00800000E+00
  1.00800000E+00  0.00000000E+00  1.60000000E+01  1.00800000E+00  1.00800000E+00
  0.00000000E+00  1.60000000E+01  1.00800000E+00  1.00800000E+00  0.00000000E+00
  1.60000000E+01  1.00800000E+00  1.00800000E+00  0.00000000E+00  1.60000000E+01
  1.00800000E+00  1.00800000E+00  0.00000000E+00  1.60000000E+01  1.00800000E+00
  1.00800000E+00  0.00000000E+00  1.60000000E+01  1.00800000E+00  1.00800000E+00
  0.00000000E+00  1.60000000E+01  1.00800000E+00  1.00800000E+00  0.00000000E+00
  1.60000000E+01  1.00800000E+00  1.00800000E+00  0.00000000E+00  1.60000000E+01
  1.00800000E+00  1.00800000E+00  0.00000000E+00  1.60000000E+01  1.00800000E+00
  1.00800000E+00  0.00000000E+00  1.60000000E+01  1.00800000E+00  1.00800000E+00
  0.00000000E+00  1.60000000E+01  1.00800000E+00  1.00800000E+00  0.00000000E+00
  1.60000000E+01  1.00800000E+00  1.00800000E+00  0.00000000E+00  1.60000000E+01
  1.00800000E+00  1.00800000E+00  0.00000000E+00  1.60000000E+01  1.00800000E+00
  1.00800000E+00  0.00000000E+00  1.60000000E+01  1.00800000E+00  1.00800000E+00
  0.00000000E+00  1.60000000E+01  1.00800000E+00  1.00800000E+00  0.00000000E+00
  1.60000000E+01  1.00800000E+00  1.00800000E+00  0.00000000E+00  1.60000000E+01
  1.00800000E+00  1.00800000E+00  0.00000000E+00  1.60000000E+01  1.00800000E+00
  1.00800000E+00  0.00000000E+00  1.60000000E+01  1.00800000E+00  1.00800000E+00
  0.00000000E+00  1.60000000E+01  1.00800000E+00  1.00800000E+00  0.00000000E+00
  1.60000000E+01  1.00800000E+00  1.00800000E+00  0.00000000E+00  1.60000000E+01
  1.00800000E+00  1.00800000E+00  0.00000000E+00  1.60000000E+01  1.00800000E+00
  1.00800000E+00  0.00000000E+00  1.60000000E+01  1.00800000E+00  1.00800000E+00
  0.00000000E+00  1.60000000E+01  1.00800000E+00  1.00800000E+00  0.00000000E+00
  1.60000000E+01  1.00800000E+00  1.00800000E+00  0.00000000E+00  1.60000000E+01
  1.00800000E+00  1.00800000E+00  0.00000000E+00  1.60000000E+01  1.00800000E+00
  1.00800000E+00  0.00000000E+00  1.60000000E+01  1.00800000E+00  1.00800000E+00
  0.00000000E+00  1.60000000E+01  1.00800000E+00  1.00800000E+00  0.00000000E+00
  1.60000000E+01  1.00800000E+00  1.00800000E+00  0.00000000E+00  1.60000000E+01
  1.00800000E+00  1.00800000E+00  0.00000000E+00  1.60000000E+01  1.00800000E+00
  1.00800000E+00  0.00000000E+00  1.60000000E+01  1.00800000E+00  1.00800000E+00
  0.00000000E+00  1.60000000E+01  1.00800000E+00  1.00800000E+00  0.00000000E+00
  1.60000000E+01  1.00800000E+00  1.00800000E+00  0.00000000E+00  1.60000000E+01
  1.00800000E+00  1.00800000E+00  0.00000000E+00  1.60000000E+01  1.00800000E+00
  1.00800000E+00  0.00000000E+00  1.60000000E+01  1.00800000E+00  1.00800000E+00
  0.00000000E+00  1.60000000E+01  1.00800000E+00  1.00800000E+00  0.00000000E+00
  1.60000000E+01  1.00800000E+00  1.00800000E+00  0.00000000E+00  1.60000000E+01
  1.00800000E+00  1.00800000E+00  0.00000000E+00  1.60000000E+01  1.00800000E+00
  1.00800000E+00  0.00000000E+00  1.60000000E+01  1.00800000E+00  1.00800000E+00
  0.00000000E+00  1.60000000E+01  1.00800000E+00  1.00800000E+00  0.00000000E+00
  1.60000000E+01  1.00800000E+00  1.00800000E+00  0.00000000E+00  1.60000000E+01
  1.00800000E+00  1.00800000E+00  0.00000000E+00  1.60000000E+01  1.00800000E+00
  1.00800000E+00  0.00000000E+00  1.60000000E+01  1.00800000E+00  1.00800000E+00
  0.00000000E+00  1.60000000E+01  1.00800000E+00  1.00800000E+00  0.00000000E+00
  1.60000000E+01  1.00800000E+00  1.00800000E+00  0.00000000E+00  1.60000000E+01
  1.00800000E+00  1.00800000E+00  0.00000000E+00  1.60000000E+01  1.00800000E+00
  1.00800000E+00  0.00000000E+00  1.60000000E+01  1.00800000E+00  1.00800000E+00
  0.00000000E+00  1.60000000E+01  1.00800000E+00  1.00800000E+00  0.00000000E+00
  1.60000000E+01  1.00800000E+00  1.00800000E+00  0.00000000E+00  1.60000000E+01
  1.00800000E+00  1.00800000E+00  0.00000000E+00  1.60000000E+01  1.00800000E+00
  1.00800000E+00  0.00000000E+00  1.60000000E+01  1.00800000E+00  1.00800000E+00
  0.00000000E+00  1.60000000E+01  1.00800000E+00  1.00800000E+00  0.00000000E+00
  1.60000000E+01  1.00800000E+00  1.00800000E+00  0.00000000E+00  1.60000000E+01
  1.00800000E+00  1.00800000E+00  0.00000000E+00  1.60000000E+01  1.00800000E+00
  1.00800000E+00  0.00000000E+00  1.60000000E+01  1.00800000E+00  1.00800000E+00
  0.00000000E+00  1.60000000E+01  1.00800000E+00  1.00800000E+00  0.00000000E+00
  1.60000000E+01  1.00800000E+00  1.00800000E+00  0.00000000E+00  1.60000000E+01
  1.00800000E+00  1.00800000E+00  0.00000000E+00  1.60000000E+01  1.00800000E+00
  1.00800000E+00  0.00000000E+00  1.60000000E+01  1.00800000E+00  1.00800000E+00
  0.00000000E+00  1.60000000E+01  1.00800000E+00  1.00800000E+00  0.00000000E+00
  1.60000000E+01  1.00800000E+00  1.00800000E+00  0.00000000E+00  1.60000000E+01
  1.00800000E+00  1.00800000E+00  0.00000000E+00  1.60000000E+01  1.00800000E+00
  1.00800000E+00  0.00000000E+00  1.60000000E+01  1.00800000E+00  1.00800000E+00
  0.00000000E+00  1.60000000E+01  1.00800000E+00  1.00800000E+00  0.00000000E+00
  1.60000000E+01  1.00800000E+00  1.00800000E+00  0.00000000E+00  1.60000000E+01
  1.00800000E+00  1.00800000E+00  0.00000000E+00  1.60000000E+01  1.00800000E+00
  1.00800000E+00  0.00000000E+00  1.60000000E+01  1.00800000E+00  1.00800000E+00
  0.00000000E+00  1.60000000E+01  1.00800000E+00  1.00800000E+00  0.00000000E+00
  1.60000000E+01  1.00800000E+00  1.00800000E+00  0.00000000E+00  1.60000000E+01
  1.00800000E+00  1.00800000E+00  0.00000000E+00  1.60000000E+01  1.00800000E+00
  1.00800000E+00  0.00000000E+00  1.60000000E+01  1.00800000E+00  1.00800000E+00
  0.00000000E+00  1.60000000E+01  1.00800000E+00  1.00800000E+00  0.00000000E+00
  1.60000000E+01  1.00800000E+00  1.00800000E+00  0.00000000E+00  1.60000000E+01
  1.00800000E+00  1.00800000E+00  0.00000000E+00  1.60000000E+01  1.00800000E+00
  1.00800000E+00  0.00000000E+00  1.60000000E+01  1.00800000E+00  1.00800000E+00
  0.00000000E+00  1.60000000E+01  1.00800000E+00  1.00800000E+00  0.00000000E+00
  1.60000000E+01  1.00800000E+00  1.00800000E+00  0.00000000E+00  1.60000000E+01
  1.00800000E+00  1.00800000E+00  0.00000000E+00  1.60000000E+01  1.00800000E+00
  1.00800000E+00  0.00000000E+00  1.60000000E+01  1.00800000E+00  1.00800000E+00
  0.00000000E+00  1.60000000E+01  1.00800000E+00  1.00800000E+00  0.00000000E+00
  1.60000000E+01  1.00800000E+00  1.00800000E+00  0.00000000E+00  1.60000000E+01
  1.00800000E+00  1.00800000E+00  0.00000000E+00  1.60000000E+01  1.00800000E+00
  1.00800000E+00  0.00000000E+00  1.60000000E+01  1.00800000E+00  1.00800000E+00
  0.00000000E+00  1.60000000E+01  1.00800000E+00  1.00800000E+00  0.00000000E+00
  1.60000000E+01  1.00800000E+00  1.00800000E+00  0.00000000E+00  1.60000000E+01
  1.00800000E+00  1.00800000E+00  0.00000000E+00  1.60000000E+01  1.00800000E+00
  1.00800000E+00  0.00000000E+00  1.60000000E+01  1.00800000E+00  1.00800000E+00
  0.00000000E+00  1.60000000E+01  1.00800000E+00  1.00800000E+00  0.00000000E+00
  1.60000000E+01  1.00800000E+00  1.00800000E+00  0.00000000E+00  1.60000000E+01
  1.00800000E+00  1.00800000E+00  0.00000000E+00  1.60000000E+01  1.00800000E+00
  1.00800000E+00  0.00000000E+00  1.60000000E+01  1.00800000E+00  1.00800000E+00
  0.00000000E+00  1.60000000E+01  1.00800000E+00  1.00800000E+00  0.00000000E+00
  1.60000000E+01  1.00800000E+00  1.00800000E+00  0.00000000E+00  1.60000000E+01
  1.00800000E+00  1.00800000E+00  0.00000000E+00  1.60000000E+01  1.00800000E+00
  1.00800000E+00  0.00000000E+00  1.60000000E+01  1.00800000E+00  1.00800000E+00
  0.00000000E+00  1.60000000E+01  1.00800000E+00  1.00800000E+00  0.00000000E+00
  1.60000000E+01  1.00800000E+00  1.00800000E+00  0.00000000E+00  1.60000000E+01
  1.00800000E+00  1.00800000E+00  0.00000000E+00  1.60000000E+01  1.00800000E+00
  1.00800000E+00  0.00000000E+00  1.60000000E+01  1.00800000E+00  1.00800000E+00
  0.00000000E+00  1.60000000E+01  1.00800000E+00  1.00800000E+00  0.00000000E+00
  1.60000000E+01  1.00800000E+00  1.00800000E+00  0.00000000E+00  1.60000000E+01
  1.00800000E+00  1.00800000E+00  0.00000000E+00  1.60000000E+01  1.00800000E+00
  1.00800000E+00  0.00000000E+00  1.60000000E+01  1.00800000E+00  1.00800000E+00
  0.00000000E+00  1.60000000E+01  1.00800000E+00  1.00800000E+00  0.00000000E+00
  1.60000000E+01  1.00800000E+00  1.00800000E+00  0.00000000E+00  1.60000000E+01
  1.00800000E+00  1.00800000E+00  0.00000000E+00  1.60000000E+01  1.00800000E+00
  1.00800000E+00  0.00000000E+00  1.60000000E+01  1.00800000E+00  1.00800000E+00
  0.00000000E+00  1.60000000E+01  1.00800000E+00  1.00800000E+00  0.00000000E+00
  1.60000000E+01  1.00800000E+00  1.00800000E+00  0.00000000E+00  1.60000000E+01
  1.00800000E+00  1.00800000E+00  0.00000000E+00  1.60000000E+01  1.00800000E+00
  1.00800000E+00  0.00000000E+00  1.60000000E+01  1.00800000E+00  1.00800000E+00
  0.00000000E+00  1.60000000E+01  1.00800000E+00  1.00800000E+00  0.00000000E+00
  1.60000000E+01  1.00800000E+00  1.00800000E+00  0.00000000E+00  1.60000000E+01
  1.00800000E+00  1.00800000E+00  0.00000000E+00  1.60000000E+01  1.00800000E+00
  1.00800000E+00  0.00000000E+00  1.60000000E+01  1.00800000E+00  1.00800000E+00
  0.00000000E+00  1.60000000E+01  1.00800000E+00  1.00800000E+00  0.00000000E+00
  1.60000000E+01  1.00800000E+00  1.00800000E+00  0.00000000E+00  1.60000000E+01
  1.00800000E+00  1.00800000E+00  0.00000000E+00  1.60000000E+01  1.00800000E+00
  1.00800000E+00  0.00000000E+00  1.60000000E+01  1.00800000E+00  1.00800000E+00
  0.00000000E+00  1.60000000E+01  1.00800000E+00  1.00800000E+00  0.00000000E+00
  1.60000000E+01  1.00800000E+00  1.00800000E+00  0.00000000E+00  1.60000000E+01
  1.00800000E+00  1.00800000E+00  0.00000000E+00  1.60000000E+01  1.00800000E+00
  1.00800000E+00  0.00000000E+00  1.60000000E+01  1.00800000E+00  1.00800000E+00
  0.00000000E+00  1.60000000E+01  1.00800000E+00  1.00800000E+00  0.00000000E+00
  1.60000000E+01  1.00800000E+00  1.00800000E+00  0.00000000E+00  1.60000000E+01
  1.00800000E+00  1.00800000E+00  0.00000000E+00  1.60000000E+01  1.00800000E+00
  1.00800000E+00  0.00000000E+00  1.60000000E+01  1.00800000E+00  1.00800000E+00
  0.00000000E+00  1.60000000E+01  1.00800000E+00  1.00800000E+00  0.00000000E+00
  1.60000000E+01  1.00800000E+00  1.00800000E+00  0.00000000E+00  1.60000000E+01
  1.00800000E+00  1.00800000E+00  0.00000000E+00  1.60000000E+01  1.00800000E+00
  1.00800000E+00  0.00000000E+00  1.60000000E+01  1.00800000E+00  1.00800000E+00
  0.00000000E+00  1.60000000E+01  1.00800000E+00  1.00800000E+00  0.00000000E+00
  1.60000000E+01  1.00800000E+00  1.00800000E+00  0.00000000E+00  1.60000000E+01
  1.00800000E+00  1.00800000E+00  0.00000000E+00  1.60000000E+01  1.00800000E+00
  1.00800000E+00  0.00000000E+00  1.60000000E+01  1.00800000E+00  1.00800000E+00
  0.00000000E+00  1.60000000E+01  1.00800000E+00  1.00800000E+00  0.00000000E+00
  1.60000000E+01  1.00800000E+00  1.00800000E+00  0.00000000E+00  1.60000000E+01
  1.00800000E+00  1.00800000E+00  0.00000000E+00  1.60000000E+01  1.00800000E+00
  1.00800000E+00  0.00000000E+00  1.60000000E+01  1.00800000E+00  1.00800000E+00
  0.00000000E+00  1.60000000E+01  1.00800000E+00  1.00800000E+00  0.00000000E+00
  1.60000000E+01  1.00800000E+00  1.00800000E+00  0.00000000E+00  1.60000000E+01
  1.00800000E+00  1.00800000E+00  0.00000000E+00  1.60000000E+01  1.00800000E+00
  1.00800000E+00  0.00000000E+00  1.60000000E+01  1.00800000E+00  1.00800000E+00
  0.00000000E+00  1.60000000E+01  1.00800000E+00  1.00800000E+00  0.00000000E+00
  1.60000000E+01  1.00800000E+00  1.00800000E+00  0.00000000E+00  1.60000000E+01
  1.00800000E+00  1.00800000E+00  0.00000000E+00  1.60000000E+01  1.00800000E+00
  1.00800000E+00  0.00000000E+00  1.60000000E+01  1.00800000E+00  1.00800000E+00
  0.00000000E+00  1.60000000E+01  1.00800000E+00  1.00800000E+00  0.00000000E+00
  1.60000000E+01  1.00800000E+00  1.00800000E+00  0.00000000E+00  1.60000000E+01
  1.00800000E+00  1.00800000E+00  0.00000000E+00  1.60000000E+01  1.00800000E+00
  1.00800000E+00  0.00000000E+00  1.60000000E+01  1.00800000E+00  1.00800000E+00
  0.00000000E+00  1.60000000E+01  1.00800000E+00  1.00800000E+00  0.00000000E+00
  1.60000000E+01  1.00800000E+00  1.00800000E+00  0.00000000E+00  1.60000000E+01
  1.00800000E+00  1.00800000E+00  0.00000000E+00  1.60000000E+01  1.00800000E+00
  1.00800000E+00  0.00000000E+00  1.60000000E+01  1.00800000E+00  1.00800000E+00
  0.00000000E+00  1.60000000E+01  1.00800000E+00  1.00800000E+00  0.00000000E+00
  1.60000000E+01  1.00800000E+00  1.00800000E+00  0.00000000E+00  1.60000000E+01
  1.00800000E+00  1.00800000E+00  0.00000000E+00  1.60000000E+01  1.00800000E+00
  1.00800000E+00  0.00000000E+00  1.60000000E+01  1.00800000E+00  1.00800000E+00
  0.00000000E+00  1.60000000E+01  1.00800000E+00  1.00800000E+00  0.00000000E+00
  1.60000000E+01  1.00800000E+00  1.00800000E+00  0.00000000E+00  1.60000000E+01
  1.00800000E+00  1.00800000E+00  0.00000000E+00  1.60000000E+01  1.00800000E+00
  1.00800000E+00  0.00000000E+00  1.60000000E+01  1.00800000E+00  1.00800000E+00
  0.00000000E+00  1.60000000E+01  1.00800000E+00  1.00800000E+00  0.00000000E+00
  1.60000000E+01  1.00800000E+00  1.00800000E+00  0.00000000E+00  1.60000000E+01
  1.00800000E+00  1.00800000E+00  0.00000000E+00  1.60000000E+01  1.00800000E+00
  1.00800000E+00  0.00000000E+00  1.60000000E+01  1.00800000E+00  1.00800000E+00
  0.00000000E+00  1.60000000E+01  1.00800000E+00  1.00800000E+00  0.00000000E+00
  1.60000000E+01  1.00800000E+00  1.00800000E+00  0.00000000E+00  1.60000000E+01
  1.00800000E+00  1.00800000E+00  0.00000000E+00  1.60000000E+01  1.00800000E+00
  1.00800000E+00  0.00000000E+00  1.60000000E+01  1.00800000E+00  1.00800000E+00
  0.00000000E+00  1.60000000E+01  1.00800000E+00  1.00800000E+00  0.00000000E+00
  1.60000000E+01  1.00800000E+00  1.00800000E+00  0.00000000E+00  1.60000000E+01
  1.00800000E+00  1.00800000E+00  0.00000000E+00  1.60000000E+01  1.00800000E+00
  1.00800000E+00  0.00000000E+00  1.60000000E+01  1.00800000E+00  1.00800000E+00
  0.00000000E+00  1.60000000E+01  1.00800000E+00  1.00800000E+00  0.00000000E+00
  1.60000000E+01  1.00800000E+00  1.00800000E+00  0.00000000E+00  1.60000000E+01
  1.00800000E+00  1.00800000E+00  0.00000000E+00  1.60000000E+01  1.00800000E+00
  1.00800000E+00  0.00000000E+00  1.60000000E+01  1.00800000E+00  1.00800000E+00
  0.00000000E+00  1.60000000E+01  1.00800000E+00  1.00800000E+00  0.00000000E+00
  1.60000000E+01  1.00800000E+00  1.00800000E+00  0.00000000E+00  1.60000000E+01
  1.00800000E+00  1.00800000E+00  0.00000000E+00  1.60000000E+01  1.00800000E+00
  1.00800000E+00  0.00000000E+00  1.60000000E+01  1.00800000E+00  1.00800000E+00
  0.00000000E+00  1.60000000E+01  1.00800000E+00  1.00800000E+00  0.00000000E+00
  1.60000000E+01  1.00800000E+00  1.00800000E+00  0.00000000E+00  1.60000000E+01
  1.00800000E+00  1.00800000E+00  0.00000000E+00  1.60000000E+01  1.00800000E+00
  1.00800000E+00  0.00000000E+00  1.60000000E+01  1.00800000E+00  1.00800000E+00
  0.00000000E+00  1.60000000E+01  1.00800000E+00  1.00800000E+00  0.00000000E+00
  1.60000000E+01  1.00800000E+00  1.00800000E+00  0.00000000E+00  1.60000000E+01
  1.00800000E+00  1.00800000E+00  0.00000000E+00  1.60000000E+01  1.00800000E+00
  1.00800000E+00  0.00000000E+00  1.60000000E+01  1.00800000E+00  1.00800000E+00
  0.00000000E+00  1.60000000E+01  1.00800000E+00  1.00800000E+00  0.00000000E+00
  1.60000000E+01  1.00800000E+00  1.00800000E+00  0.00000000E+00  1.60000000E+01
  1.00800000E+00  1.00800000E+00  0.00000000E+00  1.60000000E+01  1.00800000E+00
  1.00800000E+00  0.00000000E+00  1.60000000E+01  1.00800000E+00  1.00800000E+00
  0.00000000E+00  1.60000000E+01  1.00800000E+00  1.00800000E+00  0.00000000E+00
  1.60000000E+01  1.00800000E+00  1.00800000E+00  0.00000000E+00  1.60000000E+01
  1.00800000E+00  1.00800000E+00  0.00000000E+00  1.60000000E+01  1.00800000E+00
  1.00800000E+00  0.00000000E+00  1.60000000E+01  1.00800000E+00  1.00800000E+00
  0.00000000E+00  1.60000000E+01  1.00800000E+00  1.00800000E+00  0.00000000E+00
  1.60000000E+01  1.00800000E+00  1.00800000E+00  0.00000000E+00  1.60000000E+01
  1.00800000E+00  1.00800000E+00  0.00000000E+00  1.60000000E+01  1.00800000E+00
  1.00800000E+00  0.00000000E+00  1.60000000E+01  1.00800000E+00  1.00800000E+00
  0.00000000E+00  1.60000000E+01  1.00800000E+00  1.00800000E+00  0.00000000E+00
  1.60000000E+01  1.00800000E+00  1.00800000E+00  0.00000000E+00  1.60000000E+01
  1.00800000E+00  1.00800000E+00  0.00000000E+00  1.60000000E+01  1.00800000E+00
  1.00800000E+00  0.00000000E+00  1.60000000E+01  1.00800000E+00  1.00800000E+00
  0.00000000E+00  1.60000000E+01  1.00800000E+00  1.00800000E+00  0.00000000E+00
  1.60000000E+01  1.00800000E+00  1.00800000E+00  0.00000000E+00  1.60000000E+01
  1.00800000E+00  1.00800000E+00  0.00000000E+00  1.60000000E+01  1.00800000E+00
  1.00800000E+00  0.00000000E+00  1.60000000E+01  1.00800000E+00  1.00800000E+00
  0.00000000E+00  1.60000000E+01  1.00800000E+00  1.00800000E+00  0.00000000E+00
  1.60000000E+01  1.00800000E+00  1.00800000E+00  0.00000000E+00  1.60000000E+01
  1.00800000E+00  1.00800000E+00  0.00000000E+00  1.60000000E+01  1.00800000E+00
  1.00800000E+00  0.00000000E+00  1.60000000E+01  1.00800000E+00  1.00800000E+00
  0.00000000E+00  1.60000000E+01  1.00800000E+00  1.00800000E+00  0.00000000E+00
  1.60000000E+01  1.00800000E+00  1.00800000E+00  0.00000000E+00  1.60000000E+01
  1.00800000E+00  1.00800000E+00  0.00000000E+00  1.60000000E+01  1.00800000E+00
  1.00800000E+00  0.00000000E+00  1.60000000E+01  1.00800000E+00  1.00800000E+00
  0.00000000E+00  1.60000000E+01  1.00800000E+00  1.00800000E+00  0.00000000E+00
  1.60000000E+01  1.00800000E+00  1.00800000E+00  0.00000000E+00  1.60000000E+01
  1.00800000E+00  1.00800000E+00  0.00000000E+00  1.60000000E+01  1.00800000E+00
  1.00800000E+00  0.00000000E+00  1.60000000E+01  1.00800000E+00  1.00800000E+00
  0.00000000E+00  1.60000000E+01  1.00800000E+00  1.00800000E+00  0.00000000E+00
  1.60000000E+01  1.00800000E+00  1.00800000E+00  0.00000000E+00  1.60000000E+01
  1.00800000E+00  1.00800000E+00  0.00000000E+00  1.60000000E+01  1.00800000E+00
  1.00800000E+00  0.00000000E+00  1.60000000E+01  1.00800000E+00  1.00800000E+00
  0.00000000E+00  1.60000000E+01  1.00800000E+00  1.00800000E+00  0.00000000E+00
  1.60000000E+01  1.00800000E+00  1.00800000E+00  0.00000000E+00  1.60000000E+01
  1.00800000E+00  1.00800000E+00  0.00000000E+00  1.60000000E+01  1.00800000E+00
  1.00800000E+00  0.00000000E+00  1.60000000E+01  1.00800000E+00  1.00800000E+00
  0.00000000E+00  1.60000000E+01  1.00800000E+00  1.00800000E+00  0.00000000E+00
  1.60000000E+01  1.00800000E+00  1.00800000E+00  0.00000000E+00  1.60000000E+01
  1.00800000E+00  1.00800000E+00  0.00000000E+00  1.60000000E+01  1.00800000E+00
  1.00800000E+00  0.00000000E+00  1.60000000E+01  1.00800000E+00  1.00800000E+00
  0.00000000E+00  1.60000000E+01  1.00800000E+00  1.00800000E+00  0.00000000E+00
  1.60000000E+01  1.00800000E+00  1.00800000E+00  0.00000000E+00  1.60000000E+01
  1.00800000E+00  1.00800000E+00  0.00000000E+00  1.60000000E+01  1.00800000E+00
  1.00800000E+00  0.00000000E+00  1.60000000E+01  1.00800000E+00  1.00800000E+00
  0.00000000E+00  1.60000000E+01  1.00800000E+00  1.00800000E+00  0.00000000E+00
  1.60000000E+01  1.00800000E+00  1.00800000E+00  0.00000000E+00  1.60000000E+01
  1.00800000E+00  1.00800000E+00  0.00000000E+00  1.60000000E+01  1.00800000E+00
  1.00800000E+00  0.00000000E+00  1.60000000E+01  1.00800000E+00  1.00800000E+00
  0.00000000E+00  1.60000000E+01  1.00800000E+00  1.00800000E+00  0.00000000E+00
  1.60000000E+01  1.00800000E+00  1.00800000E+00  0.00000000E+00  1.60000000E+01
  1.00800000E+00  1.00800000E+00  0.00000000E+00  1.60000000E+01  1.00800000E+00
  1.00800000E+00  0.00000000E+00  1.60000000E+01  1.00800000E+00  1.00800000E+00
  0.00000000E+00  1.60000000E+01  1.00800000E+00  1.00800000E+00  0.00000000E+00
  1.60000000E+01  1.00800000E+00  1.00800000E+00  0.00000000E+00  1.60000000E+01
  1.00800000E+00  1.00800000E+00  0.00000000E+00  1.60000000E+01  1.00800000E+00
  1.00800000E+00  0.00000000E+00  1.60000000E+01  1.00800000E+00  1.00800000E+00
  0.00000000E+00  1.60000000E+01  1.00800000E+00  1.00800000E+00  0.00000000E+00
  1.60000000E+01  1.00800000E+00  1.00800000E+00  0.00000000E+00  1.60000000E+01
  1.00800000E+00  1.00800000E+00  0.00000000E+00  1.60000000E+01  1.00800000E+00
  1.00800000E+00  0.00000000E+00  1.60000000E+01  1.00800000E+00  1.00800000E+00
  0.00000000E+00  1.60000000E+01  1.00800000E+00  1.00800000E+00  0.00000000E+00
  1.60000000E+01  1.00800000E+00  1.00800000E+00  0.00000000E+00  1.60000000E+01
  1.00800000E+00  1.00800000E+00  0.00000000E+00  1.60000000E+01  1.00800000E+00
  1.00800000E+00  0.00000000E+00  1.60000000E+01  1.00800000E+00  1.00800000E+00
  0.00000000E+00  1.60000000E+01  1.00800000E+00  1.00800000E+00  0.00000000E+00
  1.60000000E+01  1.00800000E+00  1.00800000E+00  0.00000000E+00  1.60000000E+01
  1.00800000E+00  1.00800000E+00  0.00000000E+00  1.60000000E+01  1.00800000E+00
  1.00800000E+00  0.00000000E+00  1.60000000E+01  1.00800000E+00  1.00800000E+00
  0.00000000E+00  1.60000000E+01  1.00800000E+00  1.00800000E+00  0.00000000E+00
  1.60000000E+01  1.00800000E+00  1.00800000E+00  0.00000000E+00  1.60000000E+01
  1.00800000E+00  1.00800000E+00  0.00000000E+00  1.60000000E+01  1.00800000E+00
  1.00800000E+00  0.00000000E+00  1.60000000E+01  1.00800000E+00  1.00800000E+00
  0.00000000E+00  1.60000000E+01  1.00800000E+00  1.00800000E+00  0.00000000E+00
  1.60000000E+01  1.00800000E+00  1.00800000E+00  0.00000000E+00  1.60000000E+01
  1.00800000E+00  1.00800000E+00  0.00000000E+00  1.60000000E+01  1.00800000E+00
  1.00800000E+00  0.00000000E+00  1.60000000E+01  1.00800000E+00  1.00800000E+00
  0.00000000E+00  1.60000000E+01  1.00800000E+00  1.00800000E+00  0.00000000E+00
  1.60000000E+01  1.00800000E+00  1.00800000E+00  0.00000000E+00  1.60000000E+01
  1.00800000E+00  1.00800000E+00  0.00000000E+00  1.60000000E+01  1.00800000E+00
  1.00800000E+00  0.00000000E+00  1.60000000E+01  1.00800000E+00  1.00800000E+00
  0.00000000E+00  1.60000000E+01  1.00800000E+00  1.00800000E+00  0.00000000E+00
  1.60000000E+01  1.00800000E+00  1.00800000E+00  0.00000000E+00  1.60000000E+01
  1.00800000E+00  1.00800000E+00  0.00000000E+00  1.60000000E+01  1.00800000E+00
  1.00800000E+00  0.00000000E+00  1.60000000E+01  1.00800000E+00  1.00800000E+00
  0.00000000E+00  1.60000000E+01  1.00800000E+00  1.00800000E+00  0.00000000E+00
  1.60000000E+01  1.00800000E+00  1.00800000E+00  0.00000000E+00  1.60000000E+01
  1.00800000E+00  1.00800000E+00  0.00000000E+00  1.60000000E+01  1.00800000E+00
  1.00800000E+00  0.00000000E+00  1.60000000E+01  1.00800000E+00  1.00800000E+00
  0.00000000E+00  1.60000000E+01  1.00800000E+00  1.00800000E+00  0.00000000E+00
  1.60000000E+01  1.00800000E+00  1.00800000E+00  0.00000000E+00  1.60000000E+01
  1.00800000E+00  1.00800000E+00  0.00000000E+00  1.60000000E+01  1.00800000E+00
  1.00800000E+00  0.00000000E+00  1.60000000E+01  1.00800000E+00  1.00800000E+00
  0.00000000E+00  1.60000000E+01  1.00800000E+00  1.00800000E+00  0.00000000E+00
  1.60000000E+01  1.00800000E+00  1.00800000E+00  0.00000000E+00  1.60000000E+01
  1.00800000E+00  1.00800000E+00  0.00000000E+00  1.60000000E+01  1.00800000E+00
  1.00800000E+00  0.00000000E+00  1.60000000E+01  1.00800000E+00  1.00800000E+00
  0.00000000E+00  1.60000000E+01  1.00800000E+00  1.00800000E+00  0.00000000E+00
  1.60000000E+01  1.00800000E+00  1.00800000E+00  0.00000000E+00  1.60000000E+01
  1.00800000E+00  1.00800000E+00  0.00000000E+00  1.60000000E+01  1.00800000E+00
  1.00800000E+00  0.00000000E+00  1.60000000E+01  1.00800000E+00  1.00800000E+00
  0.00000000E+00  1.60000000E+01  1.00800000E+00  1.00800000E+00  0.00000000E+00
  1.60000000E+01  1.00800000E+00  1.00800000E+00  0.00000000E+00  1.60000000E+01
  1.00800000E+00  1.00800000E+00  0.00000000E+00  1.60000000E+01  1.00800000E+00
  1.00800000E+00  0.00000000E+00  1.60000000E+01  1.00800000E+00  1.00800000E+00
  0.00000000E+00  1.60000000E+01  1.00800000E+00  1.00800000E+00  0.00000000E+00
  1.60000000E+01  1.00800000E+00  1.00800000E+00  0.00000000E+00  1.60000000E+01
  1.00800000E+00  1.00800000E+00  0.00000000E+00  1.60000000E+01  1.00800000E+00
  1.00800000E+00  0.00000000E+00  1.60000000E+01  1.00800000E+00  1.00800000E+00
  0.00000000E+00  1.60000000E+01  1.00800000E+00  1.00800000E+00  0.00000000E+00
  1.60000000E+01  1.00800000E+00  1.00800000E+00  0.00000000E+00  1.60000000E+01
  1.00800000E+00  1.00800000E+00  0.00000000E+00  1.60000000E+01  1.00800000E+00
  1.00800000E+00  0.00000000E+00  1.60000000E+01  1.00800000E+00  1.00800000E+00
  0.00000000E+00  1.60000000E+01  1.00800000E+00  1.00800000E+00  0.00000000E+00
  1.60000000E+01  1.00800000E+00  1.00800000E+00  0.00000000E+00  1.60000000E+01
  1.00800000E+00  1.00800000E+00  0.00000000E+00  1.60000000E+01  1.00800000E+00
  1.00800000E+00  0.00000000E+00  1.60000000E+01  1.00800000E+00  1.00800000E+00
  0.00000000E+00  1.60000000E+01  1.00800000E+00  1.00800000E+00  0.00000000E+00
  1.60000000E+01  1.00800000E+00  1.00800000E+00  0.00000000E+00  1.60000000E+01
  1.00800000E+00  1.00800000E+00  0.00000000E+00  1.60000000E+01  1.00800000E+00
  1.00800000E+00  0.00000000E+00  1.60000000E+01  1.00800000E+00  1.00800000E+00
  0.00000000E+00  1.60000000E+01  1.00800000E+00  1.00800000E+00  0.00000000E+00
  1.60000000E+01  1.00800000E+00  1.00800000E+00  0.00000000E+00  1.60000000E+01
  1.00800000E+00  1.00800000E+00  0.00000000E+00  1.60000000E+01  1.00800000E+00
  1.00800000E+00  0.00000000E+00  1.60000000E+01  1.00800000E+00  1.00800000E+00
  0.00000000E+00  1.60000000E+01  1.00800000E+00  1.00800000E+00  0.00000000E+00
  1.60000000E+01  1.00800000E+00  1.00800000E+00  0.00000000E+00  1.60000000E+01
  1.00800000E+00  1.00800000E+00  0.00000000E+00  1.60000000E+01  1.00800000E+00
  1.00800000E+00  0.00000000E+00  1.60000000E+01  1.00800000E+00  1.00800000E+00
  0.00000000E+00  1.60000000E+01  1.00800000E+00  1.00800000E+00  0.00000000E+00
  1.60000000E+01  1.00800000E+00  1.00800000E+00  0.00000000E+00  1.60000000E+01
  1.00800000E+00  1.00800000E+00  0.00000000E+00  1.60000000E+01  1.00800000E+00
  1.00800000E+00  0.00000000E+00  1.60000000E+01  1.00800000E+00  1.00800000E+00
  0.00000000E+00  1.60000000E+01  1.00800000E+00  1.00800000E+00  0.00000000E+00
  1.60000000E+01  1.00800000E+00  1.00800000E+00  0.00000000E+00  1.60000000E+01
  1.00800000E+00  1.00800000E+00  0.00000000E+00  1.60000000E+01  1.00800000E+00
  1.00800000E+00  0.00000000E+00  1.60000000E+01  1.00800000E+00  1.00800000E+00
  0.00000000E+00  1.60000000E+01  1.00800000E+00  1.00800000E+00  0.00000000E+00
  1.60000000E+01  1.00800000E+00  1.00800000E+00  0.00000000E+00  1.60000000E+01
  1.00800000E+00  1.00800000E+00  0.00000000E+00  1.60000000E+01  1.00800000E+00
  1.00800000E+00  0.00000000E+00  1.60000000E+01  1.00800000E+00  1.00800000E+00
  0.00000000E+00  1.60000000E+01  1.00800000E+00  1.00800000E+00  0.00000000E+00
  1.60000000E+01  1.00800000E+00  1.00800000E+00  0.00000000E+00  1.60000000E+01
  1.00800000E+00  1.00800000E+00  0.00000000E+00  1.60000000E+01  1.00800000E+00
  1.00800000E+00  0.00000000E+00  1.60000000E+01  1.00800000E+00  1.00800000E+00
  0.00000000E+00  1.60000000E+01  1.00800000E+00  1.00800000E+00  0.00000000E+00
  1.60000000E+01  1.00800000E+00  1.00800000E+00  0.00000000E+00  1.60000000E+01
  1.00800000E+00  1.00800000E+00  0.00000000E+00  1.60000000E+01  1.00800000E+00
  1.00800000E+00  0.00000000E+00  1.60000000E+01  1.00800000E+00  1.00800000E+00
  0.00000000E+00  1.60000000E+01  1.00800000E+00  1.00800000E+00  0.00000000E+00
  1.60000000E+01  1.00800000E+00  1.00800000E+00  0.00000000E+00  1.60000000E+01
  1.00800000E+00  1.00800000E+00  0.00000000E+00  1.60000000E+01  1.00800000E+00
  1.00800000E+00  0.00000000E+00  1.60000000E+01  1.00800000E+00  1.00800000E+00
  0.00000000E+00  1.60000000E+01  1.00800000E+00  1.00800000E+00  0.00000000E+00
  1.60000000E+01  1.00800000E+00  1.00800000E+00  0.00000000E+00  1.60000000E+01
  1.00800000E+00  1.00800000E+00  0.00000000E+00  1.60000000E+01  1.00800000E+00
  1.00800000E+00  0.00000000E+00  1.60000000E+01  1.00800000E+00  1.00800000E+00
  0.00000000E+00  1.60000000E+01  1.00800000E+00  1.00800000E+00  0.00000000E+00
  1.60000000E+01  1.00800000E+00  1.00800000E+00  0.00000000E+00  1.60000000E+01
  1.00800000E+00  1.00800000E+00  0.00000000E+00  1.60000000E+01  1.00800000E+00
  1.00800000E+00  0.00000000E+00  1.60000000E+01  1.00800000E+00  1.00800000E+00
  0.00000000E+00  1.60000000E+01  1.00800000E+00  1.00800000E+00  0.00000000E+00
  1.60000000E+01  1.00800000E+00  1.00800000E+00  0.00000000E+00  1.60000000E+01
  1.00800000E+00  1.00800000E+00  0.00000000E+00  1.60000000E+01  1.00800000E+00
  1.00800000E+00  0.00000000E+00  1.60000000E+01  1.00800000E+00  1.00800000E+00
  0.00000000E+00  1.60000000E+01  1.00800000E+00  1.00800000E+00  0.00000000E+00
  1.60000000E+01  1.00800000E+00  1.00800000E+00  0.00000000E+00  1.60000000E+01
  1.00800000E+00  1.00800000E+00  0.00000000E+00  1.60000000E+01  1.00800000E+00
  1.00800000E+00  0.00000000E+00  1.60000000E+01  1.00800000E+00  1.00800000E+00
  0.00000000E+00  1.60000000E+01  1.00800000E+00  1.00800000E+00  0.00000000E+00
  1.60000000E+01  1.00800000E+00  1.00800000E+00  0.00000000E+00  1.60000000E+01
  1.00800000E+00  1.00800000E+00  0.00000000E+00  1.60000000E+01  1.00800000E+00
  1.00800000E+00  0.00000000E+00  1.60000000E+01  1.00800000E+00  1.00800000E+00
  0.00000000E+00  1.60000000E+01  1.00800000E+00  1.00800000E+00  0.00000000E+00
  1.60000000E+01  1.00800000E+00  1.00800000E+00  0.00000000E+00  1.60000000E+01
  1.00800000E+00  1.00800000E+00  0.00000000E+00  1.60000000E+01  1.00800000E+00
  1.00800000E+00  0.00000000E+00  1.60000000E+01  1.00800000E+00  1.00800000E+00
  0.00000000E+00  1.60000000E+01  1.00800000E+00  1.00800000E+00  0.00000000E+00
  1.60000000E+01  1.00800000E+00  1.00800000E+00  0.00000000E+00  1.60000000E+01
  1.00800000E+00  1.00800000E+00  0.00000000E+00  1.60000000E+01  1.00800000E+00
  1.00800000E+00  0.00000000E+00  1.60000000E+01  1.00800000E+00  1.00800000E+00
  0.00000000E+00  1.60000000E+01  1.00800000E+00  1.00800000E+00  0.00000000E+00
  1.60000000E+01  1.00800000E+00  1.00800000E+00  0.00000000E+00  1.60000000E+01
  1.00800000E+00  1.00800000E+00  0.00000000E+00  1.60000000E+01  1.00800000E+00
  1.00800000E+00  0.00000000E+00  1.60000000E+01  1.00800000E+00  1.00800000E+00
  0.00000000E+00  1.60000000E+01  1.00800000E+00  1.00800000E+00  0.00000000E+00
  1.60000000E+01  1.00800000E+00  1.00800000E+00  0.00000000E+00  1.60000000E+01
  1.00800000E+00  1.00800000E+00  0.00000000E+00  1.60000000E+01  1.00800000E+00
  1.00800000E+00  0.00000000E+00  1.60000000E+01  1.00800000E+00  1.00800000E+00
  0.00000000E+00  1.60000000E+01  1.00800000E+00  1.00800000E+00  0.00000000E+00
  1.60000000E+01  1.00800000E+00  1.00800000E+00  0.00000000E+00  1.60000000E+01
  1.00800000E+00  1.00800000E+00  0.00000000E+00  1.60000000E+01  1.00800000E+00
  1.00800000E+00  0.00000000E+00  1.60000000E+01  1.00800000E+00  1.00800000E+00
  0.00000000E+00  1.60000000E+01  1.00800000E+00  1.00800000E+00  0.00000000E+00
  1.60000000E+01  1.00800000E+00  1.00800000E+00  0.00000000E+00  1.60000000E+01
  1.00800000E+00  1.00800000E+00  0.00000000E+00  1.60000000E+01  1.00800000E+00
  1.00800000E+00  0.00000000E+00  1.60000000E+01  1.00800000E+00  1.00800000E+00
  0.00000000E+00  1.60000000E+01  1.00800000E+00  1.00800000E+00  0.00000000E+00
  1.60000000E+01  1.00800000E+00  1.00800000E+00  0.00000000E+00  1.60000000E+01
  1.00800000E+00  1.00800000E+00  0.00000000E+00  1.60000000E+01  1.00800000E+00
  1.00800000E+00  0.00000000E+00  1.60000000E+01  1.00800000E+00  1.00800000E+00
  0.00000000E+00  1.60000000E+01  1.00800000E+00  1.00800000E+00  0.00000000E+00
  1.60000000E+01  1.00800000E+00  1.00800000E+00  0.00000000E+00  1.60000000E+01
  1.00800000E+00  1.00800000E+00  0.00000000E+00  1.60000000E+01  1.00800000E+00
  1.00800000E+00  0.00000000E+00  1.60000000E+01  1.00800000E+00  1.00800000E+00
  0.00000000E+00  1.60000000E+01  1.00800000E+00  1.00800000E+00  0.00000000E+00
  1.60000000E+01  1.00800000E+00  1.00800000E+00  0.00000000E+00  1.60000000E+01
  1.00800000E+00  1.00800000E+00  0.00000000E+00  1.60000000E+01  1.00800000E+00
  1.00800000E+00  0.00000000E+00  1.60000000E+01  1.00800000E+00  1.00800000E+00
  0.00000000E+00  1.60000000E+01  1.00800000E+00  1.00800000E+00  0.00000000E+00
  1.60000000E+01  1.00800000E+00  1.00800000E+00  0.00000000E+00  1.60000000E+01
  1.00800000E+00  1.00800000E+00  0.00000000E+00  1.60000000E+01  1.00800000E+00
  1.00800000E+00  0.00000000E+00  1.60000000E+01  1.00800000E+00  1.00800000E+00
  0.00000000E+00  1.60000000E+01  1.00800000E+00  1.00800000E+00  0.00000000E+00
  1.60000000E+01  1.00800000E+00  1.00800000E+00  0.00000000E+00  1.60000000E+01
  1.00800000E+00  1.00800000E+00  0.00000000E+00  1.60000000E+01  1.00800000E+00
  1.00800000E+00  0.00000000E+00  1.60000000E+01  1.00800000E+00  1.00800000E+00
  0.00000000E+00  1.60000000E+01  1.00800000E+00  1.00800000E+00  0.00000000E+00
  1.60000000E+01  1.00800000E+00  1.00800000E+00  0.00000000E+00  1.60000000E+01
  1.00800000E+00  1.00800000E+00  0.00000000E+00  1.60000000E+01  1.00800000E+00
  1.00800000E+00  0.00000000E+00  1.60000000E+01  1.00800000E+00  1.00800000E+00
  0.00000000E+00  1.60000000E+01  1.00800000E+00  1.00800000E+00  0.00000000E+00
  1.60000000E+01  1.00800000E+00  1.00800000E+00  0.00000000E+00  1.60000000E+01
  1.00800000E+00  1.00800000E+00  0.00000000E+00  1.60000000E+01  1.00800000E+00
  1.00800000E+00  0.00000000E+00  1.60000000E+01  1.00800000E+00  1.00800000E+00
  0.00000000E+00  1.60000000E+01  1.00800000E+00  1.00800000E+00  0.00000000E+00
  1.60000000E+01  1.00800000E+00  1.00800000E+00  0.00000000E+00  1.60000000E+01
  1.00800000E+00  1.00800000E+00  0.00000000E+00  1.60000000E+01  1.00800000E+00
  1.00800000E+00  0.00000000E+00  1.60000000E+01  1.00800000E+00  1.00800000E+00
  0.00000000E+00  1.60000000E+01  1.00800000E+00  1.00800000E+00  0.00000000E+00
  1.60000000E+01  1.00800000E+00  1.00800000E+00  0.00000000E+00  1.60000000E+01
  1.00800000E+00  1.00800000E+00  0.00000000E+00  1.60000000E+01  1.00800000E+00
  1.00800000E+00  0.00000000E+00  1.60000000E+01  1.00800000E+00  1.00800000E+00
  0.00000000E+00  1.60000000E+01  1.00800000E+00  1.00800000E+00  0.00000000E+00
  1.60000000E+01  1.00800000E+00  1.00800000E+00  0.00000000E+00  1.60000000E+01
  1.00800000E+00  1.00800000E+00  0.00000000E+00  1.60000000E+01  1.00800000E+00
  1.00800000E+00  0.00000000E+00  1.60000000E+01  1.00800000E+00  1.00800000E+00
  0.00000000E+00  1.60000000E+01  1.00800000E+00  1.00800000E+00  0.00000000E+00
  1.60000000E+01  1.00800000E+00  1.00800000E+00  0.00000000E+00  1.60000000E+01
  1.00800000E+00  1.00800000E+00  0.00000000E+00  1.60000000E+01  1.00800000E+00
  1.00800000E+00  0.00000000E+00  1.60000000E+01  1.00800000E+00  1.00800000E+00
  0.00000000E+00  1.60000000E+01  1.00800000E+00  1.00800000E+00  0.00000000E+00
  1.60000000E+01  1.00800000E+00  1.00800000E+00  0.00000000E+00  1.60000000E+01
  1.00800000E+00  1.00800000E+00  0.00000000E+00  1.60000000E+01  1.00800000E+00
  1.00800000E+00  0.00000000E+00  1.60000000E+01  1.00800000E+00  1.00800000E+00
  0.00000000E+00  1.60000000E+01  1.00800000E+00  1.00800000E+00  0.00000000E+00
  1.60000000E+01  1.00800000E+00  1.00800000E+00  0.00000000E+00  1.60000000E+01
  1.00800000E+00  1.00800000E+00  0.00000000E+00  1.60000000E+01  1.00800000E+00
  1.00800000E+00  0.00000000E+00  1.60000000E+01  1.00800000E+00  1.00800000E+00
  0.00000000E+00  1.60000000E+01  1.00800000E+00  1.00800000E+00  0.00000000E+00
  1.60000000E+01  1.00800000E+00  1.00800000E+00  0.00000000E+00  1.60000000E+01
  1.00800000E+00  1.00800000E+00  0.00000000E+00  1.60000000E+01  1.00800000E+00
  1.00800000E+00  0.00000000E+00  1.60000000E+01  1.00800000E+00  1.00800000E+00
  0.00000000E+00  1.60000000E+01  1.00800000E+00  1.00800000E+00  0.00000000E+00
  1.60000000E+01  1.00800000E+00  1.00800000E+00  0.00000000E+00  1.60000000E+01
  1.00800000E+00  1.00800000E+00  0.00000000E+00  1.60000000E+01  1.00800000E+00
  1.00800000E+00  0.00000000E+00  1.60000000E+01  1.00800000E+00  1.00800000E+00
  0.00000000E+00  1.60000000E+01  1.00800000E+00  1.00800000E+00  0.00000000E+00
  1.60000000E+01  1.00800000E+00  1.00800000E+00  0.00000000E+00  1.60000000E+01
  1.00800000E+00  1.00800000E+00  0.00000000E+00  1.60000000E+01  1.00800000E+00
  1.00800000E+00  0.00000000E+00  1.60000000E+01  1.00800000E+00  1.00800000E+00
  0.00000000E+00  1.60000000E+01  1.00800000E+00  1.00800000E+00  0.00000000E+00
  1.60000000E+01  1.00800000E+00  1.00800000E+00  0.00000000E+00  1.60000000E+01
  1.00800000E+00  1.00800000E+00  0.00000000E+00  1.60000000E+01  1.00800000E+00
  1.00800000E+00  0.00000000E+00  1.60000000E+01  1.00800000E+00  1.00800000E+00
  0.00000000E+00  1.60000000E+01  1.00800000E+00  1.00800000E+00  0.00000000E+00
  1.60000000E+01  1.00800000E+00  1.00800000E+00  0.00000000E+00  1.60000000E+01
  1.00800000E+00  1.00800000E+00  0.00000000E+00  1.60000000E+01  1.00800000E+00
  1.00800000E+00  0.00000000E+00  1.60000000E+01  1.00800000E+00  1.00800000E+00
  0.00000000E+00  1.60000000E+01  1.00800000E+00  1.00800000E+00  0.00000000E+00
  1.60000000E+01  1.00800000E+00  1.00800000E+00  0.00000000E+00  1.60000000E+01
  1.00800000E+00  1.00800000E+00  0.00000000E+00  1.60000000E+01  1.00800000E+00
  1.00800000E+00  0.00000000E+00  1.60000000E+01  1.00800000E+00  1.00800000E+00
  0.00000000E+00  1.60000000E+01  1.00800000E+00  1.00800000E+00  0.00000000E+00
  1.60000000E+01  1.00800000E+00  1.00800000E+00  0.00000000E+00  1.60000000E+01
  1.00800000E+00  1.00800000E+00  0.00000000E+00  1.60000000E+01  1.00800000E+00
  1.00800000E+00  0.00000000E+00  1.60000000E+01  1.00800000E+00  1.00800000E+00
  0.00000000E+00  1.60000000E+01  1.00800000E+00  1.00800000E+00  0.00000000E+00
  1.60000000E+01  1.00800000E+00  1.00800000E+00  0.00000000E+00  1.60000000E+01
  1.00800000E+00  1.00800000E+00  0.00000000E+00  1.60000000E+01  1.00800000E+00
  1.00800000E+00  0.00000000E+00  1.60000000E+01  1.00800000E+00  1.00800000E+00
  0.00000000E+00  1.60000000E+01  1.00800000E+00  1.00800000E+00  0.00000000E+00
  1.60000000E+01  1.00800000E+00  1.00800000E+00  0.00000000E+00  1.60000000E+01
  1.00800000E+00  1.00800000E+00  0.00000000E+00  1.60000000E+01  1.00800000E+00
  1.00800000E+00  0.00000000E+00  1.60000000E+01  1.00800000E+00  1.00800000E+00
  0.00000000E+00  1.60000000E+01  1.00800000E+00  1.00800000E+00  0.00000000E+00
  1.60000000E+01  1.00800000E+00  1.00800000E+00  0.00000000E+00  1.60000000E+01
  1.00800000E+00  1.00800000E+00  0.00000000E+00  1.60000000E+01  1.00800000E+00
  1.00800000E+00  0.00000000E+00  1.60000000E+01  1.00800000E+00  1.00800000E+00
  0.00000000E+00  1.60000000E+01  1.00800000E+00  1.00800000E+00  0.00000000E+00
  1.60000000E+01  1.00800000E+00  1.00800000E+00  0.00000000E+00  1.60000000E+01
  1.00800000E+00  1.00800000E+00  0.00000000E+00  1.60000000E+01  1.00800000E+00
  1.00800000E+00  0.00000000E+00  1.60000000E+01  1.00800000E+00  1.00800000E+00
  0.00000000E+00  1.60000000E+01  1.00800000E+00  1.00800000E+00  0.00000000E+00
  1.60000000E+01  1.00800000E+00  1.00800000E+00  0.00000000E+00  1.60000000E+01
  1.00800000E+00  1.00800000E+00  0.00000000E+00  1.60000000E+01  1.00800000E+00
  1.00800000E+00  0.00000000E+00  1.60000000E+01  1.00800000E+00  1.00800000E+00
  0.00000000E+00  1.60000000E+01  1.00800000E+00  1.00800000E+00  0.00000000E+00
  1.60000000E+01  1.00800000E+00  1.00800000E+00  0.00000000E+00  1.60000000E+01
  1.00800000E+00  1.00800000E+00  0.00000000E+00  1.60000000E+01  1.00800000E+00
  1.00800000E+00  0.00000000E+00  1.60000000E+01  1.00800000E+00  1.00800000E+00
  0.00000000E+00  1.60000000E+01  1.00800000E+00  1.00800000E+00  0.00000000E+00
  1.60000000E+01  1.00800000E+00  1.00800000E+00  0.00000000E+00  1.60000000E+01
  1.00800000E+00  1.00800000E+00  0.00000000E+00  1.60000000E+01  1.00800000E+00
  1.00800000E+00  0.00000000E+00  1.60000000E+01  1.00800000E+00  1.00800000E+00
  0.00000000E+00  1.60000000E+01  1.00800000E+00  1.00800000E+00  0.00000000E+00
  1.60000000E+01  1.00800000E+00  1.00800000E+00  0.00000000E+00  1.60000000E+01
  1.00800000E+00  1.00800000E+00  0.00000000E+00  1.60000000E+01  1.00800000E+00
  1.00800000E+00  0.00000000E+00  1.60000000E+01  1.00800000E+00  1.00800000E+00
  0.00000000E+00  1.60000000E+01  1.00800000E+00  1.00800000E+00  0.00000000E+00
  1.60000000E+01  1.00800000E+00  1.00800000E+00  0.00000000E+00  1.60000000E+01
  1.00800000E+00  1.00800000E+00  0.00000000E+00  1.60000000E+01  1.00800000E+00
  1.00800000E+00  0.00000000E+00  1.60000000E+01  1.00800000E+00  1.00800000E+00
  0.00000000E+00  1.60000000E+01  1.00800000E+00  1.00800000E+00  0.00000000E+00
  1.60000000E+01  1.00800000E+00  1.00800000E+00  0.00000000E+00  1.60000000E+01
  1.00800000E+00  1.00800000E+00  0.00000000E+00  1.60000000E+01  1.00800000E+00
  1.00800000E+00  0.00000000E+00  1.60000000E+01  1.00800000E+00  1.00800000E+00
  0.00000000E+00  1.60000000E+01  1.00800000E+00  1.00800000E+00  0.00000000E+00
  1.60000000E+01  1.00800000E+00  1.00800000E+00  0.00000000E+00  1.60000000E+01
  1.00800000E+00  1.00800000E+00  0.00000000E+00  1.60000000E+01  1.00800000E+00
  1.00800000E+00  0.00000000E+00  1.60000000E+01  1.00800000E+00  1.00800000E+00
  0.00000000E+00  1.60000000E+01  1.00800000E+00  1.00800000E+00  0.00000000E+00
  1.60000000E+01  1.00800000E+00  1.00800000E+00  0.00000000E+00  1.60000000E+01
  1.00800000E+00  1.00800000E+00  0.00000000E+00  1.60000000E+01  1.00800000E+00
  1.00800000E+00  0.00000000E+00  1.60000000E+01  1.00800000E+00  1.00800000E+00
  0.00000000E+00  1.60000000E+01  1.00800000E+00  1.00800000E+00  0.00000000E+00
  1.60000000E+01  1.00800000E+00  1.00800000E+00  0.00000000E+00  1.60000000E+01
  1.00800000E+00  1.00800000E+00  0.00000000E+00  1.60000000E+01  1.00800000E+00
  1.00800000E+00  0.00000000E+00  1.60000000E+01  1.00800000E+00  1.00800000E+00
  0.00000000E+00  1.60000000E+01  1.00800000E+00  1.00800000E+00  0.00000000E+00
  1.60000000E+01  1.00800000E+00  1.00800000E+00  0.00000000E+00  1.60000000E+01
  1.00800000E+00  1.00800000E+00  0.00000000E+00  1.60000000E+01  1.00800000E+00
  1.00800000E+00  0.00000000E+00  1.60000000E+01  1.00800000E+00  1.00800000E+00
  0.00000000E+00  1.60000000E+01  1.00800000E+00  1.00800000E+00  0.00000000E+00
  1.60000000E+01  1.00800000E+00  1.00800000E+00  0.00000000E+00  1.60000000E+01
  1.00800000E+00  1.00800000E+00  0.00000000E+00  1.60000000E+01  1.00800000E+00
  1.00800000E+00  0.00000000E+00  1.60000000E+01  1.00800000E+00  1.00800000E+00
  0.00000000E+00  1.60000000E+01  1.00800000E+00  1.00800000E+00  0.00000000E+00
  1.60000000E+01  1.00800000E+00  1.00800000E+00  0.00000000E+00  1.60000000E+01
  1.00800000E+00  1.00800000E+00  0.00000000E+00  1.60000000E+01  1.00800000E+00
  1.00800000E+00  0.00000000E+00  1.60000000E+01  1.00800000E+00  1.00800000E+00
  0.00000000E+00  1.60000000E+01  1.00800000E+00  1.00800000E+00  0.00000000E+00
  1.60000000E+01  1.00800000E+00  1.00800000E+00  0.00000000E+00  1.60000000E+01
  1.00800000E+00  1.00800000E+00  0.00000000E+00  1.60000000E+01  1.00800000E+00
  1.00800000E+00  0.00000000E+00  1.60000000E+01  1.00800000E+00  1.00800000E+00
  0.00000000E+00  1.60000000E+01  1.00800000E+00  1.00800000E+00  0.00000000E+00
  1.60000000E+01  1.00800000E+00  1.00800000E+00  0.00000000E+00  1.60000000E+01
  1.00800000E+00  1.00800000E+00  0.00000000E+00  1.60000000E+01  1.00800000E+00
  1.00800000E+00  0.00000000E+00  1.60000000E+01  1.00800000E+00  1.00800000E+00
  0.00000000E+00  1.60000000E+01  1.00800000E+00  1.00800000E+00  0.00000000E+00
  1.60000000E+01  1.00800000E+00  1.00800000E+00  0.00000000E+00  1.60000000E+01
  1.00800000E+00  1.00800000E+00  0.00000000E+00  1.60000000E+01  1.00800000E+00
  1.00800000E+00  0.00000000E+00  1.60000000E+01  1.00800000E+00  1.00800000E+00
  0.00000000E+00  1.60000000E+01  1.00800000E+00  1.00800000E+00  0.00000000E+00
  1.60000000E+01  1.00800000E+00  1.00800000E+00  0.00000000E+00  1.60000000E+01
  1.00800000E+00  1.00800000E+00  0.00000000E+00  1.60000000E+01  1.00800000E+00
  1.00800000E+00  0.00000000E+00  1.60000000E+01  1.00800000E+00  1.00800000E+00
  0.00000000E+00  1.60000000E+01  1.00800000E+00  1.00800000E+00  0.00000000E+00
  1.60000000E+01  1.00800000E+00  1.00800000E+00  0.00000000E+00  1.60000000E+01
  1.00800000E+00  1.00800000E+00  0.00000000E+00  1.60000000E+01  1.00800000E+00
  1.00800000E+00  0.00000000E+00  1.60000000E+01  1.00800000E+00  1.00800000E+00
  0.00000000E+00  1.60000000E+01  1.00800000E+00  1.00800000E+00  0.00000000E+00
  1.60000000E+01  1.00800000E+00  1.00800000E+00  0.00000000E+00  1.60000000E+01
  1.00800000E+00  1.00800000E+00  0.00000000E+00  1.60000000E+01  1.00800000E+00
  1.00800000E+00  0.00000000E+00  1.60000000E+01  1.00800000E+00  1.00800000E+00
  0.00000000E+00  1.60000000E+01  1.00800000E+00  1.00800000E+00  0.00000000E+00
  1.60000000E+01  1.00800000E+00  1.00800000E+00  0.00000000E+00  1.60000000E+01
  1.00800000E+00  1.00800000E+00  0.00000000E+00  1.60000000E+01  1.00800000E+00
  1.00800000E+00  0.00000000E+00  1.60000000E+01  1.00800000E+00  1.00800000E+00
  0.00000000E+00  1.60000000E+01  1.00800000E+00  1.00800000E+00  0.00000000E+00
  1.60000000E+01  1.00800000E+00  1.00800000E+00  0.00000000E+00  1.60000000E+01
  1.00800000E+00  1.00800000E+00  0.00000000E+00  1.60000000E+01  1.00800000E+00
  1.00800000E+00  0.00000000E+00  1.60000000E+01  1.00800000E+00  1.00800000E+00
  0.00000000E+00  1.60000000E+01  1.00800000E+00  1.00800000E+00  0.00000000E+00
  1.60000000E+01  1.00800000E+00  1.00800000E+00  0.00000000E+00  1.60000000E+01
  1.00800000E+00  1.00800000E+00  0.00000000E+00  1.60000000E+01  1.00800000E+00
  1.00800000E+00  0.00000000E+00  1.60000000E+01  1.00800000E+00  1.00800000E+00
  0.00000000E+00  1.60000000E+01  1.00800000E+00  1.00800000E+00  0.00000000E+00
  1.60000000E+01  1.00800000E+00  1.00800000E+00  0.00000000E+00  1.60000000E+01
  1.00800000E+00  1.00800000E+00  0.00000000E+00  1.60000000E+01  1.00800000E+00
  1.00800000E+00  0.00000000E+00  1.60000000E+01  1.00800000E+00  1.00800000E+00
  0.00000000E+00  1.60000000E+01  1.00800000E+00  1.00800000E+00  0.00000000E+00
  1.60000000E+01  1.00800000E+00  1.00800000E+00  0.00000000E+00  1.60000000E+01
  1.00800000E+00  1.00800000E+00  0.00000000E+00  1.60000000E+01  1.00800000E+00
  1.00800000E+00  0.00000000E+00  1.60000000E+01  1.00800000E+00  1.00800000E+00
  0.00000000E+00  1.60000000E+01  1.00800000E+00  1.00800000E+00  0.00000000E+00
  1.60000000E+01  1.00800000E+00  1.00800000E+00  0.00000000E+00  1.60000000E+01
  1.00800000E+00  1.00800000E+00  0.00000000E+00  1.60000000E+01  1.00800000E+00
  1.00800000E+00  0.00000000E+00  1.60000000E+01  1.00800000E+00  1.00800000E+00
  0.00000000E+00  1.60000000E+01  1.00800000E+00  1.00800000E+00  0.00000000E+00
  1.60000000E+01  1.00800000E+00  1.00800000E+00  0.00000000E+00  1.60000000E+01
  1.00800000E+00  1.00800000E+00  0.00000000E+00  1.60000000E+01  1.00800000E+00
  1.00800000E+00  0.00000000E+00  1.60000000E+01  1.00800000E+00  1.00800000E+00
  0.00000000E+00  1.60000000E+01  1.00800000E+00  1.00800000E+00  0.00000000E+00
  1.60000000E+01  1.00800000E+00  1.00800000E+00  0.00000000E+00  1.60000000E+01
  1.00800000E+00  1.00800000E+00  0.00000000E+00  1.60000000E+01  1.00800000E+00
  1.00800000E+00  0.00000000E+00  1.60000000E+01  1.00800000E+00  1.00800000E+00
  0.00000000E+00  1.60000000E+01  1.00800000E+00  1.00800000E+00  0.00000000E+00
  1.60000000E+01  1.00800000E+00  1.00800000E+00  0.00000000E+00  1.60000000E+01
  1.00800000E+00  1.00800000E+00  0.00000000E+00  1.60000000E+01  1.00800000E+00
  1.00800000E+00  0.00000000E+00  1.60000000E+01  1.00800000E+00  1.00800000E+00
  0.00000000E+00  1.60000000E+01  1.00800000E+00  1.00800000E+00  0.00000000E+00
  1.60000000E+01  1.00800000E+00  1.00800000E+00  0.00000000E+00  1.60000000E+01
  1.00800000E+00  1.00800000E+00  0.00000000E+00  1.60000000E+01  1.00800000E+00
  1.00800000E+00  0.00000000E+00  1.60000000E+01  1.00800000E+00  1.00800000E+00
  0.00000000E+00  1.60000000E+01  1.00800000E+00  1.00800000E+00  0.00000000E+00
  1.60000000E+01  1.00800000E+00  1.00800000E+00  0.00000000E+00  1.60000000E+01
  1.00800000E+00  1.00800000E+00  0.00000000E+00  1.60000000E+01  1.00800000E+00
  1.00800000E+00  0.00000000E+00  1.60000000E+01  1.00800000E+00  1.00800000E+00
  0.00000000E+00  1.60000000E+01  1.00800000E+00  1.00800000E+00  0.00000000E+00
  1.60000000E+01  1.00800000E+00  1.00800000E+00  0.00000000E+00  1.60000000E+01
  1.00800000E+00  1.00800000E+00  0.00000000E+00  1.60000000E+01  1.00800000E+00
  1.00800000E+00  0.00000000E+00  1.60000000E+01  1.00800000E+00  1.00800000E+00
  0.00000000E+00  1.60000000E+01  1.00800000E+00  1.00800000E+00  0.00000000E+00
  1.60000000E+01  1.00800000E+00  1.00800000E+00  0.00000000E+00  1.60000000E+01
  1.00800000E+00  1.00800000E+00  0.00000000E+00  1.60000000E+01  1.00800000E+00
  1.00800000E+00  0.00000000E+00  1.60000000E+01  1.00800000E+00  1.00800000E+00
  0.00000000E+00  1.60000000E+01  1.00800000E+00  1.00800000E+00  0.00000000E+00
  1.60000000E+01  1.00800000E+00  1.00800000E+00  0.00000000E+00  1.60000000E+01
  1.00800000E+00  1.00800000E+00  0.00000000E+00  1.60000000E+01  1.00800000E+00
  1.00800000E+00  0.00000000E+00  1.60000000E+01  1.00800000E+00  1.00800000E+00
  0.00000000E+00  1.60000000E+01  1.00800000E+00  1.00800000E+00  0.00000000E+00
  1.60000000E+01  1.00800000E+00  1.00800000E+00  0.00000000E+00  1.60000000E+01
  1.00800000E+00  1.00800000E+00  0.00000000E+00  1.60000000E+01  1.00800000E+00
  1.00800000E+00  0.00000000E+00  1.60000000E+01  1.00800000E+00  1.00800000E+00
  0.00000000E+00  1.60000000E+01  1.00800000E+00  1.00800000E+00  0.00000000E+00
  1.60000000E+01  1.00800000E+00  1.00800000E+00  0.00000000E+00  1.60000000E+01
  1.00800000E+00  1.00800000E+00  0.00000000E+00  1.60000000E+01  1.00800000E+00
  1.00800000E+00  0.00000000E+00  1.60000000E+01  1.00800000E+00  1.00800000E+00
  0.00000000E+00  1.60000000E+01  1.00800000E+00  1.00800000E+00  0.00000000E+00
  1.60000000E+01  1.00800000E+00  1.00800000E+00  0.00000000E+00  1.60000000E+01
  1.00800000E+00  1.00800000E+00  0.00000000E+00  1.60000000E+01  1.00800000E+00
  1.00800000E+00  0.00000000E+00  1.60000000E+01  1.00800000E+00  1.00800000E+00
  0.00000000E+00  1.60000000E+01  1.00800000E+00  1.00800000E+00  0.00000000E+00
  1.60000000E+01  1.00800000E+00  1.00800000E+00  0.00000000E+00  1.60000000E+01
  1.00800000E+00  1.00800000E+00  0.00000000E+00  1.60000000E+01  1.00800000E+00
  1.00800000E+00  0.00000000E+00  1.60000000E+01  1.00800000E+00  1.00800000E+00
  0.00000000E+00  1.60000000E+01  1.00800000E+00  1.00800000E+00  0.00000000E+00
  1.60000000E+01  1.00800000E+00  1.00800000E+00  0.00000000E+00  1.60000000E+01
  1.00800000E+00  1.00800000E+00  0.00000000E+00  1.60000000E+01  1.00800000E+00
  1.00800000E+00  0.00000000E+00  1.60000000E+01  1.00800000E+00  1.00800000E+00
  0.00000000E+00  1.60000000E+01  1.00800000E+00  1.00800000E+00  0.00000000E+00
  1.60000000E+01  1.00800000E+00  1.00800000E+00  0.00000000E+00  1.60000000E+01
  1.00800000E+00  1.00800000E+00  0.00000000E+00  1.60000000E+01  1.00800000E+00
  1.00800000E+00  0.00000000E+00  1.60000000E+01  1.00800000E+00  1.00800000E+00
  0.00000000E+00  1.60000000E+01  1.00800000E+00  1.00800000E+00  0.00000000E+00
  1.60000000E+01  1.00800000E+00  1.00800000E+00  0.00000000E+00  1.60000000E+01
  1.00800000E+00  1.00800000E+00  0.00000000E+00  1.60000000E+01  1.00800000E+00
  1.00800000E+00  0.00000000E+00  1.60000000E+01  1.00800000E+00  1.00800000E+00
  0.00000000E+00  1.60000000E+01  1.00800000E+00  1.00800000E+00  0.00000000E+00
  1.60000000E+01  1.00800000E+00  1.00800000E+00  0.00000000E+00  1.60000000E+01
  1.00800000E+00  1.00800000E+00  0.00000000E+00  1.60000000E+01  1.00800000E+00
  1.00800000E+00  0.00000000E+00  1.60000000E+01  1.00800000E+00  1.00800000E+00
  0.00000000E+00  1.60000000E+01  1.00800000E+00  1.00800000E+00  0.00000000E+00
  1.60000000E+01  1.00800000E+00  1.00800000E+00  0.00000000E+00  1.60000000E+01
  1.00800000E+00  1.00800000E+00  0.00000000E+00  1.60000000E+01  1.00800000E+00
  1.00800000E+00  0.00000000E+00  1.60000000E+01  1.00800000E+00  1.00800000E+00
  0.00000000E+00  1.60000000E+01  1.00800000E+00  1.00800000E+00  0.00000000E+00
  1.60000000E+01  1.00800000E+00  1.00800000E+00  0.00000000E+00  1.60000000E+01
  1.00800000E+00  1.00800000E+00  0.00000000E+00  1.60000000E+01  1.00800000E+00
  1.00800000E+00  0.00000000E+00  1.60000000E+01  1.00800000E+00  1.00800000E+00
  0.00000000E+00  1.60000000E+01  1.00800000E+00  1.00800000E+00  0.00000000E+00
  1.60000000E+01  1.00800000E+00  1.00800000E+00  0.00000000E+00  1.60000000E+01
  1.00800000E+00  1.00800000E+00  0.00000000E+00  1.60000000E+01  1.00800000E+00
  1.00800000E+00  0.00000000E+00  1.60000000E+01  1.00800000E+00  1.00800000E+00
  0.00000000E+00  1.60000000E+01  1.00800000E+00  1.00800000E+00  0.00000000E+00
  1.60000000E+01  1.00800000E+00  1.00800000E+00  0.00000000E+00  1.60000000E+01
  1.00800000E+00  1.00800000E+00  0.00000000E+00  1.60000000E+01  1.00800000E+00
  1.00800000E+00  0.00000000E+00  1.60000000E+01  1.00800000E+00  1.00800000E+00
  0.00000000E+00  1.60000000E+01  1.00800000E+00  1.00800000E+00  0.00000000E+00
  1.60000000E+01  1.00800000E+00  1.00800000E+00  0.00000000E+00  1.60000000E+01
  1.00800000E+00  1.00800000E+00  0.00000000E+00  1.60000000E+01  1.00800000E+00
  1.00800000E+00  0.00000000E+00  1.60000000E+01  1.00800000E+00  1.00800000E+00
  0.00000000E+00  1.60000000E+01  1.00800000E+00  1.00800000E+00  0.00000000E+00
  1.60000000E+01  1.00800000E+00  1.00800000E+00  0.00000000E+00  1.60000000E+01
  1.00800000E+00  1.00800000E+00  0.00000000E+00  1.60000000E+01  1.00800000E+00
  1.00800000E+00  0.00000000E+00  1.60000000E+01  1.00800000E+00  1.00800000E+00
  0.00000000E+00  1.60000000E+01  1.00800000E+00  1.00800000E+00  0.00000000E+00
  1.60000000E+01  1.00800000E+00  1.00800000E+00  0.00000000E+00  1.60000000E+01
  1.00800000E+00  1.00800000E+00  0.00000000E+00  1.60000000E+01  1.00800000E+00
  1.00800000E+00  0.00000000E+00  1.60000000E+01  1.00800000E+00  1.00800000E+00
  0.00000000E+00  1.60000000E+01  1.00800000E+00  1.00800000E+00  0.00000000E+00
  1.60000000E+01  1.00800000E+00  1.00800000E+00  0.00000000E+00  1.60000000E+01
  1.00800000E+00  1.00800000E+00  0.00000000E+00  1.60000000E+01  1.00800000E+00
  1.00800000E+00  0.00000000E+00  1.60000000E+01  1.00800000E+00  1.00800000E+00
  0.00000000E+00  1.60000000E+01  1.00800000E+00  1.00800000E+00  0.00000000E+00
  1.60000000E+01  1.00800000E+00  1.00800000E+00  0.00000000E+00  1.60000000E+01
  1.00800000E+00  1.00800000E+00  0.00000000E+00  1.60000000E+01  1.00800000E+00
  1.00800000E+00  0.00000000E+00  1.60000000E+01  1.00800000E+00  1.00800000E+00
  0.00000000E+00  1.60000000E+01  1.00800000E+00  1.00800000E+00  0.00000000E+00
  1.60000000E+01  1.00800000E+00  1.00800000E+00  0.00000000E+00  1.60000000E+01
  1.00800000E+00  1.00800000E+00  0.00000000E+00  1.60000000E+01  1.00800000E+00
  1.00800000E+00  0.00000000E+00  1.60000000E+01  1.00800000E+00  1.00800000E+00
  0.00000000E+00  1.60000000E+01  1.00800000E+00  1.00800000E+00  0.00000000E+00
  1.60000000E+01  1.00800000E+00  1.00800000E+00  0.00000000E+00  1.60000000E+01
  1.00800000E+00  1.00800000E+00  0.00000000E+00  1.60000000E+01  1.00800000E+00
  1.00800000E+00  0.00000000E+00  1.60000000E+01  1.00800000E+00  1.00800000E+00
  0.00000000E+00  1.60000000E+01  1.00800000E+00  1.00800000E+00  0.00000000E+00
  1.60000000E+01  1.00800000E+00  1.00800000E+00  0.00000000E+00  1.60000000E+01
  1.00800000E+00  1.00800000E+00  0.00000000E+00  1.60000000E+01  1.00800000E+00
  1.00800000E+00  0.00000000E+00  1.60000000E+01  1.00800000E+00  1.00800000E+00
  0.00000000E+00  1.60000000E+01  1.00800000E+00  1.00800000E+00  0.00000000E+00
  1.60000000E+01  1.00800000E+00  1.00800000E+00  0.00000000E+00  1.60000000E+01
  1.00800000E+00  1.00800000E+00  0.00000000E+00  1.60000000E+01  1.00800000E+00
  1.00800000E+00  0.00000000E+00  1.60000000E+01  1.00800000E+00  1.00800000E+00
  0.00000000E+00  1.60000000E+01  1.00800000E+00  1.00800000E+00  0.00000000E+00
  1.60000000E+01  1.00800000E+00  1.00800000E+00  0.00000000E+00  1.60000000E+01
  1.00800000E+00  1.00800000E+00  0.00000000E+00  1.60000000E+01  1.00800000E+00
  1.00800000E+00  0.00000000E+00  1.60000000E+01  1.00800000E+00  1.00800000E+00
  0.00000000E+00  1.60000000E+01  1.00800000E+00  1.00800000E+00  0.00000000E+00
  1.60000000E+01  1.00800000E+00  1.00800000E+00  0.00000000E+00  1.60000000E+01
  1.00800000E+00  1.00800000E+00  0.00000000E+00  1.60000000E+01  1.00800000E+00
  1.00800000E+00  0.00000000E+00  1.60000000E+01  1.00800000E+00  1.00800000E+00
  0.00000000E+00  1.60000000E+01  1.00800000E+00  1.00800000E+00  0.00000000E+00
  1.60000000E+01  1.00800000E+00  1.00800000E+00  0.00000000E+00  1.60000000E+01
  1.00800000E+00  1.00800000E+00  0.00000000E+00  1.60000000E+01  1.00800000E+00
  1.00800000E+00  0.00000000E+00  1.60000000E+01  1.00800000E+00  1.00800000E+00
  0.00000000E+00  1.60000000E+01  1.00800000E+00  1.00800000E+00  0.00000000E+00
  1.60000000E+01  1.00800000E+00  1.00800000E+00  0.00000000E+00  1.60000000E+01
  1.00800000E+00  1.00800000E+00  0.00000000E+00  1.60000000E+01  1.00800000E+00
  1.00800000E+00  0.00000000E+00  1.60000000E+01  1.00800000E+00  1.00800000E+00
  0.00000000E+00  1.60000000E+01  1.00800000E+00  1.00800000E+00  0.00000000E+00
  1.60000000E+01  1.00800000E+00  1.00800000E+00  0.00000000E+00  1.60000000E+01
  1.00800000E+00  1.00800000E+00  0.00000000E+00  1.60000000E+01  1.00800000E+00
  1.00800000E+00  0.00000000E+00  1.60000000E+01  1.00800000E+00  1.00800000E+00
  0.00000000E+00  1.60000000E+01  1.00800000E+00  1.00800000E+00  0.00000000E+00
  1.60000000E+01  1.00800000E+00  1.00800000E+00  0.00000000E+00  1.60000000E+01
  1.00800000E+00  1.00800000E+00  0.00000000E+00  1.60000000E+01  1.00800000E+00
  1.00800000E+00  0.00000000E+00  1.60000000E+01  1.00800000E+00  1.00800000E+00
  0.00000000E+00  1.60000000E+01  1.00800000E+00  1.00800000E+00  0.00000000E+00
  1.60000000E+01  1.00800000E+00  1.00800000E+00  0.00000000E+00  1.60000000E+01
  1.00800000E+00  1.00800000E+00  0.00000000E+00  1.60000000E+01  1.00800000E+00
  1.00800000E+00  0.00000000E+00  1.60000000E+01  1.00800000E+00  1.00800000E+00
  0.00000000E+00  1.60000000E+01  1.00800000E+00  1.00800000E+00  0.00000000E+00
  1.60000000E+01  1.00800000E+00  1.00800000E+00  0.00000000E+00  1.60000000E+01
  1.00800000E+00  1.00800000E+00  0.00000000E+00  1.60000000E+01  1.00800000E+00
  1.00800000E+00  0.00000000E+00  1.60000000E+01  1.00800000E+00  1.00800000E+00
  0.00000000E+00  1.60000000E+01  1.00800000E+00  1.00800000E+00  0.00000000E+00
  1.60000000E+01  1.00800000E+00  1.00800000E+00  0.00000000E+00  1.60000000E+01
  1.00800000E+00  1.00800000E+00  0.00000000E+00  1.60000000E+01  1.00800000E+00
  1.00800000E+00  0.00000000E+00  1.60000000E+01  1.00800000E+00  1.00800000E+00
  0.00000000E+00  1.60000000E+01  1.00800000E+00  1.00800000E+00  0.00000000E+00
  1.60000000E+01  1.00800000E+00  1.00800000E+00  0.00000000E+00  1.60000000E+01
  1.00800000E+00  1.00800000E+00  0.00000000E+00  1.60000000E+01  1.00800000E+00
  1.00800000E+00  0.00000000E+00  1.60000000E+01  1.00800000E+00  1.00800000E+00
  0.00000000E+00  1.60000000E+01  1.00800000E+00  1.00800000E+00  0.00000000E+00
  1.60000000E+01  1.00800000E+00  1.00800000E+00  0.00000000E+00  1.60000000E+01
  1.00800000E+00  1.00800000E+00  0.00000000E+00  1.60000000E+01  1.00800000E+00
  1.00800000E+00  0.00000000E+00  1.60000000E+01  1.00800000E+00  1.00800000E+00
  0.00000000E+00  1.60000000E+01  1.00800000E+00  1.00800000E+00  0.00000000E+00
  1.60000000E+01  1.00800000E+00  1.00800000E+00  0.00000000E+00  1.60000000E+01
  1.00800000E+00  1.00800000E+00  0.00000000E+00  1.60000000E+01  1.00800000E+00
  1.00800000E+00  0.00000000E+00  1.60000000E+01  1.00800000E+00  1.00800000E+00
  0.00000000E+00  1.60000000E+01  1.00800000E+00  1.00800000E+00  0.00000000E+00
  1.60000000E+01  1.00800000E+00  1.00800000E+00  0.00000000E+00  1.60000000E+01
  1.00800000E+00  1.00800000E+00  0.00000000E+00  1.60000000E+01  1.00800000E+00
  1.00800000E+00  0.00000000E+00  1.60000000E+01  1.00800000E+00  1.00800000E+00
  0.00000000E+00  1.60000000E+01  1.00800000E+00  1.00800000E+00  0.00000000E+00
  1.60000000E+01  1.00800000E+00  1.00800000E+00  0.00000000E+00  1.60000000E+01
  1.00800000E+00  1.00800000E+00  0.00000000E+00  1.60000000E+01  1.00800000E+00
  1.00800000E+00  0.00000000E+00  1.60000000E+01  1.00800000E+00  1.00800000E+00
  0.00000000E+00  1.60000000E+01  1.00800000E+00  1.00800000E+00  0.00000000E+00
  1.60000000E+01  1.00800000E+00  1.00800000E+00  0.00000000E+00  1.60000000E+01
  1.00800000E+00  1.00800000E+00  0.00000000E+00  1.60000000E+01  1.00800000E+00
  1.00800000E+00  0.00000000E+00  1.60000000E+01  1.00800000E+00  1.00800000E+00
  0.00000000E+00  1.60000000E+01  1.00800000E+00  1.00800000E+00  0.00000000E+00
  1.60000000E+01  1.00800000E+00  1.00800000E+00  0.00000000E+00  1.60000000E+01
  1.00800000E+00  1.00800000E+00  0.00000000E+00  1.60000000E+01  1.00800000E+00
  1.00800000E+00  0.00000000E+00  1.60000000E+01  1.00800000E+00  1.00800000E+00
  0.00000000E+00  1.60000000E+01  1.00800000E+00  1.00800000E+00  0.00000000E+00
  1.60000000E+01  1.00800000E+00  1.00800000E+00  0.00000000E+00  1.60000000E+01
  1.00800000E+00  1.00800000E+00  0.00000000E+00  1.60000000E+01  1.00800000E+00
  1.00800000E+00  0.00000000E+00  1.60000000E+01  1.00800000E+00  1.00800000E+00
  0.00000000E+00  1.60000000E+01  1.00800000E+00  1.00800000E+00  0.00000000E+00
  1.60000000E+01  1.00800000E+00  1.00800000E+00  0.00000000E+00  1.60000000E+01
  1.00800000E+00  1.00800000E+00  0.00000000E+00  1.60000000E+01  1.00800000E+00
  1.00800000E+00  0.00000000E+00  1.60000000E+01  1.00800000E+00  1.00800000E+00
  0.00000000E+00  1.60000000E+01  1.00800000E+00  1.00800000E+00  0.00000000E+00
  1.60000000E+01  1.00800000E+00  1.00800000E+00  0.00000000E+00  1.60000000E+01
  1.00800000E+00  1.00800000E+00  0.00000000E+00  1.60000000E+01  1.00800000E+00
  1.00800000E+00  0.00000000E+00  1.60000000E+01  1.00800000E+00  1.00800000E+00
  0.00000000E+00  1.60000000E+01  1.00800000E+00  1.00800000E+00  0.00000000E+00
  1.60000000E+01  1.00800000E+00  1.00800000E+00  0.00000000E+00  1.60000000E+01
  1.00800000E+00  1.00800000E+00  0.00000000E+00  1.60000000E+01  1.00800000E+00
  1.00800000E+00  0.00000000E+00  1.60000000E+01  1.00800000E+00  1.00800000E+00
  0.00000000E+00  1.60000000E+01  1.00800000E+00  1.00800000E+00  0.00000000E+00
  1.60000000E+01  1.00800000E+00  1.00800000E+00  0.00000000E+00  1.60000000E+01
  1.00800000E+00  1.00800000E+00  0.00000000E+00  1.60000000E+01  1.00800000E+00
  1.00800000E+00  0.00000000E+00  1.60000000E+01  1.00800000E+00  1.00800000E+00
  0.00000000E+00  1.60000000E+01  1.00800000E+00  1.00800000E+00  0.00000000E+00
  1.60000000E+01  1.00800000E+00  1.00800000E+00  0.00000000E+00  1.60000000E+01
  1.00800000E+00  1.00800000E+00  0.00000000E+00  1.60000000E+01  1.00800000E+00
  1.00800000E+00  0.00000000E+00  1.60000000E+01  1.00800000E+00  1.00800000E+00
  0.00000000E+00  1.60000000E+01  1.00800000E+00  1.00800000E+00  0.00000000E+00
  1.60000000E+01  1.00800000E+00  1.00800000E+00  0.00000000E+00  1.60000000E+01
  1.00800000E+00  1.00800000E+00  0.00000000E+00  1.60000000E+01  1.00800000E+00
  1.00800000E+00  0.00000000E+00  1.60000000E+01  1.00800000E+00  1.00800000E+00
  0.00000000E+00  1.60000000E+01  1.00800000E+00  1.00800000E+00  0.00000000E+00
  1.60000000E+01  1.00800000E+00  1.00800000E+00  0.00000000E+00  1.60000000E+01
  1.00800000E+00  1.00800000E+00  0.00000000E+00  1.60000000E+01  1.00800000E+00
  1.00800000E+00  0.00000000E+00  1.60000000E+01  1.00800000E+00  1.00800000E+00
  0.00000000E+00  1.60000000E+01  1.00800000E+00  1.00800000E+00  0.00000000E+00
  1.60000000E+01  1.00800000E+00  1.00800000E+00  0.00000000E+00  1.60000000E+01
  1.00800000E+00  1.00800000E+00  0.00000000E+00  1.60000000E+01  1.00800000E+00
  1.00800000E+00  0.00000000E+00  1.60000000E+01  1.00800000E+00  1.00800000E+00
  0.00000000E+00  1.60000000E+01  1.00800000E+00  1.00800000E+00  0.00000000E+00
  1.60000000E+01  1.00800000E+00  1.00800000E+00  0.00000000E+00  1.60000000E+01
  1.00800000E+00  1.00800000E+00  0.00000000E+00  1.60000000E+01  1.00800000E+00
  1.00800000E+00  0.00000000E+00  1.60000000E+01  1.00800000E+00  1.00800000E+00
  0.00000000E+00  1.60000000E+01  1.00800000E+00  1.00800000E+00  0.00000000E+00
  1.60000000E+01  1.00800000E+00  1.00800000E+00  0.00000000E+00  1.60000000E+01
  1.00800000E+00  1.00800000E+00  0.00000000E+00  1.60000000E+01  1.00800000E+00
  1.00800000E+00  0.00000000E+00  1.60000000E+01  1.00800000E+00  1.00800000E+00
  0.00000000E+00  1.60000000E+01  1.00800000E+00  1.00800000E+00  0.00000000E+00
  1.60000000E+01  1.00800000E+00  1.00800000E+00  0.00000000E+00  1.60000000E+01
  1.00800000E+00  1.00800000E+00  0.00000000E+00  1.60000000E+01  1.00800000E+00
  1.00800000E+00  0.00000000E+00  1.60000000E+01  1.00800000E+00  1.00800000E+00
  0.00000000E+00  1.60000000E+01  1.00800000E+00  1.00800000E+00  0.00000000E+00
  1.60000000E+01  1.00800000E+00  1.00800000E+00  0.00000000E+00  1.60000000E+01
  1.00800000E+00  1.00800000E+00  0.00000000E+00  1.60000000E+01  1.00800000E+00
  1.00800000E+00  0.00000000E+00  1.60000000E+01  1.00800000E+00  1.00800000E+00
  0.00000000E+00  1.60000000E+01  1.00800000E+00  1.00800000E+00  0.00000000E+00
  1.60000000E+01  1.00800000E+00  1.00800000E+00  0.00000000E+00  1.60000000E+01
  1.00800000E+00  1.00800000E+00  0.00000000E+00  1.60000000E+01  1.00800000E+00
  1.00800000E+00  0.00000000E+00  1.60000000E+01  1.00800000E+00  1.00800000E+00
  0.00000000E+00  1.60000000E+01  1.00800000E+00  1.00800000E+00  0.00000000E+00
  1.60000000E+01  1.00800000E+00  1.00800000E+00  0.00000000E+00  1.60000000E+01
  1.00800000E+00  1.00800000E+00  0.00000000E+00  1.60000000E+01  1.00800000E+00
  1.00800000E+00  0.00000000E+00  1.60000000E+01  1.00800000E+00  1.00800000E+00
  0.00000000E+00  1.60000000E+01  1.00800000E+00  1.00800000E+00  0.00000000E+00
  1.60000000E+01  1.00800000E+00  1.00800000E+00  0.00000000E+00  1.60000000E+01
  1.00800000E+00  1.00800000E+00  0.00000000E+00  1.60000000E+01  1.00800000E+00
  1.00800000E+00  0.00000000E+00  1.60000000E+01  1.00800000E+00  1.00800000E+00
  0.00000000E+00  1.60000000E+01  1.00800000E+00  1.00800000E+00  0.00000000E+00
  1.60000000E+01  1.00800000E+00  1.00800000E+00  0.00000000E+00  1.60000000E+01
  1.00800000E+00  1.00800000E+00  0.00000000E+00  1.60000000E+01  1.00800000E+00
  1.00800000E+00  0.00000000E+00  1.60000000E+01  1.00800000E+00  1.00800000E+00
  0.00000000E+00  1.60000000E+01  1.00800000E+00  1.00800000E+00  0.00000000E+00
  1.60000000E+01  1.00800000E+00  1.00800000E+00  0.00000000E+00  1.60000000E+01
  1.00800000E+00  1.00800000E+00  0.00000000E+00  1.60000000E+01  1.00800000E+00
  1.00800000E+00  0.00000000E+00  1.60000000E+01  1.00800000E+00  1.00800000E+00
  0.00000000E+00  1.60000000E+01  1.00800000E+00  1.00800000E+00  0.00000000E+00
  1.60000000E+01  1.00800000E+00  1.00800000E+00  0.00000000E+00  1.60000000E+01
  1.00800000E+00  1.00800000E+00  0.00000000E+00  1.60000000E+01  1.00800000E+00
  1.00800000E+00  0.00000000E+00  1.60000000E+01  1.00800000E+00  1.00800000E+00
  0.00000000E+00  1.60000000E+01  1.00800000E+00  1.00800000E+00  0.00000000E+00
  1.60000000E+01  1.00800000E+00  1.00800000E+00  0.00000000E+00  1.60000000E+01
  1.00800000E+00  1.00800000E+00  0.00000000E+00  1.60000000E+01  1.00800000E+00
  1.00800000E+00  0.00000000E+00  1.60000000E+01  1.00800000E+00  1.00800000E+00
  0.00000000E+00  1.60000000E+01  1.00800000E+00  1.00800000E+00  0.00000000E+00
  1.60000000E+01  1.00800000E+00  1.00800000E+00  0.00000000E+00  1.60000000E+01
  1.00800000E+00  1.00800000E+00  0.00000000E+00  1.60000000E+01  1.00800000E+00
  1.00800000E+00  0.00000000E+00  1.60000000E+01  1.00800000E+00  1.00800000E+00
  0.00000000E+00  1.60000000E+01  1.00800000E+00  1.00800000E+00  0.00000000E+00
  1.60000000E+01  1.00800000E+00  1.00800000E+00  0.00000000E+00  1.60000000E+01
  1.00800000E+00  1.00800000E+00  0.00000000E+00  1.60000000E+01  1.00800000E+00
  1.00800000E+00  0.00000000E+00  1.60000000E+01  1.00800000E+00  1.00800000E+00
  0.00000000E+00  1.60000000E+01  1.00800000E+00  1.00800000E+00  0.00000000E+00
  1.60000000E+01  1.00800000E+00  1.00800000E+00  0.00000000E+00  1.60000000E+01
  1.00800000E+00  1.00800000E+00  0.00000000E+00  1.60000000E+01  1.00800000E+00
  1.00800000E+00  0.00000000E+00  1.60000000E+01  1.00800000E+00  1.00800000E+00
  0.00000000E+00  1.60000000E+01  1.00800000E+00  1.00800000E+00  0.00000000E+00
  1.60000000E+01  1.00800000E+00  1.00800000E+00  0.00000000E+00  1.60000000E+01
  1.00800000E+00  1.00800000E+00  0.00000000E+00  1.60000000E+01  1.00800000E+00
  1.00800000E+00  0.00000000E+00  1.60000000E+01  1.00800000E+00  1.00800000E+00
  0.00000000E+00  1.60000000E+01  1.00800000E+00  1.00800000E+00  0.00000000E+00
  1.60000000E+01  1.00800000E+00  1.00800000E+00  0.00000000E+00  1.60000000E+01
  1.00800000E+00  1.00800000E+00  0.00000000E+00  1.60000000E+01  1.00800000E+00
  1.00800000E+00  0.00000000E+00  1.60000000E+01  1.00800000E+00  1.00800000E+00
  0.00000000E+00  1.60000000E+01  1.00800000E+00  1.00800000E+00  0.00000000E+00
  1.60000000E+01  1.00800000E+00  1.00800000E+00  0.00000000E+00  1.60000000E+01
  1.00800000E+00  1.00800000E+00  0.00000000E+00  1.60000000E+01  1.00800000E+00
  1.00800000E+00  0.00000000E+00  1.60000000E+01  1.00800000E+00  1.00800000E+00
  0.00000000E+00  1.60000000E+01  1.00800000E+00  1.00800000E+00  0.00000000E+00
  1.60000000E+01  1.00800000E+00  1.00800000E+00  0.00000000E+00  1.60000000E+01
  1.00800000E+00  1.00800000E+00  0.00000000E+00  1.60000000E+01  1.00800000E+00
  1.00800000E+00  0.00000000E+00  1.60000000E+01  1.00800000E+00  1.00800000E+00
  0.00000000E+00  1.60000000E+01  1.00800000E+00  1.00800000E+00  0.00000000E+00
  1.60000000E+01  1.00800000E+00  1.00800000E+00  0.00000000E+00  1.60000000E+01
  1.00800000E+00  1.00800000E+00  0.00000000E+00  1.60000000E+01  1.00800000E+00
  1.00800000E+00  0.00000000E+00  1.60000000E+01  1.00800000E+00  1.00800000E+00
  0.00000000E+00  1.60000000E+01  1.00800000E+00  1.00800000E+00  0.00000000E+00
  1.60000000E+01  1.00800000E+00  1.00800000E+00  0.00000000E+00  1.60000000E+01
  1.00800000E+00  1.00800000E+00  0.00000000E+00  1.60000000E+01  1.00800000E+00
  1.00800000E+00  0.00000000E+00  1.60000000E+01  1.00800000E+00  1.00800000E+00
  0.00000000E+00  1.60000000E+01  1.00800000E+00  1.00800000E+00  0.00000000E+00
  1.60000000E+01  1.00800000E+00  1.00800000E+00  0.00000000E+00  1.60000000E+01
  1.00800000E+00  1.00800000E+00  0.00000000E+00  1.60000000E+01  1.00800000E+00
  1.00800000E+00  0.00000000E+00  1.60000000E+01  1.00800000E+00  1.00800000E+00
  0.00000000E+00  1.60000000E+01  1.00800000E+00  1.00800000E+00  0.00000000E+00
  1.60000000E+01  1.00800000E+00  1.00800000E+00  0.00000000E+00  1.60000000E+01
  1.00800000E+00  1.00800000E+00  0.00000000E+00  1.60000000E+01  1.00800000E+00
  1.00800000E+00  0.00000000E+00  1.60000000E+01  1.00800000E+00  1.00800000E+00
  0.00000000E+00  1.60000000E+01  1.00800000E+00  1.00800000E+00  0.00000000E+00
  1.60000000E+01  1.00800000E+00  1.00800000E+00  0.00000000E+00  1.60000000E+01
  1.00800000E+00  1.00800000E+00  0.00000000E+00  1.60000000E+01  1.00800000E+00
  1.00800000E+00  0.00000000E+00  1.60000000E+01  1.00800000E+00  1.00800000E+00
  0.00000000E+00  1.60000000E+01  1.00800000E+00  1.00800000E+00  0.00000000E+00
  1.60000000E+01  1.00800000E+00  1.00800000E+00  0.00000000E+00  1.60000000E+01
  1.00800000E+00  1.00800000E+00  0.00000000E+00  1.60000000E+01  1.00800000E+00
  1.00800000E+00  0.00000000E+00  1.60000000E+01  1.00800000E+00  1.00800000E+00
  0.00000000E+00  1.60000000E+01  1.00800000E+00  1.00800000E+00  0.00000000E+00
  1.60000000E+01  1.00800000E+00  1.00800000E+00  0.00000000E+00  1.60000000E+01
  1.00800000E+00  1.00800000E+00  0.00000000E+00  1.60000000E+01  1.00800000E+00
  1.00800000E+00  0.00000000E+00  1.60000000E+01  1.00800000E+00  1.00800000E+00
  0.00000000E+00  1.60000000E+01  1.00800000E+00  1.00800000E+00  0.00000000E+00
  1.60000000E+01  1.00800000E+00  1.00800000E+00  0.00000000E+00  1.60000000E+01
  1.00800000E+00  1.00800000E+00  0.00000000E+00  1.60000000E+01  1.00800000E+00
  1.00800000E+00  0.00000000E+00  1.60000000E+01  1.00800000E+00  1.00800000E+00
  0.00000000E+00  1.60000000E+01  1.00800000E+00  1.00800000E+00  0.00000000E+00
  1.60000000E+01  1.00800000E+00  1.00800000E+00  0.00000000E+00  1.60000000E+01
  1.00800000E+00  1.00800000E+00  0.00000000E+00  1.60000000E+01  1.00800000E+00
  1.00800000E+00  0.00000000E+00  1.60000000E+01  1.00800000E+00  1.00800000E+00
  0.00000000E+00  1.60000000E+01  1.00800000E+00  1.00800000E+00  0.00000000E+00
  1.60000000E+01  1.00800000E+00  1.00800000E+00  0.00000000E+00  1.60000000E+01
  1.00800000E+00  1.00800000E+00  0.00000000E+00  1.60000000E+01  1.00800000E+00
  1.00800000E+00  0.00000000E+00  1.60000000E+01  1.00800000E+00  1.00800000E+00
  0.00000000E+00  1.60000000E+01  1.00800000E+00  1.00800000E+00  0.00000000E+00
  1.60000000E+01  1.00800000E+00  1.00800000E+00  0.00000000E+00  1.60000000E+01
  1.00800000E+00  1.00800000E+00  0.00000000E+00  1.60000000E+01  1.00800000E+00
  1.00800000E+00  0.00000000E+00  1.60000000E+01  1.00800000E+00  1.00800000E+00
  0.00000000E+00  1.60000000E+01  1.00800000E+00  1.00800000E+00  0.00000000E+00
  1.60000000E+01  1.00800000E+00  1.00800000E+00  0.00000000E+00  1.60000000E+01
  1.00800000E+00  1.00800000E+00  0.00000000E+00  1.60000000E+01  1.00800000E+00
  1.00800000E+00  0.00000000E+00  1.60000000E+01  1.00800000E+00  1.00800000E+00
  0.00000000E+00  1.60000000E+01  1.00800000E+00  1.00800000E+00  0.00000000E+00
  1.60000000E+01  1.00800000E+00  1.00800000E+00  0.00000000E+00  1.60000000E+01
  1.00800000E+00  1.00800000E+00  0.00000000E+00  1.60000000E+01  1.00800000E+00
  1.00800000E+00  0.00000000E+00  1.60000000E+01  1.00800000E+00  1.00800000E+00
  0.00000000E+00  1.60000000E+01  1.00800000E+00  1.00800000E+00  0.00000000E+00
  1.60000000E+01  1.00800000E+00  1.00800000E+00  0.00000000E+00  1.60000000E+01
  1.00800000E+00  1.00800000E+00  0.00000000E+00  1.60000000E+01  1.00800000E+00
  1.00800000E+00  0.00000000E+00  1.60000000E+01  1.00800000E+00  1.00800000E+00
  0.00000000E+00  1.60000000E+01  1.00800000E+00  1.00800000E+00  0.00000000E+00
  1.60000000E+01  1.00800000E+00  1.00800000E+00  0.00000000E+00  1.60000000E+01
  1.00800000E+00  1.00800000E+00  0.00000000E+00  1.60000000E+01  1.00800000E+00
  1.00800000E+00  0.00000000E+00  1.60000000E+01  1.00800000E+00  1.00800000E+00
  0.00000000E+00  1.60000000E+01  1.00800000E+00  1.00800000E+00  0.00000000E+00
  1.60000000E+01  1.00800000E+00  1.00800000E+00  0.00000000E+00  1.60000000E+01
  1.00800000E+00  1.00800000E+00  0.00000000E+00  1.60000000E+01  1.00800000E+00
  1.00800000E+00  0.00000000E+00  1.60000000E+01  1.00800000E+00  1.00800000E+00
  0.00000000E+00  1.60000000E+01  1.00800000E+00  1.00800000E+00  0.00000000E+00
  1.60000000E+01  1.00800000E+00  1.00800000E+00  0.00000000E+00  1.60000000E+01
  1.00800000E+00  1.00800000E+00  0.00000000E+00  1.60000000E+01  1.00800000E+00
  1.00800000E+00  0.00000000E+00  1.60000000E+01  1.00800000E+00  1.00800000E+00
  0.00000000E+00  1.60000000E+01  1.00800000E+00  1.00800000E+00  0.00000000E+00
  1.60000000E+01  1.00800000E+00  1.00800000E+00  0.00000000E+00  1.60000000E+01
  1.00800000E+00  1.00800000E+00  0.00000000E+00  1.60000000E+01  1.00800000E+00
  1.00800000E+00  0.00000000E+00  1.60000000E+01  1.00800000E+00  1.00800000E+00
  0.00000000E+00  1.60000000E+01  1.00800000E+00  1.00800000E+00  0.00000000E+00
  1.60000000E+01  1.00800000E+00  1.00800000E+00  0.00000000E+00  1.60000000E+01
  1.00800000E+00  1.00800000E+00  0.00000000E+00  1.60000000E+01  1.00800000E+00
  1.00800000E+00  0.00000000E+00  1.60000000E+01  1.00800000E+00  1.00800000E+00
  0.00000000E+00  1.60000000E+01  1.00800000E+00  1.00800000E+00  0.00000000E+00
  1.60000000E+01  1.00800000E+00  1.00800000E+00  0.00000000E+00  1.60000000E+01
  1.00800000E+00  1.00800000E+00  0.00000000E+00  1.60000000E+01  1.00800000E+00
  1.00800000E+00  0.00000000E+00  1.60000000E+01  1.00800000E+00  1.00800000E+00
  0.00000000E+00  1.60000000E+01  1.00800000E+00  1.00800000E+00  0.00000000E+00
  1.60000000E+01  1.00800000E+00  1.00800000E+00  0.00000000E+00  1.60000000E+01
  1.00800000E+00  1.00800000E+00  0.00000000E+00  1.60000000E+01  1.00800000E+00
  1.00800000E+00  0.00000000E+00  1.60000000E+01  1.00800000E+00  1.00800000E+00
  0.00000000E+00  1.60000000E+01  1.00800000E+00  1.00800000E+00  0.00000000E+00
  1.60000000E+01  1.00800000E+00  1.00800000E+00  0.00000000E+00  1.60000000E+01
  1.00800000E+00  1.00800000E+00  0.00000000E+00  1.60000000E+01  1.00800000E+00
  1.00800000E+00  0.00000000E+00  1.60000000E+01  1.00800000E+00  1.00800000E+00
  0.00000000E+00  1.60000000E+01  1.00800000E+00  1.00800000E+00  0.00000000E+00
  1.60000000E+01  1.00800000E+00  1.00800000E+00  0.00000000E+00  1.60000000E+01
  1.00800000E+00  1.00800000E+00  0.00000000E+00  1.60000000E+01  1.00800000E+00
  1.00800000E+00  0.00000000E+00  1.60000000E+01  1.00800000E+00  1.00800000E+00
  0.00000000E+00  1.60000000E+01  1.00800000E+00  1.00800000E+00  0.00000000E+00
  1.60000000E+01  1.00800000E+00  1.00800000E+00  0.00000000E+00  1.60000000E+01
  1.00800000E+00  1.00800000E+00  0.00000000E+00  1.60000000E+01  1.00800000E+00
  1.00800000E+00  0.00000000E+00  1.60000000E+01  1.00800000E+00  1.00800000E+00
  0.00000000E+00  1.60000000E+01  1.00800000E+00  1.00800000E+00  0.00000000E+00
  1.60000000E+01  1.00800000E+00  1.00800000E+00  0.00000000E+00  1.60000000E+01
  1.00800000E+00  1.00800000E+00  0.00000000E+00  1.60000000E+01  1.00800000E+00
  1.00800000E+00  0.00000000E+00  1.60000000E+01  1.00800000E+00  1.00800000E+00
  0.00000000E+00  1.60000000E+01  1.00800000E+00  1.00800000E+00  0.00000000E+00
  1.60000000E+01  1.00800000E+00  1.00800000E+00  0.00000000E+00  1.60000000E+01
  1.00800000E+00  1.00800000E+00  0.00000000E+00  1.60000000E+01  1.00800000E+00
  1.00800000E+00  0.00000000E+00  1.60000000E+01  1.00800000E+00  1.00800000E+00
  0.00000000E+00  1.60000000E+01  1.00800000E+00  1.00800000E+00  0.00000000E+00
  1.60000000E+01  1.00800000E+00  1.00800000E+00  0.00000000E+00  1.60000000E+01
  1.00800000E+00  1.00800000E+00  0.00000000E+00  1.60000000E+01  1.00800000E+00
  1.00800000E+00  0.00000000E+00  1.60000000E+01  1.00800000E+00  1.00800000E+00
  0.00000000E+00  1.60000000E+01  1.00800000E+00  1.00800000E+00  0.00000000E+00
  1.60000000E+01  1.00800000E+00  1.00800000E+00  0.00000000E+00  1.60000000E+01
  1.00800000E+00  1.00800000E+00  0.00000000E+00  1.60000000E+01  1.00800000E+00
  1.00800000E+00  0.00000000E+00  1.60000000E+01  1.00800000E+00  1.00800000E+00
  0.00000000E+00  1.60000000E+01  1.00800000E+00  1.00800000E+00  0.00000000E+00
  1.60000000E+01  1.00800000E+00  1.00800000E+00  0.00000000E+00  1.60000000E+01
  1.00800000E+00  1.00800000E+00  0.00000000E+00  1.60000000E+01  1.00800000E+00
  1.00800000E+00  0.00000000E+00  1.60000000E+01  1.00800000E+00  1.00800000E+00
  0.00000000E+00  1.60000000E+01  1.00800000E+00  1.00800000E+00  0.00000000E+00
  1.60000000E+01  1.00800000E+00  1.00800000E+00  0.00000000E+00  1.60000000E+01
  1.00800000E+00  1.00800000E+00  0.00000000E+00  1.60000000E+01  1.00800000E+00
  1.00800000E+00  0.00000000E+00  1.60000000E+01  1.00800000E+00  1.00800000E+00
  0.00000000E+00  1.60000000E+01  1.00800000E+00  1.00800000E+00  0.00000000E+00
  1.60000000E+01  1.00800000E+00  1.00800000E+00  0.00000000E+00  1.60000000E+01
  1.00800000E+00  1.00800000E+00  0.00000000E+00  1.60000000E+01  1.00800000E+00
  1.00800000E+00  0.00000000E+00  1.60000000E+01  1.00800000E+00  1.00800000E+00
  0.00000000E+00  1.60000000E+01  1.00800000E+00  1.00800000E+00  0.00000000E+00
  1.60000000E+01  1.00800000E+00  1.00800000E+00  0.00000000E+00  1.60000000E+01
  1.00800000E+00  1.00800000E+00  0.00000000E+00  1.60000000E+01  1.00800000E+00
  1.00800000E+00  0.00000000E+00  1.60000000E+01  1.00800000E+00  1.00800000E+00
  0.00000000E+00  1.60000000E+01  1.00800000E+00  1.00800000E+00  0.00000000E+00
  1.60000000E+01  1.00800000E+00  1.00800000E+00  0.00000000E+00  1.60000000E+01
  1.00800000E+00  1.00800000E+00  0.00000000E+00  1.60000000E+01  1.00800000E+00
  1.00800000E+00  0.00000000E+00  1.60000000E+01  1.00800000E+00  1.00800000E+00
  0.00000000E+00  1.60000000E+01  1.00800000E+00  1.00800000E+00  0.00000000E+00
  1.60000000E+01  1.00800000E+00  1.00800000E+00  0.00000000E+00  1.60000000E+01
  1.00800000E+00  1.00800000E+00  0.00000000E+00  1.60000000E+01  1.00800000E+00
  1.00800000E+00  0.00000000E+00  1.60000000E+01  1.00800000E+00  1.00800000E+00
  0.00000000E+00  1.60000000E+01  1.00800000E+00  1.00800000E+00  0.00000000E+00
  1.60000000E+01  1.00800000E+00  1.00800000E+00  0.00000000E+00  1.60000000E+01
  1.00800000E+00  1.00800000E+00  0.00000000E+00  1.60000000E+01  1.00800000E+00
  1.00800000E+00  0.00000000E+00  1.60000000E+01  1.00800000E+00  1.00800000E+00
  0.00000000E+00  1.60000000E+01  1.00800000E+00  1.00800000E+00  0.00000000E+00
  1.60000000E+01  1.00800000E+00  1.00800000E+00  0.00000000E+00  1.60000000E+01
  1.00800000E+00  1.00800000E+00  0.00000000E+00  1.60000000E+01  1.00800000E+00
  1.00800000E+00  0.00000000E+00  1.60000000E+01  1.00800000E+00  1.00800000E+00
  0.00000000E+00  1.60000000E+01  1.00800000E+00  1.00800000E+00  0.00000000E+00
  1.60000000E+01  1.00800000E+00  1.00800000E+00  0.00000000E+00  1.60000000E+01
  1.00800000E+00  1.00800000E+00  0.00000000E+00  1.60000000E+01  1.00800000E+00
  1.00800000E+00  0.00000000E+00  1.60000000E+01  1.00800000E+00  1.00800000E+00
  0.00000000E+00  1.60000000E+01  1.00800000E+00  1.00800000E+00  0.00000000E+00
  1.60000000E+01  1.00800000E+00  1.00800000E+00  0.00000000E+00  1.60000000E+01
  1.00800000E+00  1.00800000E+00  0.00000000E+00  1.60000000E+01  1.00800000E+00
  1.00800000E+00  0.00000000E+00  1.60000000E+01  1.00800000E+00  1.00800000E+00
  0.00000000E+00  1.60000000E+01  1.00800000E+00  1.00800000E+00  0.00000000E+00
  1.60000000E+01  1.00800000E+00  1.00800000E+00  0.00000000E+00  1.60000000E+01
  1.00800000E+00  1.00800000E+00  0.00000000E+00  1.60000000E+01  1.00800000E+00
  1.00800000E+00  0.00000000E+00  1.60000000E+01  1.00800000E+00  1.00800000E+00
  0.00000000E+00  1.60000000E+01  1.00800000E+00  1.00800000E+00  0.00000000E+00
  1.60000000E+01  1.00800000E+00  1.00800000E+00  0.00000000E+00  1.60000000E+01
  1.00800000E+00  1.00800000E+00  0.00000000E+00  1.60000000E+01  1.00800000E+00
  1.00800000E+00  0.00000000E+00  1.60000000E+01  1.00800000E+00  1.00800000E+00
  0.00000000E+00  1.60000000E+01  1.00800000E+00  1.00800000E+00  0.00000000E+00
  1.60000000E+01  1.00800000E+00  1.00800000E+00  0.00000000E+00  1.60000000E+01
  1.00800000E+00  1.00800000E+00  0.00000000E+00  1.60000000E+01  1.00800000E+00
  1.00800000E+00  0.00000000E+00  1.60000000E+01  1.00800000E+00  1.00800000E+00
  0.00000000E+00  1.60000000E+01  1.00800000E+00  1.00800000E+00  0.00000000E+00
  1.60000000E+01  1.00800000E+00  1.00800000E+00  0.00000000E+00  1.60000000E+01
  1.00800000E+00  1.00800000E+00  0.00000000E+00  1.60000000E+01  1.00800000E+00
  1.00800000E+00  0.00000000E+00  1.60000000E+01  1.00800000E+00  1.00800000E+00
  0.00000000E+00  1.60000000E+01  1.00800000E+00  1.00800000E+00  0.00000000E+00
  1.60000000E+01  1.00800000E+00  1.00800000E+00  0.00000000E+00  1.60000000E+01
  1.00800000E+00  1.00800000E+00  0.00000000E+00  1.60000000E+01  1.00800000E+00
  1.00800000E+00  0.00000000E+00  1.60000000E+01  1.00800000E+00  1.00800000E+00
  0.00000000E+00  1.60000000E+01  1.00800000E+00  1.00800000E+00  0.00000000E+00
  1.60000000E+01  1.00800000E+00  1.00800000E+00  0.00000000E+00  1.60000000E+01
  1.00800000E+00  1.00800000E+00  0.00000000E+00  1.60000000E+01  1.00800000E+00
  1.00800000E+00  0.00000000E+00  1.60000000E+01  1.00800000E+00  1.00800000E+00
  0.00000000E+00  1.60000000E+01  1.00800000E+00  1.00800000E+00  0.00000000E+00
  1.60000000E+01  1.00800000E+00  1.00800000E+00  0.00000000E+00  1.60000000E+01
  1.00800000E+00  1.00800000E+00  0.00000000E+00  1.60000000E+01  1.00800000E+00
  1.00800000E+00  0.00000000E+00  1.60000000E+01  1.00800000E+00  1.00800000E+00
  0.00000000E+00  1.60000000E+01  1.00800000E+00  1.00800000E+00  0.00000000E+00
  1.60000000E+01  1.00800000E+00  1.00800000E+00  0.00000000E+00  1.60000000E+01
  1.00800000E+00  1.00800000E+00  0.00000000E+00  1.60000000E+01  1.00800000E+00
  1.00800000E+00  0.00000000E+00  1.60000000E+01  1.00800000E+00  1.00800000E+00
  0.00000000E+00  1.60000000E+01  1.00800000E+00  1.00800000E+00  0.00000000E+00
  1.60000000E+01  1.00800000E+00  1.00800000E+00  0.00000000E+00  1.60000000E+01
  1.00800000E+00  1.00800000E+00  0.00000000E+00  1.60000000E+01  1.00800000E+00
  1.00800000E+00  0.00000000E+00  1.60000000E+01  1.00800000E+00  1.00800000E+00
  0.00000000E+00  1.60000000E+01  1.00800000E+00  1.00800000E+00  0.00000000E+00
  1.60000000E+01  1.00800000E+00  1.00800000E+00  0.00000000E+00  1.60000000E+01
  1.00800000E+00  1.00800000E+00  0.00000000E+00  1.60000000E+01  1.00800000E+00
  1.00800000E+00  0.00000000E+00  1.60000000E+01  1.00800000E+00  1.00800000E+00
  0.00000000E+00  1.60000000E+01  1.00800000E+00  1.00800000E+00  0.00000000E+00
  1.60000000E+01  1.00800000E+00  1.00800000E+00  0.00000000E+00  1.60000000E+01
  1.00800000E+00  1.00800000E+00  0.00000000E+00  1.60000000E+01  1.00800000E+00
  1.00800000E+00  0.00000000E+00  1.60000000E+01  1.00800000E+00  1.00800000E+00
  0.00000000E+00  1.60000000E+01  1.00800000E+00  1.00800000E+00  0.00000000E+00
  1.60000000E+01  1.00800000E+00  1.00800000E+00  0.00000000E+00  1.60000000E+01
  1.00800000E+00  1.00800000E+00  0.00000000E+00  1.60000000E+01  1.00800000E+00
  1.00800000E+00  0.00000000E+00  1.60000000E+01  1.00800000E+00  1.00800000E+00
  0.00000000E+00  1.60000000E+01  1.00800000E+00  1.00800000E+00  0.00000000E+00
  1.60000000E+01  1.00800000E+00  1.00800000E+00  0.00000000E+00  1.60000000E+01
  1.00800000E+00  1.00800000E+00  0.00000000E+00  1.60000000E+01  1.00800000E+00
  1.00800000E+00  0.00000000E+00  1.60000000E+01  1.00800000E+00  1.00800000E+00
  0.00000000E+00  1.60000000E+01  1.00800000E+00  1.00800000E+00  0.00000000E+00
  1.60000000E+01  1.00800000E+00  1.00800000E+00  0.00000000E+00  1.60000000E+01
  1.00800000E+00  1.00800000E+00  0.00000000E+00  1.60000000E+01  1.00800000E+00
  1.00800000E+00  0.00000000E+00  1.60000000E+01  1.00800000E+00  1.00800000E+00
  0.00000000E+00  1.60000000E+01  1.00800000E+00  1.00800000E+00  0.00000000E+00
  1.60000000E+01  1.00800000E+00  1.00800000E+00  0.00000000E+00  1.60000000E+01
  1.00800000E+00  1.00800000E+00  0.00000000E+00  1.60000000E+01  1.00800000E+00
  1.00800000E+00  0.00000000E+00  1.60000000E+01  1.00800000E+00  1.00800000E+00
  0.00000000E+00  1.60000000E+01  1.00800000E+00  1.00800000E+00  0.00000000E+00
  1.60000000E+01  1.00800000E+00  1.00800000E+00  0.00000000E+00  1.60000000E+01
  1.00800000E+00  1.00800000E+00  0.00000000E+00  1.60000000E+01  1.00800000E+00
  1.00800000E+00  0.00000000E+00  1.60000000E+01  1.00800000E+00  1.00800000E+00
  0.00000000E+00  1.60000000E+01  1.00800000E+00  1.00800000E+00  0.00000000E+00
  1.60000000E+01  1.00800000E+00  1.00800000E+00  0.00000000E+00  1.60000000E+01
  1.00800000E+00  1.00800000E+00  0.00000000E+00  1.60000000E+01  1.00800000E+00
  1.00800000E+00  0.00000000E+00  1.60000000E+01  1.00800000E+00  1.00800000E+00
  0.00000000E+00  1.60000000E+01  1.00800000E+00  1.00800000E+00  0.00000000E+00
  1.60000000E+01  1.00800000E+00  1.00800000E+00  0.00000000E+00  1.60000000E+01
  1.00800000E+00  1.00800000E+00  0.00000000E+00  1.60000000E+01  1.00800000E+00
  1.00800000E+00  0.00000000E+00  1.60000000E+01  1.00800000E+00  1.00800000E+00
  0.00000000E+00  1.60000000E+01  1.00800000E+00  1.00800000E+00  0.00000000E+00
  1.60000000E+01  1.00800000E+00  1.00800000E+00  0.00000000E+00  1.60000000E+01
  1.00800000E+00  1.00800000E+00  0.00000000E+00  1.60000000E+01  1.00800000E+00
  1.00800000E+00  0.00000000E+00  1.60000000E+01  1.00800000E+00  1.00800000E+00
  0.00000000E+00  1.60000000E+01  1.00800000E+00  1.00800000E+00  0.00000000E+00
  1.60000000E+01  1.00800000E+00  1.00800000E+00  0.00000000E+00  1.60000000E+01
  1.00800000E+00  1.00800000E+00  0.00000000E+00  1.60000000E+01  1.00800000E+00
  1.00800000E+00  0.00000000E+00  1.60000000E+01  1.00800000E+00  1.00800000E+00
  0.00000000E+00  1.60000000E+01  1.00800000E+00  1.00800000E+00  0.00000000E+00
  1.60000000E+01  1.00800000E+00  1.00800000E+00  0.00000000E+00  1.60000000E+01
  1.00800000E+00  1.00800000E+00  0.00000000E+00  1.60000000E+01  1.00800000E+00
  1.00800000E+00  0.00000000E+00  1.60000000E+01  1.00800000E+00  1.00800000E+00
  0.00000000E+00  1.60000000E+01  1.00800000E+00  1.00800000E+00  0.00000000E+00
  1.60000000E+01  1.00800000E+00  1.00800000E+00  0.00000000E+00  1.60000000E+01
  1.00800000E+00  1.00800000E+00  0.00000000E+00  1.60000000E+01  1.00800000E+00
  1.00800000E+00  0.00000000E+00  1.60000000E+01  1.00800000E+00  1.00800000E+00
  0.00000000E+00  1.60000000E+01  1.00800000E+00  1.00800000E+00  0.00000000E+00
  1.60000000E+01  1.00800000E+00  1.00800000E+00  0.00000000E+00  1.60000000E+01
  1.00800000E+00  1.00800000E+00  0.00000000E+00  1.60000000E+01  1.00800000E+00
  1.00800000E+00  0.00000000E+00  1.60000000E+01  1.00800000E+00  1.00800000E+00
  0.00000000E+00  1.60000000E+01  1.00800000E+00  1.00800000E+00  0.00000000E+00
  1.60000000E+01  1.00800000E+00  1.00800000E+00  0.00000000E+00  1.60000000E+01
  1.00800000E+00  1.00800000E+00  0.00000000E+00  1.60000000E+01  1.00800000E+00
  1.00800000E+00  0.00000000E+00  1.60000000E+01  1.00800000E+00  1.00800000E+00
  0.00000000E+00  1.60000000E+01  1.00800000E+00  1.00800000E+00  0.00000000E+00
  1.60000000E+01  1.00800000E+00  1.00800000E+00  0.00000000E+00  1.60000000E+01
  1.00800000E+00  1.00800000E+00  0.00000000E+00  1.60000000E+01  1.00800000E+00
  1.00800000E+00  0.00000000E+00  1.60000000E+01  1.00800000E+00  1.00800000E+00
  0.00000000E+00  1.60000000E+01  1.00800000E+00  1.00800000E+00  0.00000000E+00
  1.60000000E+01  1.00800000E+00  1.00800000E+00  0.00000000E+00  1.60000000E+01
  1.00800000E+00  1.00800000E+00  0.00000000E+00  1.60000000E+01  1.00800000E+00
  1.00800000E+00  0.00000000E+00  1.60000000E+01  1.00800000E+00  1.00800000E+00
  0.00000000E+00  1.60000000E+01  1.00800000E+00  1.00800000E+00  0.00000000E+00
  1.60000000E+01  1.00800000E+00  1.00800000E+00  0.00000000E+00  1.60000000E+01
  1.00800000E+00  1.00800000E+00  0.00000000E+00  1.60000000E+01  1.00800000E+00
  1.00800000E+00  0.00000000E+00  1.60000000E+01  1.00800000E+00  1.00800000E+00
  0.00000000E+00  1.60000000E+01  1.00800000E+00  1.00800000E+00  0.00000000E+00
  1.60000000E+01  1.00800000E+00  1.00800000E+00  0.00000000E+00  1.60000000E+01
  1.00800000E+00  1.00800000E+00  0.00000000E+00  1.60000000E+01  1.00800000E+00
  1.00800000E+00  0.00000000E+00  1.60000000E+01  1.00800000E+00  1.00800000E+00
  0.00000000E+00  1.60000000E+01  1.00800000E+00  1.00800000E+00  0.00000000E+00
  1.60000000E+01  1.00800000E+00  1.00800000E+00  0.00000000E+00  1.60000000E+01
  1.00800000E+00  1.00800000E+00  0.00000000E+00  1.60000000E+01  1.00800000E+00
  1.00800000E+00  0.00000000E+00  1.60000000E+01  1.00800000E+00  1.00800000E+00
  0.00000000E+00  1.60000000E+01  1.00800000E+00  1.00800000E+00  0.00000000E+00
  1.60000000E+01  1.00800000E+00  1.00800000E+00  0.00000000E+00  1.60000000E+01
  1.00800000E+00  1.00800000E+00  0.00000000E+00  1.60000000E+01  1.00800000E+00
  1.00800000E+00  0.00000000E+00  1.60000000E+01  1.00800000E+00  1.00800000E+00
  0.00000000E+00  1.60000000E+01  1.00800000E+00  1.00800000E+00  0.00000000E+00
  1.60000000E+01  1.00800000E+00  1.00800000E+00  0.00000000E+00  1.60000000E+01
  1.00800000E+00  1.00800000E+00  0.00000000E+00  1.60000000E+01  1.00800000E+00
  1.00800000E+00  0.00000000E+00  1.60000000E+01  1.00800000E+00  1.00800000E+00
  0.00000000E+00  1.60000000E+01  1.00800000E+00  1.00800000E+00  0.00000000E+00
  1.60000000E+01  1.00800000E+00  1.00800000E+00  0.00000000E+00  1.60000000E+01
  1.00800000E+00  1.00800000E+00  0.00000000E+00  1.60000000E+01  1.00800000E+00
  1.00800000E+00  0.00000000E+00  1.60000000E+01  1.00800000E+00  1.00800000E+00
  0.00000000E+00  1.60000000E+01  1.00800000E+00  1.00800000E+00  0.00000000E+00
  1.60000000E+01  1.00800000E+00  1.00800000E+00  0.00000000E+00  1.60000000E+01
  1.00800000E+00  1.00800000E+00  0.00000000E+00  1.60000000E+01  1.00800000E+00
  1.00800000E+00  0.00000000E+00  1.60000000E+01  1.00800000E+00  1.00800000E+00
  0.00000000E+00  1.60000000E+01  1.00800000E+00  1.00800000E+00  0.00000000E+00
  1.60000000E+01  1.00800000E+00  1.00800000E+00  0.00000000E+00  1.60000000E+01
  1.00800000E+00  1.00800000E+00  0.00000000E+00  1.60000000E+01  1.00800000E+00
  1.00800000E+00  0.00000000E+00  1.60000000E+01  1.00800000E+00  1.00800000E+00
  0.00000000E+00  1.60000000E+01  1.00800000E+00  1.00800000E+00  0.00000000E+00
  1.60000000E+01  1.00800000E+00  1.00800000E+00  0.00000000E+00  1.60000000E+01
  1.00800000E+00  1.00800000E+00  0.00000000E+00  1.60000000E+01  1.00800000E+00
  1.00800000E+00  0.00000000E+00  1.60000000E+01  1.00800000E+00  1.00800000E+00
  0.00000000E+00  1.60000000E+01  1.00800000E+00  1.00800000E+00  0.00000000E+00
  1.60000000E+01  1.00800000E+00  1.00800000E+00  0.00000000E+00  1.60000000E+01
  1.00800000E+00  1.00800000E+00  0.00000000E+00  1.60000000E+01  1.00800000E+00
  1.00800000E+00  0.00000000E+00  1.60000000E+01  1.00800000E+00  1.00800000E+00
  0.00000000E+00  1.60000000E+01  1.00800000E+00  1.00800000E+00  0.00000000E+00
  1.60000000E+01  1.00800000E+00  1.00800000E+00  0.00000000E+00  1.60000000E+01
  1.00800000E+00  1.00800000E+00  0.00000000E+00  1.60000000E+01  1.00800000E+00
  1.00800000E+00  0.00000000E+00  1.60000000E+01  1.00800000E+00  1.00800000E+00
  0.00000000E+00  1.60000000E+01  1.00800000E+00  1.00800000E+00  0.00000000E+00
  1.60000000E+01  1.00800000E+00  1.00800000E+00  0.00000000E+00  1.60000000E+01
  1.00800000E+00  1.00800000E+00  0.00000000E+00  1.60000000E+01  1.00800000E+00
  1.00800000E+00  0.00000000E+00  1.60000000E+01  1.00800000E+00  1.00800000E+00
  0.00000000E+00  1.60000000E+01  1.00800000E+00  1.00800000E+00  0.00000000E+00
  1.60000000E+01  1.00800000E+00  1.00800000E+00  0.00000000E+00  1.60000000E+01
  1.00800000E+00  1.00800000E+00  0.00000000E+00  1.60000000E+01  1.00800000E+00
  1.00800000E+00  0.00000000E+00  1.60000000E+01  1.00800000E+00  1.00800000E+00
  0.00000000E+00  1.60000000E+01  1.00800000E+00  1.00800000E+00  0.00000000E+00
  1.60000000E+01  1.00800000E+00  1.00800000E+00  0.00000000E+00  1.60000000E+01
  1.00800000E+00  1.00800000E+00  0.00000000E+00  1.60000000E+01  1.00800000E+00
  1.00800000E+00  0.00000000E+00  1.60000000E+01  1.00800000E+00  1.00800000E+00
  0.00000000E+00  1.60000000E+01  1.00800000E+00  1.00800000E+00  0.00000000E+00
  1.60000000E+01  1.00800000E+00  1.00800000E+00  0.00000000E+00  1.60000000E+01
  1.00800000E+00  1.00800000E+00  0.00000000E+00  1.60000000E+01  1.00800000E+00
  1.00800000E+00  0.00000000E+00  1.60000000E+01  1.00800000E+00  1.00800000E+00
  0.00000000E+00  1.60000000E+01  1.00800000E+00  1.00800000E+00  0.00000000E+00
  1.60000000E+01  1.00800000E+00  1.00800000E+00  0.00000000E+00  1.60000000E+01
  1.00800000E+00  1.00800000E+00  0.00000000E+00  1.60000000E+01  1.00800000E+00
  1.00800000E+00  0.00000000E+00  1.60000000E+01  1.00800000E+00  1.00800000E+00
  0.00000000E+00  1.60000000E+01  1.00800000E+00  1.00800000E+00  0.00000000E+00
  1.60000000E+01  1.00800000E+00  1.00800000E+00  0.00000000E+00  1.60000000E+01
  1.00800000E+00  1.00800000E+00  0.00000000E+00  1.60000000E+01  1.00800000E+00
  1.00800000E+00  0.00000000E+00  1.60000000E+01  1.00800000E+00  1.00800000E+00
  0.00000000E+00  1.60000000E+01  1.00800000E+00  1.00800000E+00  0.00000000E+00
  1.60000000E+01  1.00800000E+00  1.00800000E+00  0.00000000E+00  1.60000000E+01
  1.00800000E+00  1.00800000E+00  0.00000000E+00  1.60000000E+01  1.00800000E+00
  1.00800000E+00  0.00000000E+00  1.60000000E+01  1.00800000E+00  1.00800000E+00
  0.00000000E+00  1.60000000E+01  1.00800000E+00  1.00800000E+00  0.00000000E+00
  1.60000000E+01  1.00800000E+00  1.00800000E+00  0.00000000E+00  1.60000000E+01
  1.00800000E+00  1.00800000E+00  0.00000000E+00  1.60000000E+01  1.00800000E+00
  1.00800000E+00  0.00000000E+00  1.60000000E+01  1.00800000E+00  1.00800000E+00
  0.00000000E+00  1.60000000E+01  1.00800000E+00  1.00800000E+00  0.00000000E+00
  1.60000000E+01  1.00800000E+00  1.00800000E+00  0.00000000E+00  1.60000000E+01
  1.00800000E+00  1.00800000E+00  0.00000000E+00  1.60000000E+01  1.00800000E+00
  1.00800000E+00  0.00000000E+00  1.60000000E+01  1.00800000E+00  1.00800000E+00
  0.00000000E+00  1.60000000E+01  1.00800000E+00  1.00800000E+00  0.00000000E+00
  1.60000000E+01  1.00800000E+00  1.00800000E+00  0.00000000E+00  1.60000000E+01
  1.00800000E+00  1.00800000E+00  0.00000000E+00  1.60000000E+01  1.00800000E+00
  1.00800000E+00  0.00000000E+00  1.60000000E+01  1.00800000E+00  1.00800000E+00
  0.00000000E+00  1.60000000E+01  1.00800000E+00  1.00800000E+00  0.00000000E+00
  1.60000000E+01  1.00800000E+00  1.00800000E+00  0.00000000E+00  1.60000000E+01
  1.00800000E+00  1.00800000E+00  0.00000000E+00  1.60000000E+01  1.00800000E+00
  1.00800000E+00  0.00000000E+00  1.60000000E+01  1.00800000E+00  1.00800000E+00
  0.00000000E+00  1.60000000E+01  1.00800000E+00  1.00800000E+00  0.00000000E+00
  1.60000000E+01  1.00800000E+00  1.00800000E+00  0.00000000E+00  1.60000000E+01
  1.00800000E+00  1.00800000E+00  0.00000000E+00  1.60000000E+01  1.00800000E+00
  1.00800000E+00  0.00000000E+00  1.60000000E+01  1.00800000E+00  1.00800000E+00
  0.00000000E+00  1.60000000E+01  1.00800000E+00  1.00800000E+00  0.00000000E+00
  1.60000000E+01  1.00800000E+00  1.00800000E+00  0.00000000E+00  1.60000000E+01
  1.00800000E+00  1.00800000E+00  0.00000000E+00  1.60000000E+01  1.00800000E+00
  1.00800000E+00  0.00000000E+00  1.60000000E+01  1.00800000E+00  1.00800000E+00
  0.00000000E+00  1.60000000E+01  1.00800000E+00  1.00800000E+00  0.00000000E+00
  1.60000000E+01  1.00800000E+00  1.00800000E+00  0.00000000E+00  1.60000000E+01
  1.00800000E+00  1.00800000E+00  0.00000000E+00  1.60000000E+01  1.00800000E+00
  1.00800000E+00  0.00000000E+00  1.60000000E+01  1.00800000E+00  1.00800000E+00
  0.00000000E+00  1.60000000E+01  1.00800000E+00  1.00800000E+00  0.00000000E+00
  1.60000000E+01  1.00800000E+00  1.00800000E+00  0.00000000E+00  1.60000000E+01
  1.00800000E+00  1.00800000E+00  0.00000000E+00  1.60000000E+01  1.00800000E+00
  1.00800000E+00  0.00000000E+00  1.60000000E+01  1.00800000E+00  1.00800000E+00
  0.00000000E+00  1.60000000E+01  1.00800000E+00  1.00800000E+00  0.00000000E+00
  1.60000000E+01  1.00800000E+00  1.00800000E+00  0.00000000E+00  1.60000000E+01
  1.00800000E+00  1.00800000E+00  0.00000000E+00  1.60000000E+01  1.00800000E+00
  1.00800000E+00  0.00000000E+00  1.60000000E+01  1.00800000E+00  1.00800000E+00
  0.00000000E+00  1.60000000E+01  1.00800000E+00  1.00800000E+00  0.00000000E+00
  1.60000000E+01  1.00800000E+00  1.00800000E+00  0.00000000E+00  1.60000000E+01
  1.00800000E+00  1.00800000E+00  0.00000000E+00  1.60000000E+01  1.00800000E+00
  1.00800000E+00  0.00000000E+00  1.60000000E+01  1.00800000E+00  1.00800000E+00
  0.00000000E+00  1.60000000E+01  1.00800000E+00  1.00800000E+00  0.00000000E+00
  1.60000000E+01  1.00800000E+00  1.00800000E+00  0.00000000E+00  1.60000000E+01
  1.00800000E+00  1.00800000E+00  0.00000000E+00  1.60000000E+01  1.00800000E+00
  1.00800000E+00  0.00000000E+00  1.60000000E+01  1.00800000E+00  1.00800000E+00
  0.00000000E+00  1.60000000E+01  1.00800000E+00  1.00800000E+00  0.00000000E+00
  1.60000000E+01  1.00800000E+00  1.00800000E+00  0.00000000E+00  1.60000000E+01
  1.00800000E+00  1.00800000E+00  0.00000000E+00  1.60000000E+01  1.00800000E+00
  1.00800000E+00  0.00000000E+00  1.60000000E+01  1.00800000E+00  1.00800000E+00
  0.00000000E+00  1.60000000E+01  1.00800000E+00  1.00800000E+00  0.00000000E+00
  1.60000000E+01  1.00800000E+00  1.00800000E+00  0.00000000E+00  1.60000000E+01
  1.00800000E+00  1.00800000E+00  0.00000000E+00  1.60000000E+01  1.00800000E+00
  1.00800000E+00  0.00000000E+00  1.60000000E+01  1.00800000E+00  1.00800000E+00
  0.00000000E+00  1.60000000E+01  1.00800000E+00  1.00800000E+00  0.00000000E+00
  1.60000000E+01  1.00800000E+00  1.00800000E+00  0.00000000E+00  1.60000000E+01
  1.00800000E+00  1.00800000E+00  0.00000000E+00  1.60000000E+01  1.00800000E+00
  1.00800000E+00  0.00000000E+00  1.60000000E+01  1.00800000E+00  1.00800000E+00
  0.00000000E+00  1.60000000E+01  1.00800000E+00  1.00800000E+00  0.00000000E+00
  1.60000000E+01  1.00800000E+00  1.00800000E+00  0.00000000E+00  1.60000000E+01
  1.00800000E+00  1.00800000E+00  0.00000000E+00  1.60000000E+01  1.00800000E+00
  1.00800000E+00  0.00000000E+00  1.60000000E+01  1.00800000E+00  1.00800000E+00
  0.00000000E+00  1.60000000E+01  1.00800000E+00  1.00800000E+00  0.00000000E+00
  1.60000000E+01  1.00800000E+00  1.00800000E+00  0.00000000E+00  1.60000000E+01
  1.00800000E+00  1.00800000E+00  0.00000000E+00  1.60000000E+01  1.00800000E+00
  1.00800000E+00  0.00000000E+00  1.60000000E+01  1.00800000E+00  1.00800000E+00
  0.00000000E+00  1.60000000E+01  1.00800000E+00  1.00800000E+00  0.00000000E+00
  1.60000000E+01  1.00800000E+00  1.00800000E+00  0.00000000E+00  1.60000000E+01
  1.00800000E+00  1.00800000E+00  0.00000000E+00  1.60000000E+01  1.00800000E+00
  1.00800000E+00  0.00000000E+00  1.60000000E+01  1.00800000E+00  1.00800000E+00
  0.00000000E+00  1.60000000E+01  1.00800000E+00  1.00800000E+00  0.00000000E+00
  1.60000000E+01  1.00800000E+00  1.00800000E+00  0.00000000E+00  1.60000000E+01
  1.00800000E+00  1.00800000E+00  0.00000000E+00  1.60000000E+01  1.00800000E+00
  1.00800000E+00  0.00000000E+00  1.60000000E+01  1.00800000E+00  1.00800000E+00
  0.00000000E+00  1.60000000E+01  1.00800000E+00  1.00800000E+00  0.00000000E+00
  1.60000000E+01  1.00800000E+00  1.00800000E+00  0.00000000E+00  1.60000000E+01
  1.00800000E+00  1.00800000E+00  0.00000000E+00  1.60000000E+01  1.00800000E+00
  1.00800000E+00  0.00000000E+00  1.60000000E+01  1.00800000E+00  1.00800000E+00
  0.00000000E+00  1.60000000E+01  1.00800000E+00  1.00800000E+00  0.00000000E+00
  1.60000000E+01  1.00800000E+00  1.00800000E+00  0.00000000E+00  1.60000000E+01
  1.00800000E+00  1.00800000E+00  0.00000000E+00  1.60000000E+01  1.00800000E+00
  1.00800000E+00  0.00000000E+00  1.60000000E+01  1.00800000E+00  1.00800000E+00
  0.00000000E+00  1.60000000E+01  1.00800000E+00  1.00800000E+00  0.00000000E+00
  1.60000000E+01  1.00800000E+00  1.00800000E+00  0.00000000E+00  1.60000000E+01
  1.00800000E+00  1.00800000E+00  0.00000000E+00  1.60000000E+01  1.00800000E+00
  1.00800000E+00  0.00000000E+00  1.60000000E+01  1.00800000E+00  1.00800000E+00
  0.00000000E+00  1.60000000E+01  1.00800000E+00  1.00800000E+00  0.00000000E+00
  1.60000000E+01  1.00800000E+00  1.00800000E+00  0.00000000E+00  1.60000000E+01
  1.00800000E+00  1.00800000E+00  0.00000000E+00  1.60000000E+01  1.00800000E+00
  1.00800000E+00  0.00000000E+00  1.60000000E+01  1.00800000E+00  1.00800000E+00
  0.00000000E+00  1.60000000E+01  1.00800000E+00  1.00800000E+00  0.00000000E+00
  1.60000000E+01  1.00800000E+00  1.00800000E+00  0.00000000E+00  1.60000000E+01
  1.00800000E+00  1.00800000E+00  0.00000000E+00  1.60000000E+01  1.00800000E+00
  1.00800000E+00  0.00000000E+00  1.60000000E+01  1.00800000E+00  1.00800000E+00
  0.00000000E+00  1.60000000E+01  1.00800000E+00  1.00800000E+00  0.00000000E+00
  1.60000000E+01  1.00800000E+00  1.00800000E+00  0.00000000E+00  1.60000000E+01
  1.00800000E+00  1.00800000E+00  0.00000000E+00  1.60000000E+01  1.00800000E+00
  1.00800000E+00  0.00000000E+00  1.60000000E+01  1.00800000E+00  1.00800000E+00
  0.00000000E+00  1.60000000E+01  1.00800000E+00  1.00800000E+00  0.00000000E+00
  1.60000000E+01  1.00800000E+00  1.00800000E+00  0.00000000E+00  1.60000000E+01
  1.00800000E+00  1.00800000E+00  0.00000000E+00  1.60000000E+01  1.00800000E+00
  1.00800000E+00  0.00000000E+00  1.60000000E+01  1.00800000E+00  1.00800000E+00
  0.00000000E+00  1.60000000E+01  1.00800000E+00  1.00800000E+00  0.00000000E+00
  1.60000000E+01  1.00800000E+00  1.00800000E+00  0.00000000E+00  1.60000000E+01
  1.00800000E+00  1.00800000E+00  0.00000000E+00  1.60000000E+01  1.00800000E+00
  1.00800000E+00  0.00000000E+00  1.60000000E+01  1.00800000E+00  1.00800000E+00
  0.00000000E+00  1.60000000E+01  1.00800000E+00  1.00800000E+00  0.00000000E+00
  1.60000000E+01  1.00800000E+00  1.00800000E+00  0.00000000E+00  1.60000000E+01
  1.00800000E+00  1.00800000E+00  0.00000000E+00  1.60000000E+01  1.00800000E+00
  1.00800000E+00  0.00000000E+00  1.60000000E+01  1.00800000E+00  1.00800000E+00
  0.00000000E+00  1.60000000E+01  1.00800000E+00  1.00800000E+00  0.00000000E+00
  1.60000000E+01  1.00800000E+00  1.00800000E+00  0.00000000E+00  1.60000000E+01
  1.00800000E+00  1.00800000E+00  0.00000000E+00  1.60000000E+01  1.00800000E+00
  1.00800000E+00  0.00000000E+00  1.60000000E+01  1.00800000E+00  1.00800000E+00
  0.00000000E+00  1.60000000E+01  1.00800000E+00  1.00800000E+00  0.00000000E+00
  1.60000000E+01  1.00800000E+00  1.00800000E+00  0.00000000E+00  1.60000000E+01
  1.00800000E+00  1.00800000E+00  0.00000000E+00  1.60000000E+01  1.00800000E+00
  1.00800000E+00  0.00000000E+00  1.60000000E+01  1.00800000E+00  1.00800000E+00
  0.00000000E+00  1.60000000E+01  1.00800000E+00  1.00800000E+00  0.00000000E+00
  1.60000000E+01  1.00800000E+00  1.00800000E+00  0.00000000E+00  1.60000000E+01
  1.00800000E+00  1.00800000E+00  0.00000000E+00  1.60000000E+01  1.00800000E+00
  1.00800000E+00  0.00000000E+00  1.60000000E+01  1.00800000E+00  1.00800000E+00
  0.00000000E+00  1.60000000E+01  1.00800000E+00  1.00800000E+00  0.00000000E+00
  1.60000000E+01  1.00800000E+00  1.00800000E+00  0.00000000E+00  1.60000000E+01
  1.00800000E+00  1.00800000E+00  0.00000000E+00  1.60000000E+01  1.00800000E+00
  1.00800000E+00  0.00000000E+00  1.60000000E+01  1.00800000E+00  1.00800000E+00
  0.00000000E+00  1.60000000E+01  1.00800000E+00  1.00800000E+00  0.00000000E+00
  1.60000000E+01  1.00800000E+00  1.00800000E+00  0.00000000E+00  1.60000000E+01
  1.00800000E+00  1.00800000E+00  0.00000000E+00  1.60000000E+01  1.00800000E+00
  1.00800000E+00  0.00000000E+00  1.60000000E+01  1.00800000E+00  1.00800000E+00
  0.00000000E+00  1.60000000E+01  1.00800000E+00  1.00800000E+00  0.00000000E+00
  1.60000000E+01  1.00800000E+00  1.00800000E+00  0.00000000E+00  1.60000000E+01
  1.00800000E+00  1.00800000E+00  0.00000000E+00  1.60000000E+01  1.00800000E+00
  1.00800000E+00  0.00000000E+00  1.60000000E+01  1.00800000E+00  1.00800000E+00
  0.00000000E+00  1.60000000E+01  1.00800000E+00  1.00800000E+00  0.00000000E+00
  1.60000000E+01  1.00800000E+00  1.00800000E+00  0.00000000E+00  1.60000000E+01
  1.00800000E+00  1.00800000E+00  0.00000000E+00  1.60000000E+01  1.00800000E+00
  1.00800000E+00  0.00000000E+00  1.60000000E+01  1.00800000E+00  1.00800000E+00
  0.00000000E+00  1.60000000E+01  1.00800000E+00  1.00800000E+00  0.00000000E+00
  1.60000000E+01  1.00800000E+00  1.00800000E+00  0.00000000E+00  1.60000000E+01
  1.00800000E+00  1.00800000E+00  0.00000000E+00  1.60000000E+01  1.00800000E+00
  1.00800000E+00  0.00000000E+00  1.60000000E+01  1.00800000E+00  1.00800000E+00
  0.00000000E+00  1.60000000E+01  1.00800000E+00  1.00800000E+00  0.00000000E+00
  1.60000000E+01  1.00800000E+00  1.00800000E+00  0.00000000E+00  1.60000000E+01
  1.00800000E+00  1.00800000E+00  0.00000000E+00  1.60000000E+01  1.00800000E+00
  1.00800000E+00  0.00000000E+00  1.60000000E+01  1.00800000E+00  1.00800000E+00
  0.00000000E+00  1.60000000E+01  1.00800000E+00  1.00800000E+00  0.00000000E+00
  1.60000000E+01  1.00800000E+00  1.00800000E+00  0.00000000E+00  1.60000000E+01
  1.00800000E+00  1.00800000E+00  0.00000000E+00  1.60000000E+01  1.00800000E+00
  1.00800000E+00  0.00000000E+00  1.60000000E+01  1.00800000E+00  1.00800000E+00
  0.00000000E+00  1.60000000E+01  1.00800000E+00  1.00800000E+00  0.00000000E+00
  1.60000000E+01  1.00800000E+00  1.00800000E+00  0.00000000E+00  1.60000000E+01
  1.00800000E+00  1.00800000E+00  0.00000000E+00  1.60000000E+01  1.00800000E+00
  1.00800000E+00  0.00000000E+00  1.60000000E+01  1.00800000E+00  1.00800000E+00
  0.00000000E+00  1.60000000E+01  1.00800000E+00  1.00800000E+00  0.00000000E+00
  1.60000000E+01  1.00800000E+00  1.00800000E+00  0.00000000E+00  1.60000000E+01
  1.00800000E+00  1.00800000E+00  0.00000000E+00  1.60000000E+01  1.00800000E+00
  1.00800000E+00  0.00000000E+00  1.60000000E+01  1.00800000E+00  1.00800000E+00
  0.00000000E+00  1.60000000E+01  1.00800000E+00  1.00800000E+00  0.00000000E+00
  1.60000000E+01  1.00800000E+00  1.00800000E+00  0.00000000E+00  1.60000000E+01
  1.00800000E+00  1.00800000E+00  0.00000000E+00  1.60000000E+01  1.00800000E+00
  1.00800000E+00  0.00000000E+00  1.60000000E+01  1.00800000E+00  1.00800000E+00
  0.00000000E+00  1.60000000E+01  1.00800000E+00  1.00800000E+00  0.00000000E+00
  1.60000000E+01  1.00800000E+00  1.00800000E+00  0.00000000E+00  1.60000000E+01
  1.00800000E+00  1.00800000E+00  0.00000000E+00  1.60000000E+01  1.00800000E+00
  1.00800000E+00  0.00000000E+00  1.60000000E+01  1.00800000E+00  1.00800000E+00
  0.00000000E+00  1.60000000E+01  1.00800000E+00  1.00800000E+00  0.00000000E+00
  1.60000000E+01  1.00800000E+00  1.00800000E+00  0.00000000E+00  1.60000000E+01
  1.00800000E+00  1.00800000E+00  0.00000000E+00  1.60000000E+01  1.00800000E+00
  1.00800000E+00  0.00000000E+00  1.60000000E+01  1.00800000E+00  1.00800000E+00
  0.00000000E+00  1.60000000E+01  1.00800000E+00  1.00800000E+00  0.00000000E+00
  1.60000000E+01  1.00800000E+00  1.00800000E+00  0.00000000E+00  1.60000000E+01
  1.00800000E+00  1.00800000E+00  0.00000000E+00  1.60000000E+01  1.00800000E+00
  1.00800000E+00  0.00000000E+00  1.60000000E+01  1.00800000E+00  1.00800000E+00
  0.00000000E+00  1.60000000E+01  1.00800000E+00  1.00800000E+00  0.00000000E+00
  1.60000000E+01  1.00800000E+00  1.00800000E+00  0.00000000E+00  1.60000000E+01
  1.00800000E+00  1.00800000E+00  0.00000000E+00  1.60000000E+01  1.00800000E+00
  1.00800000E+00  0.00000000E+00  1.60000000E+01  1.00800000E+00  1.00800000E+00
  0.00000000E+00  1.60000000E+01  1.00800000E+00  1.00800000E+00  0.00000000E+00
  1.60000000E+01  1.00800000E+00  1.00800000E+00  0.00000000E+00  1.60000000E+01
  1.00800000E+00  1.00800000E+00  0.00000000E+00  1.60000000E+01  1.00800000E+00
  1.00800000E+00  0.00000000E+00  1.60000000E+01  1.00800000E+00  1.00800000E+00
  0.00000000E+00  1.60000000E+01  1.00800000E+00  1.00800000E+00  0.00000000E+00
  1.60000000E+01  1.00800000E+00  1.00800000E+00  0.00000000E+00  1.60000000E+01
  1.00800000E+00  1.00800000E+00  0.00000000E+00  1.60000000E+01  1.00800000E+00
  1.00800000E+00  0.00000000E+00  1.60000000E+01  1.00800000E+00  1.00800000E+00
  0.00000000E+00  1.60000000E+01  1.00800000E+00  1.00800000E+00  0.00000000E+00
  1.60000000E+01  1.00800000E+00  1.00800000E+00  0.00000000E+00  1.60000000E+01
  1.00800000E+00  1.00800000E+00  0.00000000E+00  1.60000000E+01  1.00800000E+00
  1.00800000E+00  0.00000000E+00  1.60000000E+01  1.00800000E+00  1.00800000E+00
  0.00000000E+00  1.60000000E+01  1.00800000E+00  1.00800000E+00  0.00000000E+00
  1.60000000E+01  1.00800000E+00  1.00800000E+00  0.00000000E+00  1.60000000E+01
  1.00800000E+00  1.00800000E+00  0.00000000E+00  1.60000000E+01  1.00800000E+00
  1.00800000E+00  0.00000000E+00  1.60000000E+01  1.00800000E+00  1.00800000E+00
  0.00000000E+00  1.60000000E+01  1.00800000E+00  1.00800000E+00  0.00000000E+00
  1.60000000E+01  1.00800000E+00  1.00800000E+00  0.00000000E+00  1.60000000E+01
  1.00800000E+00  1.00800000E+00  0.00000000E+00  1.60000000E+01  1.00800000E+00
  1.00800000E+00  0.00000000E+00  1.60000000E+01  1.00800000E+00  1.00800000E+00
  0.00000000E+00  1.60000000E+01  1.00800000E+00  1.00800000E+00  0.00000000E+00
  1.60000000E+01  1.00800000E+00  1.00800000E+00  0.00000000E+00  1.60000000E+01
  1.00800000E+00  1.00800000E+00  0.00000000E+00  1.60000000E+01  1.00800000E+00
  1.00800000E+00  0.00000000E+00  1.60000000E+01  1.00800000E+00  1.00800000E+00
  0.00000000E+00  1.60000000E+01  1.00800000E+00  1.00800000E+00  0.00000000E+00
  1.60000000E+01  1.00800000E+00  1.00800000E+00  0.00000000E+00  1.60000000E+01
  1.00800000E+00  1.00800000E+00  0.00000000E+00  1.60000000E+01  1.00800000E+00
  1.00800000E+00  0.00000000E+00  1.60000000E+01  1.00800000E+00  1.00800000E+00
  0.00000000E+00  1.60000000E+01  1.00800000E+00  1.00800000E+00  0.00000000E+00
  1.60000000E+01  1.00800000E+00  1.00800000E+00  0.00000000E+00  1.60000000E+01
  1.00800000E+00  1.00800000E+00  0.00000000E+00  1.60000000E+01  1.00800000E+00
  1.00800000E+00  0.00000000E+00  1.60000000E+01  1.00800000E+00  1.00800000E+00
  0.00000000E+00  1.60000000E+01  1.00800000E+00  1.00800000E+00  0.00000000E+00
  1.60000000E+01  1.00800000E+00  1.00800000E+00  0.00000000E+00  1.60000000E+01
  1.00800000E+00  1.00800000E+00  0.00000000E+00  1.60000000E+01  1.00800000E+00
  1.00800000E+00  0.00000000E+00  1.60000000E+01  1.00800000E+00  1.00800000E+00
  0.00000000E+00  1.60000000E+01  1.00800000E+00  1.00800000E+00  0.00000000E+00
  1.60000000E+01  1.00800000E+00  1.00800000E+00  0.00000000E+00  1.60000000E+01
  1.00800000E+00  1.00800000E+00  0.00000000E+00  1.60000000E+01  1.00800000E+00
  1.00800000E+00  0.00000000E+00  1.60000000E+01  1.00800000E+00  1.00800000E+00
  0.00000000E+00  1.60000000E+01  1.00800000E+00  1.00800000E+00  0.00000000E+00
  1.60000000E+01  1.00800000E+00  1.00800000E+00  0.00000000E+00  1.60000000E+01
  1.00800000E+00  1.00800000E+00  0.00000000E+00  1.60000000E+01  1.00800000E+00
  1.00800000E+00  0.00000000E+00  1.60000000E+01  1.00800000E+00  1.00800000E+00
  0.00000000E+00  1.60000000E+01  1.00800000E+00  1.00800000E+00  0.00000000E+00
  1.60000000E+01  1.00800000E+00  1.00800000E+00  0.00000000E+00  1.60000000E+01
  1.00800000E+00  1.00800000E+00  0.00000000E+00  1.60000000E+01  1.00800000E+00
  1.00800000E+00  0.00000000E+00  1.60000000E+01  1.00800000E+00  1.00800000E+00
  0.00000000E+00  1.60000000E+01  1.00800000E+00  1.00800000E+00  0.00000000E+00
  1.60000000E+01  1.00800000E+00  1.00800000E+00  0.00000000E+00  1.60000000E+01
  1.00800000E+00  1.00800000E+00  0.00000000E+00  1.60000000E+01  1.00800000E+00
  1.00800000E+00  0.00000000E+00  1.60000000E+01  1.00800000E+00  1.00800000E+00
  0.00000000E+00  1.60000000E+01  1.00800000E+00  1.00800000E+00  0.00000000E+00
  1.60000000E+01  1.00800000E+00  1.00800000E+00  0.00000000E+00  1.60000000E+01
  1.00800000E+00  1.00800000E+00  0.00000000E+00  1.60000000E+01  1.00800000E+00
  1.00800000E+00  0.00000000E+00  1.60000000E+01  1.00800000E+00  1.00800000E+00
  0.00000000E+00  1.60000000E+01  1.00800000E+00  1.00800000E+00  0.00000000E+00
  1.60000000E+01  1.00800000E+00  1.00800000E+00  0.00000000E+00  1.60000000E+01
  1.00800000E+00  1.00800000E+00  0.00000000E+00  1.60000000E+01  1.00800000E+00
  1.00800000E+00  0.00000000E+00  1.60000000E+01  1.00800000E+00  1.00800000E+00
  0.00000000E+00  1.60000000E+01  1.00800000E+00  1.00800000E+00  0.00000000E+00
  1.60000000E+01  1.00800000E+00  1.00800000E+00  0.00000000E+00  1.60000000E+01
  1.00800000E+00  1.00800000E+00  0.00000000E+00  1.60000000E+01  1.00800000E+00
  1.00800000E+00  0.00000000E+00  1.60000000E+01  1.00800000E+00  1.00800000E+00
  0.00000000E+00  1.60000000E+01  1.00800000E+00  1.00800000E+00  0.00000000E+00
  1.60000000E+01  1.00800000E+00  1.00800000E+00  0.00000000E+00  1.60000000E+01
  1.00800000E+00  1.00800000E+00  0.00000000E+00  1.60000000E+01  1.00800000E+00
  1.00800000E+00  0.00000000E+00  1.60000000E+01  1.00800000E+00  1.00800000E+00
  0.00000000E+00  1.60000000E+01  1.00800000E+00  1.00800000E+00  0.00000000E+00
  1.60000000E+01  1.00800000E+00  1.00800000E+00  0.00000000E+00  1.60000000E+01
  1.00800000E+00  1.00800000E+00  0.00000000E+00  1.60000000E+01  1.00800000E+00
  1.00800000E+00  0.00000000E+00  1.60000000E+01  1.00800000E+00  1.00800000E+00
  0.00000000E+00  1.60000000E+01  1.00800000E+00  1.00800000E+00  0.00000000E+00
  1.60000000E+01  1.00800000E+00  1.00800000E+00  0.00000000E+00  1.60000000E+01
  1.00800000E+00  1.00800000E+00  0.00000000E+00  1.60000000E+01  1.00800000E+00
  1.00800000E+00  0.00000000E+00  1.60000000E+01  1.00800000E+00  1.00800000E+00
  0.00000000E+00  1.60000000E+01  1.00800000E+00  1.00800000E+00  0.00000000E+00
  1.60000000E+01  1.00800000E+00  1.00800000E+00  0.00000000E+00  1.60000000E+01
  1.00800000E+00  1.00800000E+00  0.00000000E+00  1.60000000E+01  1.00800000E+00
  1.00800000E+00  0.00000000E+00  1.60000000E+01  1.00800000E+00  1.00800000E+00
  0.00000000E+00  1.60000000E+01  1.00800000E+00  1.00800000E+00  0.00000000E+00
  1.60000000E+01  1.00800000E+00  1.00800000E+00  0.00000000E+00  1.60000000E+01
  1.00800000E+00  1.00800000E+00  0.00000000E+00  1.60000000E+01  1.00800000E+00
  1.00800000E+00  0.00000000E+00  1.60000000E+01  1.00800000E+00  1.00800000E+00
  0.00000000E+00  1.60000000E+01  1.00800000E+00  1.00800000E+00  0.00000000E+00
  1.60000000E+01  1.00800000E+00  1.00800000E+00  0.00000000E+00  1.60000000E+01
  1.00800000E+00  1.00800000E+00  0.00000000E+00  1.60000000E+01  1.00800000E+00
  1.00800000E+00  0.00000000E+00  1.60000000E+01  1.00800000E+00  1.00800000E+00
  0.00000000E+00  1.60000000E+01  1.00800000E+00  1.00800000E+00  0.00000000E+00
  1.60000000E+01  1.00800000E+00  1.00800000E+00  0.00000000E+00  1.60000000E+01
  1.00800000E+00  1.00800000E+00  0.00000000E+00  1.60000000E+01  1.00800000E+00
  1.00800000E+00  0.00000000E+00  1.60000000E+01  1.00800000E+00  1.00800000E+00
  0.00000000E+00  1.60000000E+01  1.00800000E+00  1.00800000E+00  0.00000000E+00
  1.60000000E+01  1.00800000E+00  1.00800000E+00  0.00000000E+00  1.60000000E+01
  1.00800000E+00  1.00800000E+00  0.00000000E+00  1.60000000E+01  1.00800000E+00
  1.00800000E+00  0.00000000E+00  1.60000000E+01  1.00800000E+00  1.00800000E+00
  0.00000000E+00  1.60000000E+01  1.00800000E+00  1.00800000E+00  0.00000000E+00
  1.60000000E+01  1.00800000E+00  1.00800000E+00  0.00000000E+00  1.60000000E+01
  1.00800000E+00  1.00800000E+00  0.00000000E+00  1.60000000E+01  1.00800000E+00
  1.00800000E+00  0.00000000E+00  1.60000000E+01  1.00800000E+00  1.00800000E+00
  0.00000000E+00  1.60000000E+01  1.00800000E+00  1.00800000E+00  0.00000000E+00
  1.60000000E+01  1.00800000E+00  1.00800000E+00  0.00000000E+00  1.60000000E+01
  1.00800000E+00  1.00800000E+00  0.00000000E+00  1.60000000E+01  1.00800000E+00
  1.00800000E+00  0.00000000E+00  1.60000000E+01  1.00800000E+00  1.00800000E+00
  0.00000000E+00  1.60000000E+01  1.00800000E+00  1.00800000E+00  0.00000000E+00
  1.60000000E+01  1.00800000E+00  1.00800000E+00  0.00000000E+00  1.60000000E+01
  1.00800000E+00  1.00800000E+00  0.00000000E+00  1.60000000E+01  1.00800000E+00
  1.00800000E+00  0.00000000E+00  1.60000000E+01  1.00800000E+00  1.00800000E+00
  0.00000000E+00  1.60000000E+01  1.00800000E+00  1.00800000E+00  0.00000000E+00
  1.60000000E+01  1.00800000E+00  1.00800000E+00  0.00000000E+00  1.60000000E+01
  1.00800000E+00  1.00800000E+00  0.00000000E+00  1.60000000E+01  1.00800000E+00
  1.00800000E+00  0.00000000E+00  1.60000000E+01  1.00800000E+00  1.00800000E+00
  0.00000000E+00  1.60000000E+01  1.00800000E+00  1.00800000E+00  0.00000000E+00
  1.60000000E+01  1.00800000E+00  1.00800000E+00  0.00000000E+00  1.60000000E+01
  1.00800000E+00  1.00800000E+00  0.00000000E+00  1.60000000E+01  1.00800000E+00
  1.00800000E+00  0.00000000E+00  1.60000000E+01  1.00800000E+00  1.00800000E+00
  0.00000000E+00  1.60000000E+01  1.00800000E+00  1.00800000E+00  0.00000000E+00
  1.60000000E+01  1.00800000E+00  1.00800000E+00  0.00000000E+00  1.60000000E+01
  1.00800000E+00  1.00800000E+00  0.00000000E+00  1.60000000E+01  1.00800000E+00
  1.00800000E+00  0.00000000E+00  1.60000000E+01  1.00800000E+00  1.00800000E+00
  0.00000000E+00  1.60000000E+01  1.00800000E+00  1.00800000E+00  0.00000000E+00
  1.60000000E+01  1.00800000E+00  1.00800000E+00  0.00000000E+00  1.60000000E+01
  1.00800000E+00  1.00800000E+00  0.00000000E+00  1.60000000E+01  1.00800000E+00
  1.00800000E+00  0.00000000E+00  1.60000000E+01  1.00800000E+00  1.00800000E+00
  0.00000000E+00  1.60000000E+01  1.00800000E+00  1.00800000E+00  0.00000000E+00
  1.60000000E+01  1.00800000E+00  1.00800000E+00  0.00000000E+00  1.60000000E+01
  1.00800000E+00  1.00800000E+00  0.00000000E+00  1.60000000E+01  1.00800000E+00
  1.00800000E+00  0.00000000E+00  1.60000000E+01  1.00800000E+00  1.00800000E+00
  0.00000000E+00  1.60000000E+01  1.00800000E+00  1.00800000E+00  0.00000000E+00
  1.60000000E+01  1.00800000E+00  1.00800000E+00  0.00000000E+00  1.60000000E+01
  1.00800000E+00  1.00800000E+00  0.00000000E+00  1.60000000E+01  1.00800000E+00
  1.00800000E+00  0.00000000E+00  1.60000000E+01  1.00800000E+00  1.00800000E+00
  0.00000000E+00  1.60000000E+01  1.00800000E+00  1.00800000E+00  0.00000000E+00
  1.60000000E+01  1.00800000E+00  1.00800000E+00  0.00000000E+00  1.60000000E+01
  1.00800000E+00  1.00800000E+00  0.00000000E+00  1.60000000E+01  1.00800000E+00
  1.00800000E+00  0.00000000E+00  1.60000000E+01  1.00800000E+00  1.00800000E+00
  0.00000000E+00  1.60000000E+01  1.00800000E+00  1.00800000E+00  0.00000000E+00
  1.60000000E+01  1.00800000E+00  1.00800000E+00  0.00000000E+00  1.60000000E+01
  1.00800000E+00  1.00800000E+00  0.00000000E+00  1.60000000E+01  1.00800000E+00
  1.00800000E+00  0.00000000E+00  1.60000000E+01  1.00800000E+00  1.00800000E+00
  0.00000000E+00  1.60000000E+01  1.00800000E+00  1.00800000E+00  0.00000000E+00
  1.60000000E+01  1.00800000E+00  1.00800000E+00  0.00000000E+00  1.60000000E+01
  1.00800000E+00  1.00800000E+00  0.00000000E+00  1.60000000E+01  1.00800000E+00
  1.00800000E+00  0.00000000E+00  1.60000000E+01  1.00800000E+00  1.00800000E+00
  0.00000000E+00  1.60000000E+01  1.00800000E+00  1.00800000E+00  0.00000000E+00
  1.60000000E+01  1.00800000E+00  1.00800000E+00  0.00000000E+00  1.60000000E+01
  1.00800000E+00  1.00800000E+00  0.00000000E+00  1.60000000E+01  1.00800000E+00
  1.00800000E+00  0.00000000E+00  1.60000000E+01  1.00800000E+00  1.00800000E+00
  0.00000000E+00  1.60000000E+01  1.00800000E+00  1.00800000E+00  0.00000000E+00
  1.60000000E+01  1.00800000E+00  1.00800000E+00  0.00000000E+00  1.60000000E+01
  1.00800000E+00  1.00800000E+00  0.00000000E+00  1.60000000E+01  1.00800000E+00
  1.00800000E+00  0.00000000E+00  1.60000000E+01  1.00800000E+00  1.00800000E+00
  0.00000000E+00  1.60000000E+01  1.00800000E+00  1.00800000E+00  0.00000000E+00
  1.60000000E+01  1.00800000E+00  1.00800000E+00  0.00000000E+00  1.60000000E+01
  1.00800000E+00  1.00800000E+00  0.00000000E+00  1.60000000E+01  1.00800000E+00
  1.00800000E+00  0.00000000E+00  1.60000000E+01  1.00800000E+00  1.00800000E+00
  0.00000000E+00  1.60000000E+01  1.00800000E+00  1.00800000E+00  0.00000000E+00
  1.60000000E+01  1.00800000E+00  1.00800000E+00  0.00000000E+00  1.60000000E+01
  1.00800000E+00  1.00800000E+00  0.00000000E+00  1.60000000E+01  1.00800000E+00
  1.00800000E+00  0.00000000E+00  1.60000000E+01  1.00800000E+00  1.00800000E+00
  0.00000000E+00  1.60000000E+01  1.00800000E+00  1.00800000E+00  0.00000000E+00
  1.60000000E+01  1.00800000E+00  1.00800000E+00  0.00000000E+00  1.60000000E+01
  1.00800000E+00  1.00800000E+00  0.00000000E+00  1.60000000E+01  1.00800000E+00
  1.00800000E+00  0.00000000E+00  1.60000000E+01  1.00800000E+00  1.00800000E+00
  0.00000000E+00  1.60000000E+01  1.00800000E+00  1.00800000E+00  0.00000000E+00
  1.60000000E+01  1.00800000E+00  1.00800000E+00  0.00000000E+00  1.60000000E+01
  1.00800000E+00  1.00800000E+00  0.00000000E+00  1.60000000E+01  1.00800000E+00
  1.00800000E+00  0.00000000E+00  1.60000000E+01  1.00800000E+00  1.00800000E+00
  0.00000000E+00  1.60000000E+01  1.00800000E+00  1.00800000E+00  0.00000000E+00
  1.60000000E+01  1.00800000E+00  1.00800000E+00  0.00000000E+00  1.60000000E+01
  1.00800000E+00  1.00800000E+00  0.00000000E+00  1.60000000E+01  1.00800000E+00
  1.00800000E+00  0.00000000E+00  1.60000000E+01  1.00800000E+00  1.00800000E+00
  0.00000000E+00  1.60000000E+01  1.00800000E+00  1.00800000E+00  0.00000000E+00
  1.60000000E+01  1.00800000E+00  1.00800000E+00  0.00000000E+00  1.60000000E+01
  1.00800000E+00  1.00800000E+00  0.00000000E+00  1.60000000E+01  1.00800000E+00
  1.00800000E+00  0.00000000E+00  1.60000000E+01  1.00800000E+00  1.00800000E+00
  0.00000000E+00  1.60000000E+01  1.00800000E+00  1.00800000E+00  0.00000000E+00
  1.60000000E+01  1.00800000E+00  1.00800000E+00  0.00000000E+00  1.60000000E+01
  1.00800000E+00  1.00800000E+00  0.00000000E+00  1.60000000E+01  1.00800000E+00
  1.00800000E+00  0.00000000E+00  1.60000000E+01  1.00800000E+00  1.00800000E+00
  0.00000000E+00  1.60000000E+01  1.00800000E+00  1.00800000E+00  0.00000000E+00
  1.60000000E+01  1.00800000E+00  1.00800000E+00  0.00000000E+00  1.60000000E+01
  1.00800000E+00  1.00800000E+00  0.00000000E+00  1.60000000E+01  1.00800000E+00
  1.00800000E+00  0.00000000E+00  1.60000000E+01  1.00800000E+00  1.00800000E+00
  0.00000000E+00  1.60000000E+01  1.00800000E+00  1.00800000E+00  0.00000000E+00
  1.60000000E+01  1.00800000E+00  1.00800000E+00  0.00000000E+00  1.60000000E+01
  1.00800000E+00  1.00800000E+00  0.00000000E+00  1.60000000E+01  1.00800000E+00
  1.00800000E+00  0.00000000E+00  1.60000000E+01  1.00800000E+00  1.00800000E+00
  0.00000000E+00  1.60000000E+01  1.00800000E+00  1.00800000E+00  0.00000000E+00
  1.60000000E+01  1.00800000E+00  1.00800000E+00  0.00000000E+00  1.60000000E+01
  1.00800000E+00  1.00800000E+00  0.00000000E+00  1.60000000E+01  1.00800000E+00
  1.00800000E+00  0.00000000E+00  1.60000000E+01  1.00800000E+00  1.00800000E+00
  0.00000000E+00  1.60000000E+01  1.00800000E+00  1.00800000E+00  0.00000000E+00
  1.60000000E+01  1.00800000E+00  1.00800000E+00  0.00000000E+00  1.60000000E+01
  1.00800000E+00  1.00800000E+00  0.00000000E+00  1.60000000E+01  1.00800000E+00
  1.00800000E+00  0.00000000E+00  1.60000000E+01  1.00800000E+00  1.00800000E+00
  0.00000000E+00  1.60000000E+01  1.00800000E+00  1.00800000E+00  0.00000000E+00
  1.60000000E+01  1.00800000E+00  1.00800000E+00  0.00000000E+00  1.60000000E+01
  1.00800000E+00  1.00800000E+00  0.00000000E+00  1.60000000E+01  1.00800000E+00
  1.00800000E+00  0.00000000E+00  1.60000000E+01  1.00800000E+00  1.00800000E+00
  0.00000000E+00  1.60000000E+01  1.00800000E+00  1.00800000E+00  0.00000000E+00
  1.60000000E+01  1.00800000E+00  1.00800000E+00  0.00000000E+00  1.60000000E+01
  1.00800000E+00  1.00800000E+00  0.00000000E+00  1.60000000E+01  1.00800000E+00
  1.00800000E+00  0.00000000E+00  1.60000000E+01  1.00800000E+00  1.00800000E+00
  0.00000000E+00  1.60000000E+01  1.00800000E+00  1.00800000E+00  0.00000000E+00
  1.60000000E+01  1.00800000E+00  1.00800000E+00  0.00000000E+00  1.60000000E+01
  1.00800000E+00  1.00800000E+00  0.00000000E+00  1.60000000E+01  1.00800000E+00
  1.00800000E+00  0.00000000E+00  1.60000000E+01  1.00800000E+00  1.00800000E+00
  0.00000000E+00  1.60000000E+01  1.00800000E+00  1.00800000E+00  0.00000000E+00
  1.60000000E+01  1.00800000E+00  1.00800000E+00  0.00000000E+00  1.60000000E+01
  1.00800000E+00  1.00800000E+00  0.00000000E+00  1.60000000E+01  1.00800000E+00
  1.00800000E+00  0.00000000E+00  1.60000000E+01  1.00800000E+00  1.00800000E+00
  0.00000000E+00  1.60000000E+01  1.00800000E+00  1.00800000E+00  0.00000000E+00
  1.60000000E+01  1.00800000E+00  1.00800000E+00  0.00000000E+00  1.60000000E+01
  1.00800000E+00  1.00800000E+00  0.00000000E+00  1.60000000E+01  1.00800000E+00
  1.00800000E+00  0.00000000E+00  1.60000000E+01  1.00800000E+00  1.00800000E+00
  0.00000000E+00  1.60000000E+01  1.00800000E+00  1.00800000E+00  0.00000000E+00
  1.60000000E+01  1.00800000E+00  1.00800000E+00  0.00000000E+00  1.60000000E+01
  1.00800000E+00  1.00800000E+00  0.00000000E+00  1.60000000E+01  1.00800000E+00
  1.00800000E+00  0.00000000E+00  1.60000000E+01  1.00800000E+00  1.00800000E+00
  0.00000000E+00  1.60000000E+01  1.00800000E+00  1.00800000E+00  0.00000000E+00
  1.60000000E+01  1.00800000E+00  1.00800000E+00  0.00000000E+00  1.60000000E+01
  1.00800000E+00  1.00800000E+00  0.00000000E+00  1.60000000E+01  1.00800000E+00
  1.00800000E+00  0.00000000E+00  1.60000000E+01  1.00800000E+00  1.00800000E+00
  0.00000000E+00  1.60000000E+01  1.00800000E+00  1.00800000E+00  0.00000000E+00
  1.60000000E+01  1.00800000E+00  1.00800000E+00  0.00000000E+00  1.60000000E+01
  1.00800000E+00  1.00800000E+00  0.00000000E+00  1.60000000E+01  1.00800000E+00
  1.00800000E+00  0.00000000E+00  1.60000000E+01  1.00800000E+00  1.00800000E+00
  0.00000000E+00  1.60000000E+01  1.00800000E+00  1.00800000E+00  0.00000000E+00
  1.60000000E+01  1.00800000E+00  1.00800000E+00  0.00000000E+00  1.60000000E+01
  1.00800000E+00  1.00800000E+00  0.00000000E+00  1.60000000E+01  1.00800000E+00
  1.00800000E+00  0.00000000E+00  1.60000000E+01  1.00800000E+00  1.00800000E+00
  0.00000000E+00  1.60000000E+01  1.00800000E+00  1.00800000E+00  0.00000000E+00
  1.60000000E+01  1.00800000E+00  1.00800000E+00  0.00000000E+00  1.60000000E+01
  1.00800000E+00  1.00800000E+00  0.00000000E+00  1.60000000E+01  1.00800000E+00
  1.00800000E+00  0.00000000E+00  1.60000000E+01  1.00800000E+00  1.00800000E+00
  0.00000000E+00  1.60000000E+01  1.00800000E+00  1.00800000E+00  0.00000000E+00
  1.60000000E+01  1.00800000E+00  1.00800000E+00  0.00000000E+00  1.60000000E+01
  1.00800000E+00  1.00800000E+00  0.00000000E+00  1.60000000E+01  1.00800000E+00
  1.00800000E+00  0.00000000E+00  1.60000000E+01  1.00800000E+00  1.00800000E+00
  0.00000000E+00  1.60000000E+01  1.00800000E+00  1.00800000E+00  0.00000000E+00
  1.60000000E+01  1.00800000E+00  1.00800000E+00  0.00000000E+00  1.60000000E+01
  1.00800000E+00  1.00800000E+00  0.00000000E+00  1.60000000E+01  1.00800000E+00
  1.00800000E+00  0.00000000E+00  1.60000000E+01  1.00800000E+00  1.00800000E+00
  0.00000000E+00  1.60000000E+01  1.00800000E+00  1.00800000E+00  0.00000000E+00
  1.60000000E+01  1.00800000E+00  1.00800000E+00  0.00000000E+00  1.60000000E+01
  1.00800000E+00  1.00800000E+00  0.00000000E+00  1.60000000E+01  1.00800000E+00
  1.00800000E+00  0.00000000E+00  1.60000000E+01  1.00800000E+00  1.00800000E+00
  0.00000000E+00  1.60000000E+01  1.00800000E+00  1.00800000E+00  0.00000000E+00
  1.60000000E+01  1.00800000E+00  1.00800000E+00  0.00000000E+00  1.60000000E+01
  1.00800000E+00  1.00800000E+00  0.00000000E+00  1.60000000E+01  1.00800000E+00
  1.00800000E+00  0.00000000E+00  1.60000000E+01  1.00800000E+00  1.00800000E+00
  0.00000000E+00  1.60000000E+01  1.00800000E+00  1.00800000E+00  0.00000000E+00
  1.60000000E+01  1.00800000E+00  1.00800000E+00  0.00000000E+00  1.60000000E+01
  1.00800000E+00  1.00800000E+00  0.00000000E+00  1.60000000E+01  1.00800000E+00
  1.00800000E+00  0.00000000E+00  1.60000000E+01  1.00800000E+00  1.00800000E+00
  0.00000000E+00  1.60000000E+01  1.00800000E+00  1.00800000E+00  0.00000000E+00
  1.60000000E+01  1.00800000E+00  1.00800000E+00  0.00000000E+00  1.60000000E+01
  1.00800000E+00  1.00800000E+00  0.00000000E+00  1.60000000E+01  1.00800000E+00
  1.00800000E+00  0.00000000E+00  1.60000000E+01  1.00800000E+00  1.00800000E+00
  0.00000000E+00  1.60000000E+01  1.00800000E+00  1.00800000E+00  0.00000000E+00
  1.60000000E+01  1.00800000E+00  1.00800000E+00  0.00000000E+00  1.60000000E+01
  1.00800000E+00  1.00800000E+00  0.00000000E+00  1.60000000E+01  1.00800000E+00
  1.00800000E+00  0.00000000E+00  1.60000000E+01  1.00800000E+00  1.00800000E+00
  0.00000000E+00  1.60000000E+01  1.00800000E+00  1.00800000E+00  0.00000000E+00
  1.60000000E+01  1.00800000E+00  1.00800000E+00  0.00000000E+00  1.60000000E+01
  1.00800000E+00  1.00800000E+00  0.00000000E+00  1.60000000E+01  1.00800000E+00
  1.00800000E+00  0.00000000E+00  1.60000000E+01  1.00800000E+00  1.00800000E+00
  0.00000000E+00  1.60000000E+01  1.00800000E+00  1.00800000E+00  0.00000000E+00
  1.60000000E+01  1.00800000E+00  1.00800000E+00  0.00000000E+00  1.60000000E+01
  1.00800000E+00  1.00800000E+00  0.00000000E+00  1.60000000E+01  1.00800000E+00
  1.00800000E+00  0.00000000E+00  1.60000000E+01  1.00800000E+00  1.00800000E+00
  0.00000000E+00  1.60000000E+01  1.00800000E+00  1.00800000E+00  0.00000000E+00
  1.60000000E+01  1.00800000E+00  1.00800000E+00  0.00000000E+00  1.60000000E+01
  1.00800000E+00  1.00800000E+00  0.00000000E+00  1.60000000E+01  1.00800000E+00
  1.00800000E+00  0.00000000E+00  1.60000000E+01  1.00800000E+00  1.00800000E+00
  0.00000000E+00  1.60000000E+01  1.00800000E+00  1.00800000E+00  0.00000000E+00
  1.60000000E+01  1.00800000E+00  1.00800000E+00  0.00000000E+00  1.60000000E+01
  1.00800000E+00  1.00800000E+00  0.00000000E+00  1.60000000E+01  1.00800000E+00
  1.00800000E+00  0.00000000E+00  1.60000000E+01  1.00800000E+00  1.00800000E+00
  0.00000000E+00  1.60000000E+01  1.00800000E+00  1.00800000E+00  0.00000000E+00
  1.60000000E+01  1.00800000E+00  1.00800000E+00  0.00000000E+00  1.60000000E+01
  1.00800000E+00  1.00800000E+00  0.00000000E+00  1.60000000E+01  1.00800000E+00
  1.00800000E+00  0.00000000E+00  1.60000000E+01  1.00800000E+00  1.00800000E+00
  0.00000000E+00  1.60000000E+01  1.00800000E+00  1.00800000E+00  0.00000000E+00
  1.60000000E+01  1.00800000E+00  1.00800000E+00  0.00000000E+00  1.60000000E+01
  1.00800000E+00  1.00800000E+00  0.00000000E+00  1.60000000E+01  1.00800000E+00
  1.00800000E+00  0.00000000E+00  1.60000000E+01  1.00800000E+00  1.00800000E+00
  0.00000000E+00  1.60000000E+01  1.00800000E+00  1.00800000E+00  0.00000000E+00
  1.60000000E+01  1.00800000E+00  1.00800000E+00  0.00000000E+00  1.60000000E+01
  1.00800000E+00  1.00800000E+00  0.00000000E+00  1.60000000E+01  1.00800000E+00
  1.00800000E+00  0.00000000E+00  1.60000000E+01  1.00800000E+00  1.00800000E+00
  0.00000000E+00  1.60000000E+01  1.00800000E+00  1.00800000E+00  0.00000000E+00
  1.60000000E+01  1.00800000E+00  1.00800000E+00  0.00000000E+00  1.60000000E+01
  1.00800000E+00  1.00800000E+00  0.00000000E+00  1.60000000E+01  1.00800000E+00
  1.00800000E+00  0.00000000E+00  1.60000000E+01  1.00800000E+00  1.00800000E+00
  0.00000000E+00  1.60000000E+01  1.00800000E+00  1.00800000E+00  0.00000000E+00
  1.60000000E+01  1.00800000E+00  1.00800000E+00  0.00000000E+00  1.60000000E+01
  1.00800000E+00  1.00800000E+00  0.00000000E+00  1.60000000E+01  1.00800000E+00
  1.00800000E+00  0.00000000E+00  1.60000000E+01  1.00800000E+00  1.00800000E+00
  0.00000000E+00  1.60000000E+01  1.00800000E+00  1.00800000E+00  0.00000000E+00
  1.60000000E+01  1.00800000E+00  1.00800000E+00  0.00000000E+00  1.60000000E+01
  1.00800000E+00  1.00800000E+00  0.00000000E+00  1.60000000E+01  1.00800000E+00
  1.00800000E+00  0.00000000E+00  1.60000000E+01  1.00800000E+00  1.00800000E+00
  0.00000000E+00  1.60000000E+01  1.00800000E+00  1.00800000E+00  0.00000000E+00
  1.60000000E+01  1.00800000E+00  1.00800000E+00  0.00000000E+00  1.60000000E+01
  1.00800000E+00  1.00800000E+00  0.00000000E+00  1.60000000E+01  1.00800000E+00
  1.00800000E+00  0.00000000E+00  1.60000000E+01  1.00800000E+00  1.00800000E+00
  0.00000000E+00  1.60000000E+01  1.00800000E+00  1.00800000E+00  0.00000000E+00
  1.60000000E+01  1.00800000E+00  1.00800000E+00  0.00000000E+00  1.60000000E+01
  1.00800000E+00  1.00800000E+00  0.00000000E+00  1.60000000E+01  1.00800000E+00
  1.00800000E+00  0.00000000E+00  1.60000000E+01  1.00800000E+00  1.00800000E+00
  0.00000000E+00  1.60000000E+01  1.00800000E+00  1.00800000E+00  0.00000000E+00
  1.60000000E+01  1.00800000E+00  1.00800000E+00  0.00000000E+00  1.60000000E+01
  1.00800000E+00  1.00800000E+00  0.00000000E+00  1.60000000E+01  1.00800000E+00
  1.00800000E+00  0.00000000E+00  1.60000000E+01  1.00800000E+00  1.00800000E+00
  0.00000000E+00  1.60000000E+01  1.00800000E+00  1.00800000E+00  0.00000000E+00
  1.60000000E+01  1.00800000E+00  1.00800000E+00  0.00000000E+00  1.60000000E+01
  1.00800000E+00  1.00800000E+00  0.00000000E+00  1.60000000E+01  1.00800000E+00
  1.00800000E+00  0.00000000E+00  1.60000000E+01  1.00800000E+00  1.00800000E+00
  0.00000000E+00  1.60000000E+01  1.00800000E+00  1.00800000E+00  0.00000000E+00
  1.60000000E+01  1.00800000E+00  1.00800000E+00  0.00000000E+00  1.60000000E+01
  1.00800000E+00  1.00800000E+00  0.00000000E+00  1.60000000E+01  1.00800000E+00
  1.00800000E+00  0.00000000E+00  1.60000000E+01  1.00800000E+00  1.00800000E+00
  0.00000000E+00  1.60000000E+01  1.00800000E+00  1.00800000E+00  0.00000000E+00
  1.60000000E+01  1.00800000E+00  1.00800000E+00  0.00000000E+00  1.60000000E+01
  1.00800000E+00  1.00800000E+00  0.00000000E+00  1.60000000E+01  1.00800000E+00
  1.00800000E+00  0.00000000E+00  1.60000000E+01  1.00800000E+00  1.00800000E+00
  0.00000000E+00  1.60000000E+01  1.00800000E+00  1.00800000E+00  0.00000000E+00
  1.60000000E+01  1.00800000E+00  1.00800000E+00  0.00000000E+00  1.60000000E+01
  1.00800000E+00  1.00800000E+00  0.00000000E+00  1.60000000E+01  1.00800000E+00
  1.00800000E+00  0.00000000E+00  1.60000000E+01  1.00800000E+00  1.00800000E+00
  0.00000000E+00  1.60000000E+01  1.00800000E+00  1.00800000E+00  0.00000000E+00
  1.60000000E+01  1.00800000E+00  1.00800000E+00  0.00000000E+00  1.60000000E+01
  1.00800000E+00  1.00800000E+00  0.00000000E+00  1.60000000E+01  1.00800000E+00
  1.00800000E+00  0.00000000E+00  1.60000000E+01  1.00800000E+00  1.00800000E+00
  0.00000000E+00  1.60000000E+01  1.00800000E+00  1.00800000E+00  0.00000000E+00
  1.60000000E+01  1.00800000E+00  1.00800000E+00  0.00000000E+00  1.60000000E+01
  1.00800000E+00  1.00800000E+00  0.00000000E+00  1.60000000E+01  1.00800000E+00
  1.00800000E+00  0.00000000E+00  1.60000000E+01  1.00800000E+00  1.00800000E+00
  0.00000000E+00  1.60000000E+01  1.00800000E+00  1.00800000E+00  0.00000000E+00
  1.60000000E+01  1.00800000E+00  1.00800000E+00  0.00000000E+00  1.60000000E+01
  1.00800000E+00  1.00800000E+00  0.00000000E+00  1.60000000E+01  1.00800000E+00
  1.00800000E+00  0.00000000E+00  1.60000000E+01  1.00800000E+00  1.00800000E+00
  0.00000000E+00  1.60000000E+01  1.00800000E+00  1.00800000E+00  0.00000000E+00
  1.60000000E+01  1.00800000E+00  1.00800000E+00  0.00000000E+00  1.60000000E+01
  1.00800000E+00  1.00800000E+00  0.00000000E+00  1.60000000E+01  1.00800000E+00
  1.00800000E+00  0.00000000E+00  1.60000000E+01  1.00800000E+00  1.00800000E+00
  0.00000000E+00  1.60000000E+01  1.00800000E+00  1.00800000E+00  0.00000000E+00
  1.60000000E+01  1.00800000E+00  1.00800000E+00  0.00000000E+00  1.60000000E+01
  1.00800000E+00  1.00800000E+00  0.00000000E+00  1.60000000E+01  1.00800000E+00
  1.00800000E+00  0.00000000E+00  1.60000000E+01  1.00800000E+00  1.00800000E+00
  0.00000000E+00  1.60000000E+01  1.00800000E+00  1.00800000E+00  0.00000000E+00
  1.60000000E+01  1.00800000E+00  1.00800000E+00  0.00000000E+00  1.60000000E+01
  1.00800000E+00  1.00800000E+00  0.00000000E+00  1.60000000E+01  1.00800000E+00
  1.00800000E+00  0.00000000E+00  1.60000000E+01  1.00800000E+00  1.00800000E+00
  0.00000000E+00  1.60000000E+01  1.00800000E+00  1.00800000E+00  0.00000000E+00
  1.60000000E+01  1.00800000E+00  1.00800000E+00  0.00000000E+00  1.60000000E+01
  1.00800000E+00  1.00800000E+00  0.00000000E+00  1.60000000E+01  1.00800000E+00
  1.00800000E+00  0.00000000E+00  1.60000000E+01  1.00800000E+00  1.00800000E+00
  0.00000000E+00  1.60000000E+01  1.00800000E+00  1.00800000E+00  0.00000000E+00
  1.60000000E+01  1.00800000E+00  1.00800000E+00  0.00000000E+00  1.60000000E+01
  1.00800000E+00  1.00800000E+00  0.00000000E+00  1.60000000E+01  1.00800000E+00
  1.00800000E+00  0.00000000E+00  1.60000000E+01  1.00800000E+00  1.00800000E+00
  0.00000000E+00  1.60000000E+01  1.00800000E+00  1.00800000E+00  0.00000000E+00
  1.60000000E+01  1.00800000E+00  1.00800000E+00  0.00000000E+00  1.60000000E+01
  1.00800000E+00  1.00800000E+00  0.00000000E+00  1.60000000E+01  1.00800000E+00
  1.00800000E+00  0.00000000E+00  1.60000000E+01  1.00800000E+00  1.00800000E+00
  0.00000000E+00  1.60000000E+01  1.00800000E+00  1.00800000E+00  0.00000000E+00
  1.60000000E+01  1.00800000E+00  1.00800000E+00  0.00000000E+00  1.60000000E+01
  1.00800000E+00  1.00800000E+00  0.00000000E+00  1.60000000E+01  1.00800000E+00
  1.00800000E+00  0.00000000E+00  1.60000000E+01  1.00800000E+00  1.00800000E+00
  0.00000000E+00  1.60000000E+01  1.00800000E+00  1.00800000E+00  0.00000000E+00
  1.60000000E+01  1.00800000E+00  1.00800000E+00  0.00000000E+00  1.60000000E+01
  1.00800000E+00  1.00800000E+00  0.00000000E+00  1.60000000E+01  1.00800000E+00
  1.00800000E+00  0.00000000E+00  1.60000000E+01  1.00800000E+00  1.00800000E+00
  0.00000000E+00  1.60000000E+01  1.00800000E+00  1.00800000E+00  0.00000000E+00
  1.60000000E+01  1.00800000E+00  1.00800000E+00  0.00000000E+00  1.60000000E+01
  1.00800000E+00  1.00800000E+00  0.00000000E+00  1.60000000E+01  1.00800000E+00
  1.00800000E+00  0.00000000E+00  1.60000000E+01  1.00800000E+00  1.00800000E+00
  0.00000000E+00  1.60000000E+01  1.00800000E+00  1.00800000E+00  0.00000000E+00
  1.60000000E+01  1.00800000E+00  1.00800000E+00  0.00000000E+00  1.60000000E+01
  1.00800000E+00  1.00800000E+00  0.00000000E+00  1.60000000E+01  1.00800000E+00
  1.00800000E+00  0.00000000E+00  1.60000000E+01  1.00800000E+00  1.00800000E+00
  0.00000000E+00  1.60000000E+01  1.00800000E+00  1.00800000E+00  0.00000000E+00
  1.60000000E+01  1.00800000E+00  1.00800000E+00  0.00000000E+00  1.60000000E+01
  1.00800000E+00  1.00800000E+00  0.00000000E+00  1.60000000E+01  1.00800000E+00
  1.00800000E+00  0.00000000E+00  1.60000000E+01  1.00800000E+00  1.00800000E+00
  0.00000000E+00  1.60000000E+01  1.00800000E+00  1.00800000E+00  0.00000000E+00
  1.60000000E+01  1.00800000E+00  1.00800000E+00  0.00000000E+00  1.60000000E+01
  1.00800000E+00  1.00800000E+00  0.00000000E+00  1.60000000E+01  1.00800000E+00
  1.00800000E+00  0.00000000E+00  1.60000000E+01  1.00800000E+00  1.00800000E+00
  0.00000000E+00  1.60000000E+01  1.00800000E+00  1.00800000E+00  0.00000000E+00
  1.60000000E+01  1.00800000E+00  1.00800000E+00  0.00000000E+00  1.60000000E+01
  1.00800000E+00  1.00800000E+00  0.00000000E+00  1.60000000E+01  1.00800000E+00
  1.00800000E+00  0.00000000E+00  1.60000000E+01  1.00800000E+00  1.00800000E+00
  0.00000000E+00  1.60000000E+01  1.00800000E+00  1.00800000E+00  0.00000000E+00
  1.60000000E+01  1.00800000E+00  1.00800000E+00  0.00000000E+00  1.60000000E+01
  1.00800000E+00  1.00800000E+00  0.00000000E+00  1.60000000E+01  1.00800000E+00
  1.00800000E+00  0.00000000E+00  1.60000000E+01  1.00800000E+00  1.00800000E+00
  0.00000000E+00  1.60000000E+01  1.00800000E+00  1.00800000E+00  0.00000000E+00
  1.60000000E+01  1.00800000E+00  1.00800000E+00  0.00000000E+00  1.60000000E+01
  1.00800000E+00  1.00800000E+00  0.00000000E+00  1.60000000E+01  1.00800000E+00
  1.00800000E+00  0.00000000E+00  1.60000000E+01  1.00800000E+00  1.00800000E+00
  0.00000000E+00  1.60000000E+01  1.00800000E+00  1.00800000E+00  0.00000000E+00
  1.60000000E+01  1.00800000E+00  1.00800000E+00  0.00000000E+00  1.60000000E+01
  1.00800000E+00  1.00800000E+00  0.00000000E+00  1.60000000E+01  1.00800000E+00
  1.00800000E+00  0.00000000E+00  1.60000000E+01  1.00800000E+00  1.00800000E+00
  0.00000000E+00  1.60000000E+01  1.00800000E+00  1.00800000E+00  0.00000000E+00
  1.60000000E+01  1.00800000E+00  1.00800000E+00  0.00000000E+00  1.60000000E+01
  1.00800000E+00  1.00800000E+00  0.00000000E+00  1.60000000E+01  1.00800000E+00
  1.00800000E+00  0.00000000E+00  1.60000000E+01  1.00800000E+00  1.00800000E+00
  0.00000000E+00  1.60000000E+01  1.00800000E+00  1.00800000E+00  0.00000000E+00
  1.60000000E+01  1.00800000E+00  1.00800000E+00  0.00000000E+00  1.60000000E+01
  1.00800000E+00  1.00800000E+00  0.00000000E+00  1.60000000E+01  1.00800000E+00
  1.00800000E+00  0.00000000E+00  1.60000000E+01  1.00800000E+00  1.00800000E+00
  0.00000000E+00  1.60000000E+01  1.00800000E+00  1.00800000E+00  0.00000000E+00
  1.60000000E+01  1.00800000E+00  1.00800000E+00  0.00000000E+00  1.60000000E+01
  1.00800000E+00  1.00800000E+00  0.00000000E+00  1.60000000E+01  1.00800000E+00
  1.00800000E+00  0.00000000E+00  1.60000000E+01  1.00800000E+00  1.00800000E+00
  0.00000000E+00  1.60000000E+01  1.00800000E+00  1.00800000E+00  0.00000000E+00
  1.60000000E+01  1.00800000E+00  1.00800000E+00  0.00000000E+00  1.60000000E+01
  1.00800000E+00  1.00800000E+00  0.00000000E+00  1.60000000E+01  1.00800000E+00
  1.00800000E+00  0.00000000E+00  1.60000000E+01  1.00800000E+00  1.00800000E+00
  0.00000000E+00  1.60000000E+01  1.00800000E+00  1.00800000E+00  0.00000000E+00
  1.60000000E+01  1.00800000E+00  1.00800000E+00  0.00000000E+00  1.60000000E+01
  1.00800000E+00  1.00800000E+00  0.00000000E+00  1.60000000E+01  1.00800000E+00
  1.00800000E+00  0.00000000E+00  1.60000000E+01  1.00800000E+00  1.00800000E+00
  0.00000000E+00  1.60000000E+01  1.00800000E+00  1.00800000E+00  0.00000000E+00
  1.60000000E+01  1.00800000E+00  1.00800000E+00  0.00000000E+00  1.60000000E+01
  1.00800000E+00  1.00800000E+00  0.00000000E+00  1.60000000E+01  1.00800000E+00
  1.00800000E+00  0.00000000E+00  1.60000000E+01  1.00800000E+00  1.00800000E+00
  0.00000000E+00  1.60000000E+01  1.00800000E+00  1.00800000E+00  0.00000000E+00
  1.60000000E+01  1.00800000E+00  1.00800000E+00  0.00000000E+00  1.60000000E+01
  1.00800000E+00  1.00800000E+00  0.00000000E+00  1.60000000E+01  1.00800000E+00
  1.00800000E+00  0.00000000E+00  1.60000000E+01  1.00800000E+00  1.00800000E+00
  0.00000000E+00  1.60000000E+01  1.00800000E+00  1.00800000E+00  0.00000000E+00
  1.60000000E+01  1.00800000E+00  1.00800000E+00  0.00000000E+00  1.60000000E+01
  1.00800000E+00  1.00800000E+00  0.00000000E+00  1.60000000E+01  1.00800000E+00
  1.00800000E+00  0.00000000E+00  1.60000000E+01  1.00800000E+00  1.00800000E+00
  0.00000000E+00  1.60000000E+01  1.00800000E+00  1.00800000E+00  0.00000000E+00
  1.60000000E+01  1.00800000E+00  1.00800000E+00  0.00000000E+00  1.60000000E+01
  1.00800000E+00  1.00800000E+00  0.00000000E+00  1.60000000E+01  1.00800000E+00
  1.00800000E+00  0.00000000E+00  1.60000000E+01  1.00800000E+00  1.00800000E+00
  0.00000000E+00  1.60000000E+01  1.00800000E+00  1.00800000E+00  0.00000000E+00
  1.60000000E+01  1.00800000E+00  1.00800000E+00  0.00000000E+00  1.60000000E+01
  1.00800000E+00  1.00800000E+00  0.00000000E+00  1.60000000E+01  1.00800000E+00
  1.00800000E+00  0.00000000E+00  1.60000000E+01  1.00800000E+00  1.00800000E+00
  0.00000000E+00  1.60000000E+01  1.00800000E+00  1.00800000E+00  0.00000000E+00
  1.60000000E+01  1.00800000E+00  1.00800000E+00  0.00000000E+00  1.60000000E+01
  1.00800000E+00  1.00800000E+00  0.00000000E+00  1.60000000E+01  1.00800000E+00
  1.00800000E+00  0.00000000E+00  1.60000000E+01  1.00800000E+00  1.00800000E+00
  0.00000000E+00  1.60000000E+01  1.00800000E+00  1.00800000E+00  0.00000000E+00
  1.60000000E+01  1.00800000E+00  1.00800000E+00  0.00000000E+00  1.60000000E+01
  1.00800000E+00  1.00800000E+00  0.00000000E+00  1.60000000E+01  1.00800000E+00
  1.00800000E+00  0.00000000E+00  1.60000000E+01  1.00800000E+00  1.00800000E+00
  0.00000000E+00  1.60000000E+01  1.00800000E+00  1.00800000E+00  0.00000000E+00
  1.60000000E+01  1.00800000E+00  1.00800000E+00  0.00000000E+00  1.60000000E+01
  1.00800000E+00  1.00800000E+00  0.00000000E+00  1.60000000E+01  1.00800000E+00
  1.00800000E+00  0.00000000E+00  1.60000000E+01  1.00800000E+00  1.00800000E+00
  0.00000000E+00  1.60000000E+01  1.00800000E+00  1.00800000E+00  0.00000000E+00
  1.60000000E+01  1.00800000E+00  1.00800000E+00  0.00000000E+00  1.60000000E+01
  1.00800000E+00  1.00800000E+00  0.00000000E+00  1.60000000E+01  1.00800000E+00
  1.00800000E+00  0.00000000E+00  1.60000000E+01  1.00800000E+00  1.00800000E+00
  0.00000000E+00  1.60000000E+01  1.00800000E+00  1.00800000E+00  0.00000000E+00
  1.60000000E+01  1.00800000E+00  1.00800000E+00  0.00000000E+00  1.60000000E+01
  1.00800000E+00  1.00800000E+00  0.00000000E+00  1.60000000E+01  1.00800000E+00
  1.00800000E+00  0.00000000E+00  1.60000000E+01  1.00800000E+00  1.00800000E+00
  0.00000000E+00  1.60000000E+01  1.00800000E+00  1.00800000E+00  0.00000000E+00
  1.60000000E+01  1.00800000E+00  1.00800000E+00  0.00000000E+00  1.60000000E+01
  1.00800000E+00  1.00800000E+00  0.00000000E+00  1.60000000E+01  1.00800000E+00
  1.00800000E+00  0.00000000E+00  1.60000000E+01  1.00800000E+00  1.00800000E+00
  0.00000000E+00  1.60000000E+01  1.00800000E+00  1.00800000E+00  0.00000000E+00
  1.60000000E+01  1.00800000E+00  1.00800000E+00  0.00000000E+00  1.60000000E+01
  1.00800000E+00  1.00800000E+00  0.00000000E+00  1.60000000E+01  1.00800000E+00
  1.00800000E+00  0.00000000E+00  1.60000000E+01  1.00800000E+00  1.00800000E+00
  0.00000000E+00  1.60000000E+01  1.00800000E+00  1.00800000E+00  0.00000000E+00
  1.60000000E+01  1.00800000E+00  1.00800000E+00  0.00000000E+00  1.60000000E+01
  1.00800000E+00  1.00800000E+00  0.00000000E+00  1.60000000E+01  1.00800000E+00
  1.00800000E+00  0.00000000E+00  1.60000000E+01  1.00800000E+00  1.00800000E+00
  0.00000000E+00  1.60000000E+01  1.00800000E+00  1.00800000E+00  0.00000000E+00
  1.60000000E+01  1.00800000E+00  1.00800000E+00  0.00000000E+00  1.60000000E+01
  1.00800000E+00  1.00800000E+00  0.00000000E+00  1.60000000E+01  1.00800000E+00
  1.00800000E+00  0.00000000E+00  1.60000000E+01  1.00800000E+00  1.00800000E+00
  0.00000000E+00  1.60000000E+01  1.00800000E+00  1.00800000E+00  0.00000000E+00
  1.60000000E+01  1.00800000E+00  1.00800000E+00  0.00000000E+00  1.60000000E+01
  1.00800000E+00  1.00800000E+00  0.00000000E+00  1.60000000E+01  1.00800000E+00
  1.00800000E+00  0.00000000E+00  1.60000000E+01  1.00800000E+00  1.00800000E+00
  0.00000000E+00  1.60000000E+01  1.00800000E+00  1.00800000E+00  0.00000000E+00
  1.60000000E+01  1.00800000E+00  1.00800000E+00  0.00000000E+00  1.60000000E+01
  1.00800000E+00  1.00800000E+00  0.00000000E+00  1.60000000E+01  1.00800000E+00
  1.00800000E+00  0.00000000E+00  1.60000000E+01  1.00800000E+00  1.00800000E+00
  0.00000000E+00  1.60000000E+01  1.00800000E+00  1.00800000E+00  0.00000000E+00
  1.60000000E+01  1.00800000E+00  1.00800000E+00  0.00000000E+00  1.60000000E+01
  1.00800000E+00  1.00800000E+00  0.00000000E+00  1.60000000E+01  1.00800000E+00
  1.00800000E+00  0.00000000E+00  1.60000000E+01  1.00800000E+00  1.00800000E+00
  0.00000000E+00  1.60000000E+01  1.00800000E+00  1.00800000E+00  0.00000000E+00
  1.60000000E+01  1.00800000E+00  1.00800000E+00  0.00000000E+00  1.60000000E+01
  1.00800000E+00  1.00800000E+00  0.00000000E+00  1.60000000E+01  1.00800000E+00
  1.00800000E+00  0.00000000E+00  1.60000000E+01  1.00800000E+00  1.00800000E+00
  0.00000000E+00  1.60000000E+01  1.00800000E+00  1.00800000E+00  0.00000000E+00
  1.60000000E+01  1.00800000E+00  1.00800000E+00  0.00000000E+00  1.60000000E+01
  1.00800000E+00  1.00800000E+00  0.00000000E+00  1.60000000E+01  1.00800000E+00
  1.00800000E+00  0.00000000E+00  1.60000000E+01  1.00800000E+00  1.00800000E+00
  0.00000000E+00  1.60000000E+01  1.00800000E+00  1.00800000E+00  0.00000000E+00
  1.60000000E+01  1.00800000E+00  1.00800000E+00  0.00000000E+00  1.60000000E+01
  1.00800000E+00  1.00800000E+00  0.00000000E+00  1.60000000E+01  1.00800000E+00
  1.00800000E+00  0.00000000E+00  1.60000000E+01  1.00800000E+00  1.00800000E+00
  0.00000000E+00  1.60000000E+01  1.00800000E+00  1.00800000E+00  0.00000000E+00
  1.60000000E+01  1.00800000E+00  1.00800000E+00  0.00000000E+00  1.60000000E+01
  1.00800000E+00  1.00800000E+00  0.00000000E+00  1.60000000E+01  1.00800000E+00
  1.00800000E+00  0.00000000E+00  1.60000000E+01  1.00800000E+00  1.00800000E+00
  0.00000000E+00  1.60000000E+01  1.00800000E+00  1.00800000E+00  0.00000000E+00
  1.60000000E+01  1.00800000E+00  1.00800000E+00  0.00000000E+00  1.60000000E+01
  1.00800000E+00  1.00800000E+00  0.00000000E+00  1.60000000E+01  1.00800000E+00
  1.00800000E+00  0.00000000E+00  1.60000000E+01  1.00800000E+00  1.00800000E+00
  0.00000000E+00  1.60000000E+01  1.00800000E+00  1.00800000E+00  0.00000000E+00
  1.60000000E+01  1.00800000E+00  1.00800000E+00  0.00000000E+00  1.60000000E+01
  1.00800000E+00  1.00800000E+00  0.00000000E+00  1.60000000E+01  1.00800000E+00
  1.00800000E+00  0.00000000E+00  1.60000000E+01  1.00800000E+00  1.00800000E+00
  0.00000000E+00  1.60000000E+01  1.00800000E+00  1.00800000E+00  0.00000000E+00
  1.60000000E+01  1.00800000E+00  1.00800000E+00  0.00000000E+00  1.60000000E+01
  1.00800000E+00  1.00800000E+00  0.00000000E+00  1.60000000E+01  1.00800000E+00
  1.00800000E+00  0.00000000E+00  1.60000000E+01  1.00800000E+00  1.00800000E+00
  0.00000000E+00  1.60000000E+01  1.00800000E+00  1.00800000E+00  0.00000000E+00
  1.60000000E+01  1.00800000E+00  1.00800000E+00  0.00000000E+00  1.60000000E+01
  1.00800000E+00  1.00800000E+00  0.00000000E+00  1.60000000E+01  1.00800000E+00
  1.00800000E+00  0.00000000E+00  1.60000000E+01  1.00800000E+00  1.00800000E+00
  0.00000000E+00  1.60000000E+01  1.00800000E+00  1.00800000E+00  0.00000000E+00
  1.60000000E+01  1.00800000E+00  1.00800000E+00  0.00000000E+00  1.60000000E+01
  1.00800000E+00  1.00800000E+00  0.00000000E+00  1.60000000E+01  1.00800000E+00
  1.00800000E+00  0.00000000E+00  1.60000000E+01  1.00800000E+00  1.00800000E+00
  0.00000000E+00  1.60000000E+01  1.00800000E+00  1.00800000E+00  0.00000000E+00
  1.60000000E+01  1.00800000E+00  1.00800000E+00  0.00000000E+00  1.60000000E+01
  1.00800000E+00  1.00800000E+00  0.00000000E+00  1.60000000E+01  1.00800000E+00
  1.00800000E+00  0.00000000E+00  1.60000000E+01  1.00800000E+00  1.00800000E+00
  0.00000000E+00  1.60000000E+01  1.00800000E+00  1.00800000E+00  0.00000000E+00
  1.60000000E+01  1.00800000E+00  1.00800000E+00  0.00000000E+00  1.60000000E+01
  1.00800000E+00  1.00800000E+00  0.00000000E+00  1.60000000E+01  1.00800000E+00
  1.00800000E+00  0.00000000E+00  1.60000000E+01  1.00800000E+00  1.00800000E+00
  0.00000000E+00  1.60000000E+01  1.00800000E+00  1.00800000E+00  0.00000000E+00
  1.60000000E+01  1.00800000E+00  1.00800000E+00  0.00000000E+00  1.60000000E+01
  1.00800000E+00  1.00800000E+00  0.00000000E+00  1.60000000E+01  1.00800000E+00
  1.00800000E+00  0.00000000E+00  1.60000000E+01  1.00800000E+00  1.00800000E+00
  0.00000000E+00  1.60000000E+01  1.00800000E+00  1.00800000E+00  0.00000000E+00
  1.60000000E+01  1.00800000E+00  1.00800000E+00  0.00000000E+00  1.60000000E+01
  1.00800000E+00  1.00800000E+00  0.00000000E+00  1.60000000E+01  1.00800000E+00
  1.00800000E+00  0.00000000E+00  1.60000000E+01  1.00800000E+00  1.00800000E+00
  0.00000000E+00  1.60000000E+01  1.00800000E+00  1.00800000E+00  0.00000000E+00
  1.60000000E+01  1.00800000E+00  1.00800000E+00  0.00000000E+00  1.60000000E+01
  1.00800000E+00  1.00800000E+00  0.00000000E+00  1.60000000E+01  1.00800000E+00
  1.00800000E+00  0.00000000E+00  1.60000000E+01  1.00800000E+00  1.00800000E+00
  0.00000000E+00  1.60000000E+01  1.00800000E+00  1.00800000E+00  0.00000000E+00
  1.60000000E+01  1.00800000E+00  1.00800000E+00  0.00000000E+00  1.60000000E+01
  1.00800000E+00  1.00800000E+00  0.00000000E+00  1.60000000E+01  1.00800000E+00
  1.00800000E+00  0.00000000E+00  1.60000000E+01  1.00800000E+00  1.00800000E+00
  0.00000000E+00  1.60000000E+01  1.00800000E+00  1.00800000E+00  0.00000000E+00
  1.60000000E+01  1.00800000E+00  1.00800000E+00  0.00000000E+00  1.60000000E+01
  1.00800000E+00  1.00800000E+00  0.00000000E+00  1.60000000E+01  1.00800000E+00
  1.00800000E+00  0.00000000E+00  1.60000000E+01  1.00800000E+00  1.00800000E+00
  0.00000000E+00  1.60000000E+01  1.00800000E+00  1.00800000E+00  0.00000000E+00
  1.60000000E+01  1.00800000E+00  1.00800000E+00  0.00000000E+00  1.60000000E+01
  1.00800000E+00  1.00800000E+00  0.00000000E+00  1.60000000E+01  1.00800000E+00
  1.00800000E+00  0.00000000E+00  1.60000000E+01  1.00800000E+00  1.00800000E+00
  0.00000000E+00  1.60000000E+01  1.00800000E+00  1.00800000E+00  0.00000000E+00
  1.60000000E+01  1.00800000E+00  1.00800000E+00  0.00000000E+00  1.60000000E+01
  1.00800000E+00  1.00800000E+00  0.00000000E+00  1.60000000E+01  1.00800000E+00
  1.00800000E+00  0.00000000E+00  1.60000000E+01  1.00800000E+00  1.00800000E+00
  0.00000000E+00  1.60000000E+01  1.00800000E+00  1.00800000E+00  0.00000000E+00
  1.60000000E+01  1.00800000E+00  1.00800000E+00  0.00000000E+00  1.60000000E+01
  1.00800000E+00  1.00800000E+00  0.00000000E+00  1.60000000E+01  1.00800000E+00
  1.00800000E+00  0.00000000E+00  1.60000000E+01  1.00800000E+00  1.00800000E+00
  0.00000000E+00  1.60000000E+01  1.00800000E+00  1.00800000E+00  0.00000000E+00
  1.60000000E+01  1.00800000E+00  1.00800000E+00  0.00000000E+00  1.60000000E+01
  1.00800000E+00  1.00800000E+00  0.00000000E+00  1.60000000E+01  1.00800000E+00
  1.00800000E+00  0.00000000E+00  1.60000000E+01  1.00800000E+00  1.00800000E+00
  0.00000000E+00  1.60000000E+01  1.00800000E+00  1.00800000E+00  0.00000000E+00
  1.60000000E+01  1.00800000E+00  1.00800000E+00  0.00000000E+00  1.60000000E+01
  1.00800000E+00  1.00800000E+00  0.00000000E+00  1.60000000E+01  1.00800000E+00
  1.00800000E+00  0.00000000E+00  1.60000000E+01  1.00800000E+00  1.00800000E+00
  0.00000000E+00  1.60000000E+01  1.00800000E+00  1.00800000E+00  0.00000000E+00
  1.60000000E+01  1.00800000E+00  1.00800000E+00  0.00000000E+00  1.60000000E+01
  1.00800000E+00  1.00800000E+00  0.00000000E+00  1.60000000E+01  1.00800000E+00
  1.00800000E+00  0.00000000E+00  1.60000000E+01  1.00800000E+00  1.00800000E+00
  0.00000000E+00  1.60000000E+01  1.00800000E+00  1.00800000E+00  0.00000000E+00
  1.60000000E+01  1.00800000E+00  1.00800000E+00  0.00000000E+00  1.60000000E+01
  1.00800000E+00  1.00800000E+00  0.00000000E+00  1.60000000E+01  1.00800000E+00
  1.00800000E+00  0.00000000E+00  1.60000000E+01  1.00800000E+00  1.00800000E+00
  0.00000000E+00  1.60000000E+01  1.00800000E+00  1.00800000E+00  0.00000000E+00
  1.60000000E+01  1.00800000E+00  1.00800000E+00  0.00000000E+00  1.60000000E+01
  1.00800000E+00  1.00800000E+00  0.00000000E+00  1.60000000E+01  1.00800000E+00
  1.00800000E+00  0.00000000E+00  1.60000000E+01  1.00800000E+00  1.00800000E+00
  0.00000000E+00  1.60000000E+01  1.00800000E+00  1.00800000E+00  0.00000000E+00
  1.60000000E+01  1.00800000E+00  1.00800000E+00  0.00000000E+00  1.60000000E+01
  1.00800000E+00  1.00800000E+00  0.00000000E+00  1.60000000E+01  1.00800000E+00
  1.00800000E+00  0.00000000E+00  1.60000000E+01  1.00800000E+00  1.00800000E+00
  0.00000000E+00  1.60000000E+01  1.00800000E+00  1.00800000E+00  0.00000000E+00
  1.60000000E+01  1.00800000E+00  1.00800000E+00  0.00000000E+00  1.60000000E+01
  1.00800000E+00  1.00800000E+00  0.00000000E+00  1.60000000E+01  1.00800000E+00
  1.00800000E+00  0.00000000E+00  1.60000000E+01  1.00800000E+00  1.00800000E+00
  0.00000000E+00  1.60000000E+01  1.00800000E+00  1.00800000E+00  0.00000000E+00
  1.60000000E+01  1.00800000E+00  1.00800000E+00  0.00000000E+00  1.60000000E+01
  1.00800000E+00  1.00800000E+00  0.00000000E+00  1.60000000E+01  1.00800000E+00
  1.00800000E+00  0.00000000E+00  1.60000000E+01  1.00800000E+00  1.00800000E+00
  0.00000000E+00  1.60000000E+01  1.00800000E+00  1.00800000E+00  0.00000000E+00
  1.60000000E+01  1.00800000E+00  1.00800000E+00  0.00000000E+00  1.60000000E+01
  1.00800000E+00  1.00800000E+00  0.00000000E+00  1.60000000E+01  1.00800000E+00
  1.00800000E+00  0.00000000E+00  1.60000000E+01  1.00800000E+00  1.00800000E+00
  0.00000000E+00  1.60000000E+01  1.00800000E+00  1.00800000E+00  0.00000000E+00
  1.60000000E+01  1.00800000E+00  1.00800000E+00  0.00000000E+00  1.60000000E+01
  1.00800000E+00  1.00800000E+00  0.00000000E+00  1.60000000E+01  1.00800000E+00
  1.00800000E+00  0.00000000E+00  1.60000000E+01  1.00800000E+00  1.00800000E+00
  0.00000000E+00  1.60000000E+01  1.00800000E+00  1.00800000E+00  0.00000000E+00
  1.60000000E+01  1.00800000E+00  1.00800000E+00  0.00000000E+00  1.60000000E+01
  1.00800000E+00  1.00800000E+00  0.00000000E+00  1.60000000E+01  1.00800000E+00
  1.00800000E+00  0.00000000E+00  1.60000000E+01  1.00800000E+00  1.00800000E+00
  0.00000000E+00  1.60000000E+01  1.00800000E+00  1.00800000E+00  0.00000000E+00
  1.60000000E+01  1.00800000E+00  1.00800000E+00  0.00000000E+00  1.60000000E+01
  1.00800000E+00  1.00800000E+00  0.00000000E+00  1.60000000E+01  1.00800000E+00
  1.00800000E+00  0.00000000E+00  1.60000000E+01  1.00800000E+00  1.00800000E+00
  0.00000000E+00  1.60000000E+01  1.00800000E+00  1.00800000E+00  0.00000000E+00
  1.60000000E+01  1.00800000E+00  1.00800000E+00  0.00000000E+00  1.60000000E+01
  1.00800000E+00  1.00800000E+00  0.00000000E+00  1.60000000E+01  1.00800000E+00
  1.00800000E+00  0.00000000E+00  1.60000000E+01  1.00800000E+00  1.00800000E+00
  0.00000000E+00  1.60000000E+01  1.00800000E+00  1.00800000E+00  0.00000000E+00
  1.60000000E+01  1.00800000E+00  1.00800000E+00  0.00000000E+00  1.60000000E+01
  1.00800000E+00  1.00800000E+00  0.00000000E+00  1.60000000E+01  1.00800000E+00
  1.00800000E+00  0.00000000E+00  1.60000000E+01  1.00800000E+00  1.00800000E+00
  0.00000000E+00  1.60000000E+01  1.00800000E+00  1.00800000E+00  0.00000000E+00
  1.60000000E+01  1.00800000E+00  1.00800000E+00  0.00000000E+00  1.60000000E+01
  1.00800000E+00  1.00800000E+00  0.00000000E+00  1.60000000E+01  1.00800000E+00
  1.00800000E+00  0.00000000E+00  1.60000000E+01  1.00800000E+00  1.00800000E+00
  0.00000000E+00  1.60000000E+01  1.00800000E+00  1.00800000E+00  0.00000000E+00
  1.60000000E+01  1.00800000E+00  1.00800000E+00  0.00000000E+00  1.60000000E+01
  1.00800000E+00  1.00800000E+00  0.00000000E+00  1.60000000E+01  1.00800000E+00
  1.00800000E+00  0.00000000E+00  1.60000000E+01  1.00800000E+00  1.00800000E+00
  0.00000000E+00  1.60000000E+01  1.00800000E+00  1.00800000E+00  0.00000000E+00
  1.60000000E+01  1.00800000E+00  1.00800000E+00  0.00000000E+00  1.60000000E+01
  1.00800000E+00  1.00800000E+00  0.00000000E+00  1.60000000E+01  1.00800000E+00
  1.00800000E+00  0.00000000E+00  1.60000000E+01  1.00800000E+00  1.00800000E+00
  0.00000000E+00  1.60000000E+01  1.00800000E+00  1.00800000E+00  0.00000000E+00
  1.60000000E+01  1.00800000E+00  1.00800000E+00  0.00000000E+00  1.60000000E+01
  1.00800000E+00  1.00800000E+00  0.00000000E+00  1.60000000E+01  1.00800000E+00
  1.00800000E+00  0.00000000E+00  1.60000000E+01  1.00800000E+00  1.00800000E+00
  0.00000000E+00  1.60000000E+01  1.00800000E+00  1.00800000E+00  0.00000000E+00
  1.60000000E+01  1.00800000E+00  1.00800000E+00  0.00000000E+00  1.60000000E+01
  1.00800000E+00  1.00800000E+00  0.00000000E+00  1.60000000E+01  1.00800000E+00
  1.00800000E+00  0.00000000E+00  1.60000000E+01  1.00800000E+00  1.00800000E+00
  0.00000000E+00  1.60000000E+01  1.00800000E+00  1.00800000E+00  0.00000000E+00
  1.60000000E+01  1.00800000E+00  1.00800000E+00  0.00000000E+00  1.60000000E+01
  1.00800000E+00  1.00800000E+00  0.00000000E+00  1.60000000E+01  1.00800000E+00
  1.00800000E+00  0.00000000E+00  1.60000000E+01  1.00800000E+00  1.00800000E+00
  0.00000000E+00  1.60000000E+01  1.00800000E+00  1.00800000E+00  0.00000000E+00
  1.60000000E+01  1.00800000E+00  1.00800000E+00  0.00000000E+00  1.60000000E+01
  1.00800000E+00  1.00800000E+00  0.00000000E+00  1.60000000E+01  1.00800000E+00
  1.00800000E+00  0.00000000E+00  1.60000000E+01  1.00800000E+00  1.00800000E+00
  0.00000000E+00  1.60000000E+01  1.00800000E+00  1.00800000E+00  0.00000000E+00
  1.60000000E+01  1.00800000E+00  1.00800000E+00  0.00000000E+00  1.60000000E+01
  1.00800000E+00  1.00800000E+00  0.00000000E+00  1.60000000E+01  1.00800000E+00
  1.00800000E+00  0.00000000E+00  1.60000000E+01  1.00800000E+00  1.00800000E+00
  0.00000000E+00  1.60000000E+01  1.00800000E+00  1.00800000E+00  0.00000000E+00
  1.60000000E+01  1.00800000E+00  1.00800000E+00  0.00000000E+00  1.60000000E+01
  1.00800000E+00  1.00800000E+00  0.00000000E+00  1.60000000E+01  1.00800000E+00
  1.00800000E+00  0.00000000E+00  1.60000000E+01  1.00800000E+00  1.00800000E+00
  0.00000000E+00  1.60000000E+01  1.00800000E+00  1.00800000E+00  0.00000000E+00
  1.60000000E+01  1.00800000E+00  1.00800000E+00  0.00000000E+00  1.60000000E+01
  1.00800000E+00  1.00800000E+00  0.00000000E+00  1.60000000E+01  1.00800000E+00
  1.00800000E+00  0.00000000E+00  1.60000000E+01  1.00800000E+00  1.00800000E+00
  0.00000000E+00  1.60000000E+01  1.00800000E+00  1.00800000E+00  0.00000000E+00
  1.60000000E+01  1.00800000E+00  1.00800000E+00  0.00000000E+00  1.60000000E+01
  1.00800000E+00  1.00800000E+00  0.00000000E+00  1.60000000E+01  1.00800000E+00
  1.00800000E+00  0.00000000E+00  1.60000000E+01  1.00800000E+00  1.00800000E+00
  0.00000000E+00  1.60000000E+01  1.00800000E+00  1.00800000E+00  0.00000000E+00
  1.60000000E+01  1.00800000E+00  1.00800000E+00  0.00000000E+00  1.60000000E+01
  1.00800000E+00  1.00800000E+00  0.00000000E+00  1.60000000E+01  1.00800000E+00
  1.00800000E+00  0.00000000E+00  1.60000000E+01  1.00800000E+00  1.00800000E+00
  0.00000000E+00  1.60000000E+01  1.00800000E+00  1.00800000E+00  0.00000000E+00
  1.60000000E+01  1.00800000E+00  1.00800000E+00  0.00000000E+00  1.60000000E+01
  1.00800000E+00  1.00800000E+00  0.00000000E+00  1.60000000E+01  1.00800000E+00
  1.00800000E+00  0.00000000E+00  1.60000000E+01  1.00800000E+00  1.00800000E+00
  0.00000000E+00  1.60000000E+01  1.00800000E+00  1.00800000E+00  0.00000000E+00
  1.60000000E+01  1.00800000E+00  1.00800000E+00  0.00000000E+00  1.60000000E+01
  1.00800000E+00  1.00800000E+00  0.00000000E+00  1.60000000E+01  1.00800000E+00
  1.00800000E+00  0.00000000E+00  1.60000000E+01  1.00800000E+00  1.00800000E+00
  0.00000000E+00  1.60000000E+01  1.00800000E+00  1.00800000E+00  0.00000000E+00
  1.60000000E+01  1.00800000E+00  1.00800000E+00  0.00000000E+00  1.60000000E+01
  1.00800000E+00  1.00800000E+00  0.00000000E+00  1.60000000E+01  1.00800000E+00
  1.00800000E+00  0.00000000E+00  1.60000000E+01  1.00800000E+00  1.00800000E+00
  0.00000000E+00  1.60000000E+01  1.00800000E+00  1.00800000E+00  0.00000000E+00
  1.60000000E+01  1.00800000E+00  1.00800000E+00  0.00000000E+00  1.60000000E+01
  1.00800000E+00  1.00800000E+00  0.00000000E+00  1.60000000E+01  1.00800000E+00
  1.00800000E+00  0.00000000E+00  1.60000000E+01  1.00800000E+00  1.00800000E+00
  0.00000000E+00  1.60000000E+01  1.00800000E+00  1.00800000E+00  0.00000000E+00
  1.60000000E+01  1.00800000E+00  1.00800000E+00  0.00000000E+00  1.60000000E+01
  1.00800000E+00  1.00800000E+00  0.00000000E+00  1.60000000E+01  1.00800000E+00
  1.00800000E+00  0.00000000E+00  1.60000000E+01  1.00800000E+00  1.00800000E+00
  0.00000000E+00  1.60000000E+01  1.00800000E+00  1.00800000E+00  0.00000000E+00
  1.60000000E+01  1.00800000E+00  1.00800000E+00  0.00000000E+00  1.60000000E+01
  1.00800000E+00  1.00800000E+00  0.00000000E+00  1.60000000E+01  1.00800000E+00
  1.00800000E+00  0.00000000E+00  1.60000000E+01  1.00800000E+00  1.00800000E+00
  0.00000000E+00  1.60000000E+01  1.00800000E+00  1.00800000E+00  0.00000000E+00
  1.60000000E+01  1.00800000E+00  1.00800000E+00  0.00000000E+00  1.60000000E+01
  1.00800000E+00  1.00800000E+00  0.00000000E+00  1.60000000E+01  1.00800000E+00
  1.00800000E+00  0.00000000E+00  1.60000000E+01  1.00800000E+00  1.00800000E+00
  0.00000000E+00  1.60000000E+01  1.00800000E+00  1.00800000E+00  0.00000000E+00
  1.60000000E+01  1.00800000E+00  1.00800000E+00  0.00000000E+00  1.60000000E+01
  1.00800000E+00  1.00800000E+00  0.00000000E+00  1.60000000E+01  1.00800000E+00
  1.00800000E+00  0.00000000E+00  1.60000000E+01  1.00800000E+00  1.00800000E+00
  0.00000000E+00  1.60000000E+01  1.00800000E+00  1.00800000E+00  0.00000000E+00
  1.60000000E+01  1.00800000E+00  1.00800000E+00  0.00000000E+00  1.60000000E+01
  1.00800000E+00  1.00800000E+00  0.00000000E+00  1.60000000E+01  1.00800000E+00
  1.00800000E+00  0.00000000E+00  1.60000000E+01  1.00800000E+00  1.00800000E+00
  0.00000000E+00  1.60000000E+01  1.00800000E+00  1.00800000E+00  0.00000000E+00
  1.60000000E+01  1.00800000E+00  1.00800000E+00  0.00000000E+00  1.60000000E+01
  1.00800000E+00  1.00800000E+00  0.00000000E+00  1.60000000E+01  1.00800000E+00
  1.00800000E+00  0.00000000E+00  1.60000000E+01  1.00800000E+00  1.00800000E+00
  0.00000000E+00  1.60000000E+01  1.00800000E+00  1.00800000E+00  0.00000000E+00
  1.60000000E+01  1.00800000E+00  1.00800000E+00  0.00000000E+00  1.60000000E+01
  1.00800000E+00  1.00800000E+00  0.00000000E+00  1.60000000E+01  1.00800000E+00
  1.00800000E+00  0.00000000E+00  1.60000000E+01  1.00800000E+00  1.00800000E+00
  0.00000000E+00  1.60000000E+01  1.00800000E+00  1.00800000E+00  0.00000000E+00
  1.60000000E+01  1.00800000E+00  1.00800000E+00  0.00000000E+00  1.60000000E+01
  1.00800000E+00  1.00800000E+00  0.00000000E+00  1.60000000E+01  1.00800000E+00
  1.00800000E+00  0.00000000E+00  1.60000000E+01  1.00800000E+00  1.00800000E+00
  0.00000000E+00  1.60000000E+01  1.00800000E+00  1.00800000E+00  0.00000000E+00
  1.60000000E+01  1.00800000E+00  1.00800000E+00  0.00000000E+00  1.60000000E+01
  1.00800000E+00  1.00800000E+00  0.00000000E+00  1.60000000E+01  1.00800000E+00
  1.00800000E+00  0.00000000E+00  1.60000000E+01  1.00800000E+00  1.00800000E+00
  0.00000000E+00  1.60000000E+01  1.00800000E+00  1.00800000E+00  0.00000000E+00
  1.60000000E+01  1.00800000E+00  1.00800000E+00  0.00000000E+00  1.60000000E+01
  1.00800000E+00  1.00800000E+00  0.00000000E+00  1.60000000E+01  1.00800000E+00
  1.00800000E+00  0.00000000E+00  1.60000000E+01  1.00800000E+00  1.00800000E+00
  0.00000000E+00  1.60000000E+01  1.00800000E+00  1.00800000E+00  0.00000000E+00
  1.60000000E+01  1.00800000E+00  1.00800000E+00  0.00000000E+00  1.60000000E+01
  1.00800000E+00  1.00800000E+00  0.00000000E+00  1.60000000E+01  1.00800000E+00
  1.00800000E+00  0.00000000E+00  1.60000000E+01  1.00800000E+00  1.00800000E+00
  0.00000000E+00  1.60000000E+01  1.00800000E+00  1.00800000E+00  0.00000000E+00
  1.60000000E+01  1.00800000E+00  1.00800000E+00  0.00000000E+00  1.60000000E+01
  1.00800000E+00  1.00800000E+00  0.00000000E+00  1.60000000E+01  1.00800000E+00
  1.00800000E+00  0.00000000E+00  1.60000000E+01  1.00800000E+00  1.00800000E+00
  0.00000000E+00  1.60000000E+01  1.00800000E+00  1.00800000E+00  0.00000000E+00
  1.60000000E+01  1.00800000E+00  1.00800000E+00  0.00000000E+00  1.60000000E+01
  1.00800000E+00  1.00800000E+00  0.00000000E+00  1.60000000E+01  1.00800000E+00
  1.00800000E+00  0.00000000E+00  1.60000000E+01  1.00800000E+00  1.00800000E+00
  0.00000000E+00  1.60000000E+01  1.00800000E+00  1.00800000E+00  0.00000000E+00
  1.60000000E+01  1.00800000E+00  1.00800000E+00  0.00000000E+00  1.60000000E+01
  1.00800000E+00  1.00800000E+00  0.00000000E+00  1.60000000E+01  1.00800000E+00
  1.00800000E+00  0.00000000E+00  1.60000000E+01  1.00800000E+00  1.00800000E+00
  0.00000000E+00  1.60000000E+01  1.00800000E+00  1.00800000E+00  0.00000000E+00
  1.60000000E+01  1.00800000E+00  1.00800000E+00  0.00000000E+00  1.60000000E+01
  1.00800000E+00  1.00800000E+00  0.00000000E+00  1.60000000E+01  1.00800000E+00
  1.00800000E+00  0.00000000E+00  1.60000000E+01  1.00800000E+00  1.00800000E+00
  0.00000000E+00  1.60000000E+01  1.00800000E+00  1.00800000E+00  0.00000000E+00
  1.60000000E+01  1.00800000E+00  1.00800000E+00  0.00000000E+00  1.60000000E+01
  1.00800000E+00  1.00800000E+00  0.00000000E+00  1.60000000E+01  1.00800000E+00
  1.00800000E+00  0.00000000E+00  1.60000000E+01  1.00800000E+00  1.00800000E+00
  0.00000000E+00  1.60000000E+01  1.00800000E+00  1.00800000E+00  0.00000000E+00
  1.60000000E+01  1.00800000E+00  1.00800000E+00  0.00000000E+00  1.60000000E+01
  1.00800000E+00  1.00800000E+00  0.00000000E+00  1.60000000E+01  1.00800000E+00
  1.00800000E+00  0.00000000E+00  1.60000000E+01  1.00800000E+00  1.00800000E+00
  0.00000000E+00  1.60000000E+01  1.00800000E+00  1.00800000E+00  0.00000000E+00
  1.60000000E+01  1.00800000E+00  1.00800000E+00  0.00000000E+00  1.60000000E+01
  1.00800000E+00  1.00800000E+00  0.00000000E+00  1.60000000E+01  1.00800000E+00
  1.00800000E+00  0.00000000E+00  1.60000000E+01  1.00800000E+00  1.00800000E+00
  0.00000000E+00  1.60000000E+01  1.00800000E+00  1.00800000E+00  0.00000000E+00
  1.60000000E+01  1.00800000E+00  1.00800000E+00  0.00000000E+00  1.60000000E+01
  1.00800000E+00  1.00800000E+00  0.00000000E+00  1.60000000E+01  1.00800000E+00
  1.00800000E+00  0.00000000E+00  1.60000000E+01  1.00800000E+00  1.00800000E+00
  0.00000000E+00  1.60000000E+01  1.00800000E+00  1.00800000E+00  0.00000000E+00
  1.60000000E+01  1.00800000E+00  1.00800000E+00  0.00000000E+00  1.60000000E+01
  1.00800000E+00  1.00800000E+00  0.00000000E+00  1.60000000E+01  1.00800000E+00
  1.00800000E+00  0.00000000E+00  1.60000000E+01  1.00800000E+00  1.00800000E+00
  0.00000000E+00  1.60000000E+01  1.00800000E+00  1.00800000E+00  0.00000000E+00
  1.60000000E+01  1.00800000E+00  1.00800000E+00  0.00000000E+00  1.60000000E+01
  1.00800000E+00  1.00800000E+00  0.00000000E+00  1.60000000E+01  1.00800000E+00
  1.00800000E+00  0.00000000E+00  1.60000000E+01  1.00800000E+00  1.00800000E+00
  0.00000000E+00  1.60000000E+01  1.00800000E+00  1.00800000E+00  0.00000000E+00
  1.60000000E+01  1.00800000E+00  1.00800000E+00  0.00000000E+00  1.60000000E+01
  1.00800000E+00  1.00800000E+00  0.00000000E+00  1.60000000E+01  1.00800000E+00
  1.00800000E+00  0.00000000E+00  1.60000000E+01  1.00800000E+00  1.00800000E+00
  0.00000000E+00  1.60000000E+01  1.00800000E+00  1.00800000E+00  0.00000000E+00
  1.60000000E+01  1.00800000E+00  1.00800000E+00  0.00000000E+00  1.60000000E+01
  1.00800000E+00  1.00800000E+00  0.00000000E+00  1.60000000E+01  1.00800000E+00
  1.00800000E+00  0.00000000E+00  1.60000000E+01  1.00800000E+00  1.00800000E+00
  0.00000000E+00  1.60000000E+01  1.00800000E+00  1.00800000E+00  0.00000000E+00
  1.60000000E+01  1.00800000E+00  1.00800000E+00  0.00000000E+00  1.60000000E+01
  1.00800000E+00  1.00800000E+00  0.00000000E+00  1.60000000E+01  1.00800000E+00
  1.00800000E+00  0.00000000E+00  1.60000000E+01  1.00800000E+00  1.00800000E+00
  0.00000000E+00  1.60000000E+01  1.00800000E+00  1.00800000E+00  0.00000000E+00
  1.60000000E+01  1.00800000E+00  1.00800000E+00  0.00000000E+00  1.60000000E+01
  1.00800000E+00  1.00800000E+00  0.00000000E+00  1.60000000E+01  1.00800000E+00
  1.00800000E+00  0.00000000E+00  1.60000000E+01  1.00800000E+00  1.00800000E+00
  0.00000000E+00  1.60000000E+01  1.00800000E+00  1.00800000E+00  0.00000000E+00
  1.60000000E+01  1.00800000E+00  1.00800000E+00  0.00000000E+00  1.60000000E+01
  1.00800000E+00  1.00800000E+00  0.00000000E+00  1.60000000E+01  1.00800000E+00
  1.00800000E+00  0.00000000E+00  1.60000000E+01  1.00800000E+00  1.00800000E+00
  0.00000000E+00  1.60000000E+01  1.00800000E+00  1.00800000E+00  0.00000000E+00
  1.60000000E+01  1.00800000E+00  1.00800000E+00  0.00000000E+00  1.60000000E+01
  1.00800000E+00  1.00800000E+00  0.00000000E+00  1.60000000E+01  1.00800000E+00
  1.00800000E+00  0.00000000E+00  1.60000000E+01  1.00800000E+00  1.00800000E+00
  0.00000000E+00  1.60000000E+01  1.00800000E+00  1.00800000E+00  0.00000000E+00
  1.60000000E+01  1.00800000E+00  1.00800000E+00  0.00000000E+00  1.60000000E+01
  1.00800000E+00  1.00800000E+00  0.00000000E+00  1.60000000E+01  1.00800000E+00
  1.00800000E+00  0.00000000E+00  1.60000000E+01  1.00800000E+00  1.00800000E+00
  0.00000000E+00  1.60000000E+01  1.00800000E+00  1.00800000E+00  0.00000000E+00
  1.60000000E+01  1.00800000E+00  1.00800000E+00  0.00000000E+00  1.60000000E+01
  1.00800000E+00  1.00800000E+00  0.00000000E+00  1.60000000E+01  1.00800000E+00
  1.00800000E+00  0.00000000E+00  1.60000000E+01  1.00800000E+00  1.00800000E+00
  0.00000000E+00  1.60000000E+01  1.00800000E+00  1.00800000E+00  0.00000000E+00
  1.60000000E+01  1.00800000E+00  1.00800000E+00  0.00000000E+00  1.60000000E+01
  1.00800000E+00  1.00800000E+00  0.00000000E+00  1.60000000E+01  1.00800000E+00
  1.00800000E+00  0.00000000E+00  1.60000000E+01  1.00800000E+00  1.00800000E+00
  0.00000000E+00  1.60000000E+01  1.00800000E+00  1.00800000E+00  0.00000000E+00
  1.60000000E+01  1.00800000E+00  1.00800000E+00  0.00000000E+00  1.60000000E+01
  1.00800000E+00  1.00800000E+00  0.00000000E+00  1.60000000E+01  1.00800000E+00
  1.00800000E+00  0.00000000E+00  1.60000000E+01  1.00800000E+00  1.00800000E+00
  0.00000000E+00  1.60000000E+01  1.00800000E+00  1.00800000E+00  0.00000000E+00
  1.60000000E+01  1.00800000E+00  1.00800000E+00  0.00000000E+00  1.60000000E+01
  1.00800000E+00  1.00800000E+00  0.00000000E+00  1.60000000E+01  1.00800000E+00
  1.00800000E+00  0.00000000E+00  1.60000000E+01  1.00800000E+00  1.00800000E+00
  0.00000000E+00  1.60000000E+01  1.00800000E+00  1.00800000E+00  0.00000000E+00
  1.60000000E+01  1.00800000E+00  1.00800000E+00  0.00000000E+00  1.60000000E+01
  1.00800000E+00  1.00800000E+00  0.00000000E+00  1.60000000E+01  1.00800000E+00
  1.00800000E+00  0.00000000E+00  1.60000000E+01  1.00800000E+00  1.00800000E+00
  0.00000000E+00  1.60000000E+01  1.00800000E+00  1.00800000E+00  0.00000000E+00
  1.60000000E+01  1.00800000E+00  1.00800000E+00  0.00000000E+00  1.60000000E+01
  1.00800000E+00  1.00800000E+00  0.00000000E+00  1.60000000E+01  1.00800000E+00
  1.00800000E+00  0.00000000E+00  1.60000000E+01  1.00800000E+00  1.00800000E+00
  0.00000000E+00  1.60000000E+01  1.00800000E+00  1.00800000E+00  0.00000000E+00
  1.60000000E+01  1.00800000E+00  1.00800000E+00  0.00000000E+00  1.60000000E+01
  1.00800000E+00  1.00800000E+00  0.00000000E+00  1.60000000E+01  1.00800000E+00
  1.00800000E+00  0.00000000E+00  1.60000000E+01  1.00800000E+00  1.00800000E+00
  0.00000000E+00  1.60000000E+01  1.00800000E+00  1.00800000E+00  0.00000000E+00
  1.60000000E+01  1.00800000E+00  1.00800000E+00  0.00000000E+00  1.60000000E+01
  1.00800000E+00  1.00800000E+00  0.00000000E+00  1.60000000E+01  1.00800000E+00
  1.00800000E+00  0.00000000E+00  1.60000000E+01  1.00800000E+00  1.00800000E+00
  0.00000000E+00  1.60000000E+01  1.00800000E+00  1.00800000E+00  0.00000000E+00
  1.60000000E+01  1.00800000E+00  1.00800000E+00  0.00000000E+00  1.60000000E+01
  1.00800000E+00  1.00800000E+00  0.00000000E+00  1.60000000E+01  1.00800000E+00
  1.00800000E+00  0.00000000E+00  1.60000000E+01  1.00800000E+00  1.00800000E+00
  0.00000000E+00  1.60000000E+01  1.00800000E+00  1.00800000E+00  0.00000000E+00
  1.60000000E+01  1.00800000E+00  1.00800000E+00  0.00000000E+00  1.60000000E+01
  1.00800000E+00  1.00800000E+00  0.00000000E+00  1.60000000E+01  1.00800000E+00
  1.00800000E+00  0.00000000E+00  1.60000000E+01  1.00800000E+00  1.00800000E+00
  0.00000000E+00  1.60000000E+01  1.00800000E+00  1.00800000E+00  0.00000000E+00
  1.60000000E+01  1.00800000E+00  1.00800000E+00  0.00000000E+00  1.60000000E+01
  1.00800000E+00  1.00800000E+00  0.00000000E+00  1.60000000E+01  1.00800000E+00
  1.00800000E+00  0.00000000E+00  1.60000000E+01  1.00800000E+00  1.00800000E+00
  0.00000000E+00  1.60000000E+01  1.00800000E+00  1.00800000E+00  0.00000000E+00
  1.60000000E+01  1.00800000E+00  1.00800000E+00  0.00000000E+00  1.60000000E+01
  1.00800000E+00  1.00800000E+00  0.00000000E+00  1.60000000E+01  1.00800000E+00
  1.00800000E+00  0.00000000E+00  1.60000000E+01  1.00800000E+00  1.00800000E+00
  0.00000000E+00  1.60000000E+01  1.00800000E+00  1.00800000E+00  0.00000000E+00
  1.60000000E+01  1.00800000E+00  1.00800000E+00  0.00000000E+00  1.60000000E+01
  1.00800000E+00  1.00800000E+00  0.00000000E+00  1.60000000E+01  1.00800000E+00
  1.00800000E+00  0.00000000E+00  1.60000000E+01  1.00800000E+00  1.00800000E+00
  0.00000000E+00  1.60000000E+01  1.00800000E+00  1.00800000E+00  0.00000000E+00
  1.60000000E+01  1.00800000E+00  1.00800000E+00  0.00000000E+00  1.60000000E+01
  1.00800000E+00  1.00800000E+00  0.00000000E+00  1.60000000E+01  1.00800000E+00
  1.00800000E+00  0.00000000E+00  1.60000000E+01  1.00800000E+00  1.00800000E+00
  0.00000000E+00  1.60000000E+01  1.00800000E+00  1.00800000E+00  0.00000000E+00
  1.60000000E+01  1.00800000E+00  1.00800000E+00  0.00000000E+00  1.60000000E+01
  1.00800000E+00  1.00800000E+00  0.00000000E+00  1.60000000E+01  1.00800000E+00
  1.00800000E+00  0.00000000E+00  1.60000000E+01  1.00800000E+00  1.00800000E+00
  0.00000000E+00  1.60000000E+01  1.00800000E+00  1.00800000E+00  0.00000000E+00
  1.60000000E+01  1.00800000E+00  1.00800000E+00  0.00000000E+00  1.60000000E+01
  1.00800000E+00  1.00800000E+00  0.00000000E+00  1.60000000E+01  1.00800000E+00
  1.00800000E+00  0.00000000E+00  1.60000000E+01  1.00800000E+00  1.00800000E+00
  0.00000000E+00  1.60000000E+01  1.00800000E+00  1.00800000E+00  0.00000000E+00
  1.60000000E+01  1.00800000E+00  1.00800000E+00  0.00000000E+00  1.60000000E+01
  1.00800000E+00  1.00800000E+00  0.00000000E+00  1.60000000E+01  1.00800000E+00
  1.00800000E+00  0.00000000E+00  1.60000000E+01  1.00800000E+00  1.00800000E+00
  0.00000000E+00  1.60000000E+01  1.00800000E+00  1.00800000E+00  0.00000000E+00
  1.60000000E+01  1.00800000E+00  1.00800000E+00  0.00000000E+00  1.60000000E+01
  1.00800000E+00  1.00800000E+00  0.00000000E+00  1.60000000E+01  1.00800000E+00
  1.00800000E+00  0.00000000E+00  1.60000000E+01  1.00800000E+00  1.00800000E+00
  0.00000000E+00  1.60000000E+01  1.00800000E+00  1.00800000E+00  0.00000000E+00
  1.60000000E+01  1.00800000E+00  1.00800000E+00  0.00000000E+00  1.60000000E+01
  1.00800000E+00  1.00800000E+00  0.00000000E+00  1.60000000E+01  1.00800000E+00
  1.00800000E+00  0.00000000E+00  1.60000000E+01  1.00800000E+00  1.00800000E+00
  0.00000000E+00  1.60000000E+01  1.00800000E+00  1.00800000E+00  0.00000000E+00
  1.60000000E+01  1.00800000E+00  1.00800000E+00  0.00000000E+00  1.60000000E+01
  1.00800000E+00  1.00800000E+00  0.00000000E+00  1.60000000E+01  1.00800000E+00
  1.00800000E+00  0.00000000E+00  1.60000000E+01  1.00800000E+00  1.00800000E+00
  0.00000000E+00  1.60000000E+01  1.00800000E+00  1.00800000E+00  0.00000000E+00
  1.60000000E+01  1.00800000E+00  1.00800000E+00  0.00000000E+00  1.60000000E+01
  1.00800000E+00  1.00800000E+00  0.00000000E+00  1.60000000E+01  1.00800000E+00
  1.00800000E+00  0.00000000E+00  1.60000000E+01  1.00800000E+00  1.00800000E+00
  0.00000000E+00  1.60000000E+01  1.00800000E+00  1.00800000E+00  0.00000000E+00
  1.60000000E+01  1.00800000E+00  1.00800000E+00  0.00000000E+00  1.60000000E+01
  1.00800000E+00  1.00800000E+00  0.00000000E+00  1.60000000E+01  1.00800000E+00
  1.00800000E+00  0.00000000E+00  1.60000000E+01  1.00800000E+00  1.00800000E+00
  0.00000000E+00  1.60000000E+01  1.00800000E+00  1.00800000E+00  0.00000000E+00
  1.60000000E+01  1.00800000E+00  1.00800000E+00  0.00000000E+00  1.60000000E+01
  1.00800000E+00  1.00800000E+00  0.00000000E+00  1.60000000E+01  1.00800000E+00
  1.00800000E+00  0.00000000E+00  1.60000000E+01  1.00800000E+00  1.00800000E+00
  0.00000000E+00  1.60000000E+01  1.00800000E+00  1.00800000E+00  0.00000000E+00
  1.60000000E+01  1.00800000E+00  1.00800000E+00  0.00000000E+00  1.60000000E+01
  1.00800000E+00  1.00800000E+00  0.00000000E+00  1.60000000E+01  1.00800000E+00
  1.00800000E+00  0.00000000E+00  1.60000000E+01  1.00800000E+00  1.00800000E+00
  0.00000000E+00  1.60000000E+01  1.00800000E+00  1.00800000E+00  0.00000000E+00
  1.60000000E+01  1.00800000E+00  1.00800000E+00  0.00000000E+00  1.60000000E+01
  1.00800000E+00  1.00800000E+00  0.00000000E+00  1.60000000E+01  1.00800000E+00
  1.00800000E+00  0.00000000E+00  1.60000000E+01  1.00800000E+00  1.00800000E+00
  0.00000000E+00  1.60000000E+01  1.00800000E+00  1.00800000E+00  0.00000000E+00
  1.60000000E+01  1.00800000E+00  1.00800000E+00  0.00000000E+00  1.60000000E+01
  1.00800000E+00  1.00800000E+00  0.00000000E+00  1.60000000E+01  1.00800000E+00
  1.00800000E+00  0.00000000E+00  1.60000000E+01  1.00800000E+00  1.00800000E+00
  0.00000000E+00  1.60000000E+01  1.00800000E+00  1.00800000E+00  0.00000000E+00
  1.60000000E+01  1.00800000E+00  1.00800000E+00  0.00000000E+00  1.60000000E+01
  1.00800000E+00  1.00800000E+00  0.00000000E+00  1.60000000E+01  1.00800000E+00
  1.00800000E+00  0.00000000E+00  1.60000000E+01  1.00800000E+00  1.00800000E+00
  0.00000000E+00  1.60000000E+01  1.00800000E+00  1.00800000E+00  0.00000000E+00
  1.60000000E+01  1.00800000E+00  1.00800000E+00  0.00000000E+00  1.60000000E+01
  1.00800000E+00  1.00800000E+00  0.00000000E+00  1.60000000E+01  1.00800000E+00
  1.00800000E+00  0.00000000E+00  1.60000000E+01  1.00800000E+00  1.00800000E+00
  0.00000000E+00  1.60000000E+01  1.00800000E+00  1.00800000E+00  0.00000000E+00
  1.60000000E+01  1.00800000E+00  1.00800000E+00  0.00000000E+00  1.60000000E+01
  1.00800000E+00  1.00800000E+00  0.00000000E+00  1.60000000E+01  1.00800000E+00
  1.00800000E+00  0.00000000E+00  1.60000000E+01  1.00800000E+00  1.00800000E+00
  0.00000000E+00  1.60000000E+01  1.00800000E+00  1.00800000E+00  0.00000000E+00
  1.60000000E+01  1.00800000E+00  1.00800000E+00  0.00000000E+00  1.60000000E+01
  1.00800000E+00  1.00800000E+00  0.00000000E+00  1.60000000E+01  1.00800000E+00
  1.00800000E+00  0.00000000E+00  1.60000000E+01  1.00800000E+00  1.00800000E+00
  0.00000000E+00  1.60000000E+01  1.00800000E+00  1.00800000E+00  0.00000000E+00
  1.60000000E+01  1.00800000E+00  1.00800000E+00  0.00000000E+00  1.60000000E+01
  1.00800000E+00  1.00800000E+00  0.00000000E+00  1.60000000E+01  1.00800000E+00
  1.00800000E+00  0.00000000E+00  1.60000000E+01  1.00800000E+00  1.00800000E+00
  0.00000000E+00  1.60000000E+01  1.00800000E+00  1.00800000E+00  0.00000000E+00
  1.60000000E+01  1.00800000E+00  1.00800000E+00  0.00000000E+00  1.60000000E+01
  1.00800000E+00  1.00800000E+00  0.00000000E+00  1.60000000E+01  1.00800000E+00
  1.00800000E+00  0.00000000E+00  1.60000000E+01  1.00800000E+00  1.00800000E+00
  0.00000000E+00  1.60000000E+01  1.00800000E+00  1.00800000E+00  0.00000000E+00
  1.60000000E+01  1.00800000E+00  1.00800000E+00  0.00000000E+00  1.60000000E+01
  1.00800000E+00  1.00800000E+00  0.00000000E+00  1.60000000E+01  1.00800000E+00
  1.00800000E+00  0.00000000E+00  1.60000000E+01  1.00800000E+00  1.00800000E+00
  0.00000000E+00  1.60000000E+01  1.00800000E+00  1.00800000E+00  0.00000000E+00
  1.60000000E+01  1.00800000E+00  1.00800000E+00  0.00000000E+00  1.60000000E+01
  1.00800000E+00  1.00800000E+00  0.00000000E+00  1.60000000E+01  1.00800000E+00
  1.00800000E+00  0.00000000E+00  1.60000000E+01  1.00800000E+00  1.00800000E+00
  0.00000000E+00  1.60000000E+01  1.00800000E+00  1.00800000E+00  0.00000000E+00
  1.60000000E+01  1.00800000E+00  1.00800000E+00  0.00000000E+00  1.60000000E+01
  1.00800000E+00  1.00800000E+00  0.00000000E+00  1.60000000E+01  1.00800000E+00
  1.00800000E+00  0.00000000E+00  1.60000000E+01  1.00800000E+00  1.00800000E+00
  0.00000000E+00  1.60000000E+01  1.00800000E+00  1.00800000E+00  0.00000000E+00
  1.60000000E+01  1.00800000E+00  1.00800000E+00  0.00000000E+00  1.60000000E+01
  1.00800000E+00  1.00800000E+00  0.00000000E+00  1.60000000E+01  1.00800000E+00
  1.00800000E+00  0.00000000E+00  1.60000000E+01  1.00800000E+00  1.00800000E+00
  0.00000000E+00  1.60000000E+01  1.00800000E+00  1.00800000E+00  0.00000000E+00
  1.60000000E+01  1.00800000E+00  1.00800000E+00  0.00000000E+00  1.60000000E+01
  1.00800000E+00  1.00800000E+00  0.00000000E+00  1.60000000E+01  1.00800000E+00
  1.00800000E+00  0.00000000E+00  1.60000000E+01  1.00800000E+00  1.00800000E+00
  0.00000000E+00  1.60000000E+01  1.00800000E+00  1.00800000E+00  0.00000000E+00
  1.60000000E+01  1.00800000E+00  1.00800000E+00  0.00000000E+00  1.60000000E+01
  1.00800000E+00  1.00800000E+00  0.00000000E+00  1.60000000E+01  1.00800000E+00
  1.00800000E+00  0.00000000E+00  1.60000000E+01  1.00800000E+00  1.00800000E+00
  0.00000000E+00  1.60000000E+01  1.00800000E+00  1.00800000E+00  0.00000000E+00
  1.60000000E+01  1.00800000E+00  1.00800000E+00  0.00000000E+00  1.60000000E+01
  1.00800000E+00  1.00800000E+00  0.00000000E+00  1.60000000E+01  1.00800000E+00
  1.00800000E+00  0.00000000E+00  1.60000000E+01  1.00800000E+00  1.00800000E+00
  0.00000000E+00  1.60000000E+01  1.00800000E+00  1.00800000E+00  0.00000000E+00
  1.60000000E+01  1.00800000E+00  1.00800000E+00  0.00000000E+00  1.60000000E+01
  1.00800000E+00  1.00800000E+00  0.00000000E+00  1.60000000E+01  1.00800000E+00
  1.00800000E+00  0.00000000E+00  1.60000000E+01  1.00800000E+00  1.00800000E+00
  0.00000000E+00  1.60000000E+01  1.00800000E+00  1.00800000E+00  0.00000000E+00
  1.60000000E+01  1.00800000E+00  1.00800000E+00  0.00000000E+00  1.60000000E+01
  1.00800000E+00  1.00800000E+00  0.00000000E+00  1.60000000E+01  1.00800000E+00
  1.00800000E+00  0.00000000E+00  1.60000000E+01  1.00800000E+00  1.00800000E+00
  0.00000000E+00  1.60000000E+01  1.00800000E+00  1.00800000E+00  0.00000000E+00
  1.60000000E+01  1.00800000E+00  1.00800000E+00  0.00000000E+00  1.60000000E+01
  1.00800000E+00  1.00800000E+00  0.00000000E+00  1.60000000E+01  1.00800000E+00
  1.00800000E+00  0.00000000E+00  1.60000000E+01  1.00800000E+00  1.00800000E+00
  0.00000000E+00  1.60000000E+01  1.00800000E+00  1.00800000E+00  0.00000000E+00
  1.60000000E+01  1.00800000E+00  1.00800000E+00  0.00000000E+00  1.60000000E+01
  1.00800000E+00  1.00800000E+00  0.00000000E+00  1.60000000E+01  1.00800000E+00
  1.00800000E+00  0.00000000E+00  1.60000000E+01  1.00800000E+00  1.00800000E+00
  0.00000000E+00  1.60000000E+01  1.00800000E+00  1.00800000E+00  0.00000000E+00
  1.60000000E+01  1.00800000E+00  1.00800000E+00  0.00000000E+00  1.60000000E+01
  1.00800000E+00  1.00800000E+00  0.00000000E+00  1.60000000E+01  1.00800000E+00
  1.00800000E+00  0.00000000E+00  1.60000000E+01  1.00800000E+00  1.00800000E+00
  0.00000000E+00  1.60000000E+01  1.00800000E+00  1.00800000E+00  0.00000000E+00
  1.60000000E+01  1.00800000E+00  1.00800000E+00  0.00000000E+00  1.60000000E+01
  1.00800000E+00  1.00800000E+00  0.00000000E+00  1.60000000E+01  1.00800000E+00
  1.00800000E+00  0.00000000E+00  1.60000000E+01  1.00800000E+00  1.00800000E+00
  0.00000000E+00  1.60000000E+01  1.00800000E+00  1.00800000E+00  0.00000000E+00
  1.60000000E+01  1.00800000E+00  1.00800000E+00  0.00000000E+00  1.60000000E+01
  1.00800000E+00  1.00800000E+00  0.00000000E+00  1.60000000E+01  1.00800000E+00
  1.00800000E+00  0.00000000E+00  1.60000000E+01  1.00800000E+00  1.00800000E+00
  0.00000000E+00  1.60000000E+01  1.00800000E+00  1.00800000E+00  0.00000000E+00
  1.60000000E+01  1.00800000E+00  1.00800000E+00  0.00000000E+00  1.60000000E+01
  1.00800000E+00  1.00800000E+00  0.00000000E+00  1.60000000E+01  1.00800000E+00
  1.00800000E+00  0.00000000E+00  1.60000000E+01  1.00800000E+00  1.00800000E+00
  0.00000000E+00  1.60000000E+01  1.00800000E+00  1.00800000E+00  0.00000000E+00
  1.60000000E+01  1.00800000E+00  1.00800000E+00  0.00000000E+00  1.60000000E+01
  1.00800000E+00  1.00800000E+00  0.00000000E+00  1.60000000E+01  1.00800000E+00
  1.00800000E+00  0.00000000E+00  1.60000000E+01  1.00800000E+00  1.00800000E+00
  0.00000000E+00  1.60000000E+01  1.00800000E+00  1.00800000E+00  0.00000000E+00
  1.60000000E+01  1.00800000E+00  1.00800000E+00  0.00000000E+00  1.60000000E+01
  1.00800000E+00  1.00800000E+00  0.00000000E+00  1.60000000E+01  1.00800000E+00
  1.00800000E+00  0.00000000E+00  1.60000000E+01  1.00800000E+00  1.00800000E+00
  0.00000000E+00  1.60000000E+01  1.00800000E+00  1.00800000E+00  0.00000000E+00
  1.60000000E+01  1.00800000E+00  1.00800000E+00  0.00000000E+00  1.60000000E+01
  1.00800000E+00  1.00800000E+00  0.00000000E+00  1.60000000E+01  1.00800000E+00
  1.00800000E+00  0.00000000E+00  1.60000000E+01  1.00800000E+00  1.00800000E+00
  0.00000000E+00  1.60000000E+01  1.00800000E+00  1.00800000E+00  0.00000000E+00
  1.60000000E+01  1.00800000E+00  1.00800000E+00  0.00000000E+00  1.60000000E+01
  1.00800000E+00  1.00800000E+00  0.00000000E+00  1.60000000E+01  1.00800000E+00
  1.00800000E+00  0.00000000E+00  1.60000000E+01  1.00800000E+00  1.00800000E+00
  0.00000000E+00  1.60000000E+01  1.00800000E+00  1.00800000E+00  0.00000000E+00
  1.60000000E+01  1.00800000E+00  1.00800000E+00  0.00000000E+00  1.60000000E+01
  1.00800000E+00  1.00800000E+00  0.00000000E+00  1.60000000E+01  1.00800000E+00
  1.00800000E+00  0.00000000E+00  1.60000000E+01  1.00800000E+00  1.00800000E+00
  0.00000000E+00  1.60000000E+01  1.00800000E+00  1.00800000E+00  0.00000000E+00
  1.60000000E+01  1.00800000E+00  1.00800000E+00  0.00000000E+00  1.60000000E+01
  1.00800000E+00  1.00800000E+00  0.00000000E+00  1.60000000E+01  1.00800000E+00
  1.00800000E+00  0.00000000E+00  1.60000000E+01  1.00800000E+00  1.00800000E+00
  0.00000000E+00  1.60000000E+01  1.00800000E+00  1.00800000E+00  0.00000000E+00
  1.60000000E+01  1.00800000E+00  1.00800000E+00  0.00000000E+00  1.60000000E+01
  1.00800000E+00  1.00800000E+00  0.00000000E+00  1.60000000E+01  1.00800000E+00
  1.00800000E+00  0.00000000E+00  1.60000000E+01  1.00800000E+00  1.00800000E+00
  0.00000000E+00  1.60000000E+01  1.00800000E+00  1.00800000E+00  0.00000000E+00
  1.60000000E+01  1.00800000E+00  1.00800000E+00  0.00000000E+00  1.60000000E+01
  1.00800000E+00  1.00800000E+00  0.00000000E+00  1.60000000E+01  1.00800000E+00
  1.00800000E+00  0.00000000E+00  1.60000000E+01  1.00800000E+00  1.00800000E+00
  0.00000000E+00  1.60000000E+01  1.00800000E+00  1.00800000E+00  0.00000000E+00
  1.60000000E+01  1.00800000E+00  1.00800000E+00  0.00000000E+00  1.60000000E+01
  1.00800000E+00  1.00800000E+00  0.00000000E+00  1.60000000E+01  1.00800000E+00
  1.00800000E+00  0.00000000E+00  1.60000000E+01  1.00800000E+00  1.00800000E+00
  0.00000000E+00  1.60000000E+01  1.00800000E+00  1.00800000E+00  0.00000000E+00
  1.60000000E+01  1.00800000E+00  1.00800000E+00  0.00000000E+00  1.60000000E+01
  1.00800000E+00  1.00800000E+00  0.00000000E+00  1.60000000E+01  1.00800000E+00
  1.00800000E+00  0.00000000E+00  1.60000000E+01  1.00800000E+00  1.00800000E+00
  0.00000000E+00  1.60000000E+01  1.00800000E+00  1.00800000E+00  0.00000000E+00
  1.60000000E+01  1.00800000E+00  1.00800000E+00  0.00000000E+00  1.60000000E+01
  1.00800000E+00  1.00800000E+00  0.00000000E+00  1.60000000E+01  1.00800000E+00
  1.00800000E+00  0.00000000E+00  1.60000000E+01  1.00800000E+00  1.00800000E+00
  0.00000000E+00  1.60000000E+01  1.00800000E+00  1.00800000E+00  0.00000000E+00
  1.60000000E+01  1.00800000E+00  1.00800000E+00  0.00000000E+00  1.60000000E+01
  1.00800000E+00  1.00800000E+00  0.00000000E+00  1.60000000E+01  1.00800000E+00
  1.00800000E+00  0.00000000E+00  1.60000000E+01  1.00800000E+00  1.00800000E+00
  0.00000000E+00  1.60000000E+01  1.00800000E+00  1.00800000E+00  0.00000000E+00
  1.60000000E+01  1.00800000E+00  1.00800000E+00  0.00000000E+00  1.60000000E+01
  1.00800000E+00  1.00800000E+00  0.00000000E+00  1.60000000E+01  1.00800000E+00
  1.00800000E+00  0.00000000E+00  1.60000000E+01  1.00800000E+00  1.00800000E+00
  0.00000000E+00  1.60000000E+01  1.00800000E+00  1.00800000E+00  0.00000000E+00
  1.60000000E+01  1.00800000E+00  1.00800000E+00  0.00000000E+00  1.60000000E+01
  1.00800000E+00  1.00800000E+00  0.00000000E+00  1.60000000E+01  1.00800000E+00
  1.00800000E+00  0.00000000E+00  1.60000000E+01  1.00800000E+00  1.00800000E+00
  0.00000000E+00  1.60000000E+01  1.00800000E+00  1.00800000E+00  0.00000000E+00
  1.60000000E+01  1.00800000E+00  1.00800000E+00  0.00000000E+00  1.60000000E+01
  1.00800000E+00  1.00800000E+00  0.00000000E+00  1.60000000E+01  1.00800000E+00
  1.00800000E+00  0.00000000E+00  1.60000000E+01  1.00800000E+00  1.00800000E+00
  0.00000000E+00  1.60000000E+01  1.00800000E+00  1.00800000E+00  0.00000000E+00
  1.60000000E+01  1.00800000E+00  1.00800000E+00  0.00000000E+00  1.60000000E+01
  1.00800000E+00  1.00800000E+00  0.00000000E+00  1.60000000E+01  1.00800000E+00
  1.00800000E+00  0.00000000E+00  1.60000000E+01  1.00800000E+00  1.00800000E+00
  0.00000000E+00  1.60000000E+01  1.00800000E+00  1.00800000E+00  0.00000000E+00
  1.60000000E+01  1.00800000E+00  1.00800000E+00  0.00000000E+00  1.60000000E+01
  1.00800000E+00  1.00800000E+00  0.00000000E+00  1.60000000E+01  1.00800000E+00
  1.00800000E+00  0.00000000E+00  1.60000000E+01  1.00800000E+00  1.00800000E+00
  0.00000000E+00  1.60000000E+01  1.00800000E+00  1.00800000E+00  0.00000000E+00
  1.60000000E+01  1.00800000E+00  1.00800000E+00  0.00000000E+00  1.60000000E+01
  1.00800000E+00  1.00800000E+00  0.00000000E+00  1.60000000E+01  1.00800000E+00
  1.00800000E+00  0.00000000E+00  1.60000000E+01  1.00800000E+00  1.00800000E+00
  0.00000000E+00  1.60000000E+01  1.00800000E+00  1.00800000E+00  0.00000000E+00
  1.60000000E+01  1.00800000E+00  1.00800000E+00  0.00000000E+00  1.60000000E+01
  1.00800000E+00  1.00800000E+00  0.00000000E+00  1.60000000E+01  1.00800000E+00
  1.00800000E+00  0.00000000E+00  1.60000000E+01  1.00800000E+00  1.00800000E+00
  0.00000000E+00  1.60000000E+01  1.00800000E+00  1.00800000E+00  0.00000000E+00
  1.60000000E+01  1.00800000E+00  1.00800000E+00  0.00000000E+00  1.60000000E+01
  1.00800000E+00  1.00800000E+00  0.00000000E+00  1.60000000E+01  1.00800000E+00
  1.00800000E+00  0.00000000E+00  1.60000000E+01  1.00800000E+00  1.00800000E+00
  0.00000000E+00  1.60000000E+01  1.00800000E+00  1.00800000E+00  0.00000000E+00
  1.60000000E+01  1.00800000E+00  1.00800000E+00  0.00000000E+00  1.60000000E+01
  1.00800000E+00  1.00800000E+00  0.00000000E+00  1.60000000E+01  1.00800000E+00
  1.00800000E+00  0.00000000E+00  1.60000000E+01  1.00800000E+00  1.00800000E+00
  0.00000000E+00  1.60000000E+01  1.00800000E+00  1.00800000E+00  0.00000000E+00
  1.60000000E+01  1.00800000E+00  1.00800000E+00  0.00000000E+00  1.60000000E+01
  1.00800000E+00  1.00800000E+00  0.00000000E+00  1.60000000E+01  1.00800000E+00
  1.00800000E+00  0.00000000E+00  1.60000000E+01  1.00800000E+00  1.00800000E+00
  0.00000000E+00  1.60000000E+01  1.00800000E+00  1.00800000E+00  0.00000000E+00
  1.60000000E+01  1.00800000E+00  1.00800000E+00  0.00000000E+00  1.60000000E+01
  1.00800000E+00  1.00800000E+00  0.00000000E+00  1.60000000E+01  1.00800000E+00
  1.00800000E+00  0.00000000E+00  1.60000000E+01  1.00800000E+00  1.00800000E+00
  0.00000000E+00  1.60000000E+01  1.00800000E+00  1.00800000E+00  0.00000000E+00
  1.60000000E+01  1.00800000E+00  1.00800000E+00  0.00000000E+00  1.60000000E+01
  1.00800000E+00  1.00800000E+00  0.00000000E+00  1.60000000E+01  1.00800000E+00
  1.00800000E+00  0.00000000E+00  1.60000000E+01  1.00800000E+00  1.00800000E+00
  0.00000000E+00  1.60000000E+01  1.00800000E+00  1.00800000E+00  0.00000000E+00
  1.60000000E+01  1.00800000E+00  1.00800000E+00  0.00000000E+00  1.60000000E+01
  1.00800000E+00  1.00800000E+00  0.00000000E+00  1.60000000E+01  1.00800000E+00
  1.00800000E+00  0.00000000E+00  1.60000000E+01  1.00800000E+00  1.00800000E+00
  0.00000000E+00  1.60000000E+01  1.00800000E+00  1.00800000E+00  0.00000000E+00
  1.60000000E+01  1.00800000E+00  1.00800000E+00  0.00000000E+00  1.60000000E+01
  1.00800000E+00  1.00800000E+00  0.00000000E+00  1.60000000E+01  1.00800000E+00
  1.00800000E+00  0.00000000E+00  1.60000000E+01  1.00800000E+00  1.00800000E+00
  0.00000000E+00  1.60000000E+01  1.00800000E+00  1.00800000E+00  0.00000000E+00
  1.60000000E+01  1.00800000E+00  1.00800000E+00  0.00000000E+00  1.60000000E+01
  1.00800000E+00  1.00800000E+00  0.00000000E+00  1.60000000E+01  1.00800000E+00
  1.00800000E+00  0.00000000E+00  1.60000000E+01  1.00800000E+00  1.00800000E+00
  0.00000000E+00  1.60000000E+01  1.00800000E+00  1.00800000E+00  0.00000000E+00
  1.60000000E+01  1.00800000E+00  1.00800000E+00  0.00000000E+00  1.60000000E+01
  1.00800000E+00  1.00800000E+00  0.00000000E+00  1.60000000E+01  1.00800000E+00
  1.00800000E+00  0.00000000E+00  1.60000000E+01  1.00800000E+00  1.00800000E+00
  0.00000000E+00  1.60000000E+01  1.00800000E+00  1.00800000E+00  0.00000000E+00
  1.60000000E+01  1.00800000E+00  1.00800000E+00  0.00000000E+00  1.60000000E+01
  1.00800000E+00  1.00800000E+00  0.00000000E+00  1.60000000E+01  1.00800000E+00
  1.00800000E+00  0.00000000E+00  1.60000000E+01  1.00800000E+00  1.00800000E+00
  0.00000000E+00  1.60000000E+01  1.00800000E+00  1.00800000E+00  0.00000000E+00
  1.60000000E+01  1.00800000E+00  1.00800000E+00  0.00000000E+00  1.60000000E+01
  1.00800000E+00  1.00800000E+00  0.00000000E+00  1.60000000E+01  1.00800000E+00
  1.00800000E+00  0.00000000E+00  1.60000000E+01  1.00800000E+00  1.00800000E+00
  0.00000000E+00  1.60000000E+01  1.00800000E+00  1.00800000E+00  0.00000000E+00
  1.60000000E+01  1.00800000E+00  1.00800000E+00  0.00000000E+00  1.60000000E+01
  1.00800000E+00  1.00800000E+00  0.00000000E+00  1.60000000E+01  1.00800000E+00
  1.00800000E+00  0.00000000E+00  1.60000000E+01  1.00800000E+00  1.00800000E+00
  0.00000000E+00  1.60000000E+01  1.00800000E+00  1.00800000E+00  0.00000000E+00
  1.60000000E+01  1.00800000E+00  1.00800000E+00  0.00000000E+00  1.60000000E+01
  1.00800000E+00  1.00800000E+00  0.00000000E+00  1.60000000E+01  1.00800000E+00
  1.00800000E+00  0.00000000E+00  1.60000000E+01  1.00800000E+00  1.00800000E+00
  0.00000000E+00  1.60000000E+01  1.00800000E+00  1.00800000E+00  0.00000000E+00
  1.60000000E+01  1.00800000E+00  1.00800000E+00  0.00000000E+00  1.60000000E+01
  1.00800000E+00  1.00800000E+00  0.00000000E+00  1.60000000E+01  1.00800000E+00
  1.00800000E+00  0.00000000E+00  1.60000000E+01  1.00800000E+00  1.00800000E+00
  0.00000000E+00  1.60000000E+01  1.00800000E+00  1.00800000E+00  0.00000000E+00
  1.60000000E+01  1.00800000E+00  1.00800000E+00  0.00000000E+00  1.60000000E+01
  1.00800000E+00  1.00800000E+00  0.00000000E+00  1.60000000E+01  1.00800000E+00
  1.00800000E+00  0.00000000E+00  1.60000000E+01  1.00800000E+00  1.00800000E+00
  0.00000000E+00  1.60000000E+01  1.00800000E+00  1.00800000E+00  0.00000000E+00
  1.60000000E+01  1.00800000E+00  1.00800000E+00  0.00000000E+00  1.60000000E+01
  1.00800000E+00  1.00800000E+00  0.00000000E+00  1.60000000E+01  1.00800000E+00
  1.00800000E+00  0.00000000E+00  1.60000000E+01  1.00800000E+00  1.00800000E+00
  0.00000000E+00  1.60000000E+01  1.00800000E+00  1.00800000E+00  0.00000000E+00
  1.60000000E+01  1.00800000E+00  1.00800000E+00  0.00000000E+00  1.60000000E+01
  1.00800000E+00  1.00800000E+00  0.00000000E+00  1.60000000E+01  1.00800000E+00
  1.00800000E+00  0.00000000E+00  1.60000000E+01  1.00800000E+00  1.00800000E+00
  0.00000000E+00  1.60000000E+01  1.00800000E+00  1.00800000E+00  0.00000000E+00
  1.60000000E+01  1.00800000E+00  1.00800000E+00  0.00000000E+00  1.60000000E+01
  1.00800000E+00  1.00800000E+00  0.00000000E+00  1.60000000E+01  1.00800000E+00
  1.00800000E+00  0.00000000E+00  1.60000000E+01  1.00800000E+00  1.00800000E+00
  0.00000000E+00  1.60000000E+01  1.00800000E+00  1.00800000E+00  0.00000000E+00
  1.60000000E+01  1.00800000E+00  1.00800000E+00  0.00000000E+00  1.60000000E+01
  1.00800000E+00  1.00800000E+00  0.00000000E+00  1.60000000E+01  1.00800000E+00
  1.00800000E+00  0.00000000E+00  1.60000000E+01  1.00800000E+00  1.00800000E+00
  0.00000000E+00  1.60000000E+01  1.00800000E+00  1.00800000E+00  0.00000000E+00
  1.60000000E+01  1.00800000E+00  1.00800000E+00  0.00000000E+00  1.60000000E+01
  1.00800000E+00  1.00800000E+00  0.00000000E+00  1.60000000E+01  1.00800000E+00
  1.00800000E+00  0.00000000E+00  1.60000000E+01  1.00800000E+00  1.00800000E+00
  0.00000000E+00  1.60000000E+01  1.00800000E+00  1.00800000E+00  0.00000000E+00
  1.60000000E+01  1.00800000E+00  1.00800000E+00  0.00000000E+00  1.60000000E+01
  1.00800000E+00  1.00800000E+00  0.00000000E+00  1.60000000E+01  1.00800000E+00
  1.00800000E+00  0.00000000E+00  1.60000000E+01  1.00800000E+00  1.00800000E+00
  0.00000000E+00  1.60000000E+01  1.00800000E+00  1.00800000E+00  0.00000000E+00
  1.60000000E+01  1.00800000E+00  1.00800000E+00  0.00000000E+00  1.60000000E+01
  1.00800000E+00  1.00800000E+00  0.00000000E+00  1.60000000E+01  1.00800000E+00
  1.00800000E+00  0.00000000E+00  1.60000000E+01  1.00800000E+00  1.00800000E+00
  0.00000000E+00  1.60000000E+01  1.00800000E+00  1.00800000E+00  0.00000000E+00
  1.60000000E+01  1.00800000E+00  1.00800000E+00  0.00000000E+00  1.60000000E+01
  1.00800000E+00  1.00800000E+00  0.00000000E+00  1.60000000E+01  1.00800000E+00
  1.00800000E+00  0.00000000E+00  1.60000000E+01  1.00800000E+00  1.00800000E+00
  0.00000000E+00  1.60000000E+01  1.00800000E+00  1.00800000E+00  0.00000000E+00
  1.60000000E+01  1.00800000E+00  1.00800000E+00  0.00000000E+00  1.60000000E+01
  1.00800000E+00  1.00800000E+00  0.00000000E+00  1.60000000E+01  1.00800000E+00
  1.00800000E+00  0.00000000E+00  1.60000000E+01  1.00800000E+00  1.00800000E+00
  0.00000000E+00  1.60000000E+01  1.00800000E+00  1.00800000E+00  0.00000000E+00
  1.60000000E+01  1.00800000E+00  1.00800000E+00  0.00000000E+00  1.60000000E+01
  1.00800000E+00  1.00800000E+00  0.00000000E+00  1.60000000E+01  1.00800000E+00
  1.00800000E+00  0.00000000E+00  1.60000000E+01  1.00800000E+00  1.00800000E+00
  0.00000000E+00  1.60000000E+01  1.00800000E+00  1.00800000E+00  0.00000000E+00
  1.60000000E+01  1.00800000E+00  1.00800000E+00  0.00000000E+00  1.60000000E+01
  1.00800000E+00  1.00800000E+00  0.00000000E+00  1.60000000E+01  1.00800000E+00
  1.00800000E+00  0.00000000E+00  1.60000000E+01  1.00800000E+00  1.00800000E+00
  0.00000000E+00  1.60000000E+01  1.00800000E+00  1.00800000E+00  0.00000000E+00
  1.60000000E+01  1.00800000E+00  1.00800000E+00  0.00000000E+00  1.60000000E+01
  1.00800000E+00  1.00800000E+00  0.00000000E+00  1.60000000E+01  1.00800000E+00
  1.00800000E+00  0.00000000E+00  1.60000000E+01  1.00800000E+00  1.00800000E+00
  0.00000000E+00  1.60000000E+01  1.00800000E+00  1.00800000E+00  0.00000000E+00
  1.60000000E+01  1.00800000E+00  1.00800000E+00  0.00000000E+00  1.60000000E+01
  1.00800000E+00  1.00800000E+00  0.00000000E+00  1.60000000E+01  1.00800000E+00
  1.00800000E+00  0.00000000E+00  1.60000000E+01  1.00800000E+00  1.00800000E+00
  0.00000000E+00  1.60000000E+01  1.00800000E+00  1.00800000E+00  0.00000000E+00
  1.60000000E+01  1.00800000E+00  1.00800000E+00  0.00000000E+00  1.60000000E+01
  1.00800000E+00  1.00800000E+00  0.00000000E+00  1.60000000E+01  1.00800000E+00
  1.00800000E+00  0.00000000E+00  1.60000000E+01  1.00800000E+00  1.00800000E+00
  0.00000000E+00  1.60000000E+01  1.00800000E+00  1.00800000E+00  0.00000000E+00
  1.60000000E+01  1.00800000E+00  1.00800000E+00  0.00000000E+00  1.60000000E+01
  1.00800000E+00  1.00800000E+00  0.00000000E+00  1.60000000E+01  1.00800000E+00
  1.00800000E+00  0.00000000E+00  1.60000000E+01  1.00800000E+00  1.00800000E+00
  0.00000000E+00  1.60000000E+01  1.00800000E+00  1.00800000E+00  0.00000000E+00
  1.60000000E+01  1.00800000E+00  1.00800000E+00  0.00000000E+00  1.60000000E+01
  1.00800000E+00  1.00800000E+00  0.00000000E+00  1.60000000E+01  1.00800000E+00
  1.00800000E+00  0.00000000E+00  1.60000000E+01  1.00800000E+00  1.00800000E+00
  0.00000000E+00  1.60000000E+01  1.00800000E+00  1.00800000E+00  0.00000000E+00
  1.60000000E+01  1.00800000E+00  1.00800000E+00  0.00000000E+00  1.60000000E+01
  1.00800000E+00  1.00800000E+00  0.00000000E+00  1.60000000E+01  1.00800000E+00
  1.00800000E+00  0.00000000E+00  1.60000000E+01  1.00800000E+00  1.00800000E+00
  0.00000000E+00  1.60000000E+01  1.00800000E+00  1.00800000E+00  0.00000000E+00
  1.60000000E+01  1.00800000E+00  1.00800000E+00  0.00000000E+00  1.60000000E+01
  1.00800000E+00  1.00800000E+00  0.00000000E+00  1.60000000E+01  1.00800000E+00
  1.00800000E+00  0.00000000E+00  1.60000000E+01  1.00800000E+00  1.00800000E+00
  0.00000000E+00  1.60000000E+01  1.00800000E+00  1.00800000E+00  0.00000000E+00
  1.60000000E+01  1.00800000E+00  1.00800000E+00  0.00000000E+00  1.60000000E+01
  1.00800000E+00  1.00800000E+00  0.00000000E+00  1.60000000E+01  1.00800000E+00
  1.00800000E+00  0.00000000E+00  1.60000000E+01  1.00800000E+00  1.00800000E+00
  0.00000000E+00  1.60000000E+01  1.00800000E+00  1.00800000E+00  0.00000000E+00
  1.60000000E+01  1.00800000E+00  1.00800000E+00  0.00000000E+00  1.60000000E+01
  1.00800000E+00  1.00800000E+00  0.00000000E+00  1.60000000E+01  1.00800000E+00
  1.00800000E+00  0.00000000E+00  1.60000000E+01  1.00800000E+00  1.00800000E+00
  0.00000000E+00  1.60000000E+01  1.00800000E+00  1.00800000E+00  0.00000000E+00
  1.60000000E+01  1.00800000E+00  1.00800000E+00  0.00000000E+00  1.60000000E+01
  1.00800000E+00  1.00800000E+00  0.00000000E+00  1.60000000E+01  1.00800000E+00
  1.00800000E+00  0.00000000E+00  1.60000000E+01  1.00800000E+00  1.00800000E+00
  0.00000000E+00  1.60000000E+01  1.00800000E+00  1.00800000E+00  0.00000000E+00
  1.60000000E+01  1.00800000E+00  1.00800000E+00  0.00000000E+00  1.60000000E+01
  1.00800000E+00  1.00800000E+00  0.00000000E+00  1.60000000E+01  1.00800000E+00
  1.00800000E+00  0.00000000E+00  1.60000000E+01  1.00800000E+00  1.00800000E+00
  0.00000000E+00  1.60000000E+01  1.00800000E+00  1.00800000E+00  0.00000000E+00
  1.60000000E+01  1.00800000E+00  1.00800000E+00  0.00000000E+00  1.60000000E+01
  1.00800000E+00  1.00800000E+00  0.00000000E+00  1.60000000E+01  1.00800000E+00
  1.00800000E+00  0.00000000E+00  1.60000000E+01  1.00800000E+00  1.00800000E+00
  0.00000000E+00  1.60000000E+01  1.00800000E+00  1.00800000E+00  0.00000000E+00
  1.60000000E+01  1.00800000E+00  1.00800000E+00  0.00000000E+00  1.60000000E+01
  1.00800000E+00  1.00800000E+00  0.00000000E+00  1.60000000E+01  1.00800000E+00
  1.00800000E+00  0.00000000E+00  1.60000000E+01  1.00800000E+00  1.00800000E+00
  0.00000000E+00  1.60000000E+01  1.00800000E+00  1.00800000E+00  0.00000000E+00
  1.60000000E+01  1.00800000E+00  1.00800000E+00  0.00000000E+00  1.60000000E+01
  1.00800000E+00  1.00800000E+00  0.00000000E+00  1.60000000E+01  1.00800000E+00
  1.00800000E+00  0.00000000E+00  1.60000000E+01  1.00800000E+00  1.00800000E+00
  0.00000000E+00  1.60000000E+01  1.00800000E+00  1.00800000E+00  0.00000000E+00
  1.60000000E+01  1.00800000E+00  1.00800000E+00  0.00000000E+00  1.60000000E+01
  1.00800000E+00  1.00800000E+00  0.00000000E+00  1.60000000E+01  1.00800000E+00
  1.00800000E+00  0.00000000E+00  1.60000000E+01  1.00800000E+00  1.00800000E+00
  0.00000000E+00  1.60000000E+01  1.00800000E+00  1.00800000E+00  0.00000000E+00
  1.60000000E+01  1.00800000E+00  1.00800000E+00  0.00000000E+00  1.60000000E+01
  1.00800000E+00  1.00800000E+00  0.00000000E+00  1.60000000E+01  1.00800000E+00
  1.00800000E+00  0.00000000E+00  1.60000000E+01  1.00800000E+00  1.00800000E+00
  0.00000000E+00  1.60000000E+01  1.00800000E+00  1.00800000E+00  0.00000000E+00
  1.60000000E+01  1.00800000E+00  1.00800000E+00  0.00000000E+00  1.60000000E+01
  1.00800000E+00  1.00800000E+00  0.00000000E+00  1.60000000E+01  1.00800000E+00
  1.00800000E+00  0.00000000E+00  1.60000000E+01  1.00800000E+00  1.00800000E+00
  0.00000000E+00  1.60000000E+01  1.00800000E+00  1.00800000E+00  0.00000000E+00
  1.60000000E+01  1.00800000E+00  1.00800000E+00  0.00000000E+00  1.60000000E+01
  1.00800000E+00  1.00800000E+00  0.00000000E+00  1.60000000E+01  1.00800000E+00
  1.00800000E+00  0.00000000E+00  1.60000000E+01  1.00800000E+00  1.00800000E+00
  0.00000000E+00  1.60000000E+01  1.00800000E+00  1.00800000E+00  0.00000000E+00
  1.60000000E+01  1.00800000E+00  1.00800000E+00  0.00000000E+00  1.60000000E+01
  1.00800000E+00  1.00800000E+00  0.00000000E+00  1.60000000E+01  1.00800000E+00
  1.00800000E+00  0.00000000E+00  1.60000000E+01  1.00800000E+00  1.00800000E+00
  0.00000000E+00  1.60000000E+01  1.00800000E+00  1.00800000E+00  0.00000000E+00
  1.60000000E+01  1.00800000E+00  1.00800000E+00  0.00000000E+00  1.60000000E+01
  1.00800000E+00  1.00800000E+00  0.00000000E+00  1.60000000E+01  1.00800000E+00
  1.00800000E+00  0.00000000E+00  1.60000000E+01  1.00800000E+00  1.00800000E+00
  0.00000000E+00  1.60000000E+01  1.00800000E+00  1.00800000E+00  0.00000000E+00
  1.60000000E+01  1.00800000E+00  1.00800000E+00  0.00000000E+00  1.60000000E+01
  1.00800000E+00  1.00800000E+00  0.00000000E+00  1.60000000E+01  1.00800000E+00
  1.00800000E+00  0.00000000E+00  1.60000000E+01  1.00800000E+00  1.00800000E+00
  0.00000000E+00  1.60000000E+01  1.00800000E+00  1.00800000E+00  0.00000000E+00
  1.60000000E+01  1.00800000E+00  1.00800000E+00  0.00000000E+00  1.60000000E+01
  1.00800000E+00  1.00800000E+00  0.00000000E+00  1.60000000E+01  1.00800000E+00
  1.00800000E+00  0.00000000E+00  1.60000000E+01  1.00800000E+00  1.00800000E+00
  0.00000000E+00  1.60000000E+01  1.00800000E+00  1.00800000E+00  0.00000000E+00
  1.60000000E+01  1.00800000E+00  1.00800000E+00  0.00000000E+00  1.60000000E+01
  1.00800000E+00  1.00800000E+00  0.00000000E+00  1.60000000E+01  1.00800000E+00
  1.00800000E+00  0.00000000E+00  1.60000000E+01  1.00800000E+00  1.00800000E+00
  0.00000000E+00  1.60000000E+01  1.00800000E+00  1.00800000E+00  0.00000000E+00
  1.60000000E+01  1.00800000E+00  1.00800000E+00  0.00000000E+00  1.60000000E+01
  1.00800000E+00  1.00800000E+00  0.00000000E+00  1.60000000E+01  1.00800000E+00
  1.00800000E+00  0.00000000E+00  1.60000000E+01  1.00800000E+00  1.00800000E+00
  0.00000000E+00  1.60000000E+01  1.00800000E+00  1.00800000E+00  0.00000000E+00
  1.60000000E+01  1.00800000E+00  1.00800000E+00  0.00000000E+00  1.60000000E+01
  1.00800000E+00  1.00800000E+00  0.00000000E+00  1.60000000E+01  1.00800000E+00
  1.00800000E+00  0.00000000E+00  1.60000000E+01  1.00800000E+00  1.00800000E+00
  0.00000000E+00  1.60000000E+01  1.00800000E+00  1.00800000E+00  0.00000000E+00
  1.60000000E+01  1.00800000E+00  1.00800000E+00  0.00000000E+00  1.60000000E+01
  1.00800000E+00  1.00800000E+00  0.00000000E+00  1.60000000E+01  1.00800000E+00
  1.00800000E+00  0.00000000E+00  1.60000000E+01  1.00800000E+00  1.00800000E+00
  0.00000000E+00  1.60000000E+01  1.00800000E+00  1.00800000E+00  0.00000000E+00
  1.60000000E+01  1.00800000E+00  1.00800000E+00  0.00000000E+00  1.60000000E+01
  1.00800000E+00  1.00800000E+00  0.00000000E+00  1.60000000E+01  1.00800000E+00
  1.00800000E+00  0.00000000E+00  1.60000000E+01  1.00800000E+00  1.00800000E+00
  0.00000000E+00  1.60000000E+01  1.00800000E+00  1.00800000E+00  0.00000000E+00
  1.60000000E+01  1.00800000E+00  1.00800000E+00  0.00000000E+00  1.60000000E+01
  1.00800000E+00  1.00800000E+00  0.00000000E+00  1.60000000E+01  1.00800000E+00
  1.00800000E+00  0.00000000E+00  1.60000000E+01  1.00800000E+00  1.00800000E+00
  0.00000000E+00  1.60000000E+01  1.00800000E+00  1.00800000E+00  0.00000000E+00
  1.60000000E+01  1.00800000E+00  1.00800000E+00  0.00000000E+00  1.60000000E+01
  1.00800000E+00  1.00800000E+00  0.00000000E+00  1.60000000E+01  1.00800000E+00
  1.00800000E+00  0.00000000E+00  1.60000000E+01  1.00800000E+00  1.00800000E+00
  0.00000000E+00  1.60000000E+01  1.00800000E+00  1.00800000E+00  0.00000000E+00
  1.60000000E+01  1.00800000E+00  1.00800000E+00  0.00000000E+00  1.60000000E+01
  1.00800000E+00  1.00800000E+00  0.00000000E+00  1.60000000E+01  1.00800000E+00
  1.00800000E+00  0.00000000E+00  1.60000000E+01  1.00800000E+00  1.00800000E+00
  0.00000000E+00  1.60000000E+01  1.00800000E+00  1.00800000E+00  0.00000000E+00
  1.60000000E+01  1.00800000E+00  1.00800000E+00  0.00000000E+00  1.60000000E+01
  1.00800000E+00  1.00800000E+00  0.00000000E+00  1.60000000E+01  1.00800000E+00
  1.00800000E+00  0.00000000E+00  1.60000000E+01  1.00800000E+00  1.00800000E+00
  0.00000000E+00  1.60000000E+01  1.00800000E+00  1.00800000E+00  0.00000000E+00
  1.60000000E+01  1.00800000E+00  1.00800000E+00  0.00000000E+00  1.60000000E+01
  1.00800000E+00  1.00800000E+00  0.00000000E+00  1.60000000E+01  1.00800000E+00
  1.00800000E+00  0.00000000E+00  1.60000000E+01  1.00800000E+00  1.00800000E+00
  0.00000000E+00  1.60000000E+01  1.00800000E+00  1.00800000E+00  0.00000000E+00
  1.60000000E+01  1.00800000E+00  1.00800000E+00  0.00000000E+00  1.60000000E+01
  1.00800000E+00  1.00800000E+00  0.00000000E+00  1.60000000E+01  1.00800000E+00
  1.00800000E+00  0.00000000E+00  1.60000000E+01  1.00800000E+00  1.00800000E+00
  0.00000000E+00  1.60000000E+01  1.00800000E+00  1.00800000E+00  0.00000000E+00
  1.60000000E+01  1.00800000E+00  1.00800000E+00  0.00000000E+00  1.60000000E+01
  1.00800000E+00  1.00800000E+00  0.00000000E+00  1.60000000E+01  1.00800000E+00
  1.00800000E+00  0.00000000E+00  1.60000000E+01  1.00800000E+00  1.00800000E+00
  0.00000000E+00  1.60000000E+01  1.00800000E+00  1.00800000E+00  0.00000000E+00
  1.60000000E+01  1.00800000E+00  1.00800000E+00  0.00000000E+00  1.60000000E+01
  1.00800000E+00  1.00800000E+00  0.00000000E+00  1.60000000E+01  1.00800000E+00
  1.00800000E+00  0.00000000E+00  1.60000000E+01  1.00800000E+00  1.00800000E+00
  0.00000000E+00  1.60000000E+01  1.00800000E+00  1.00800000E+00  0.00000000E+00
  1.60000000E+01  1.00800000E+00  1.00800000E+00  0.00000000E+00  1.60000000E+01
  1.00800000E+00  1.00800000E+00  0.00000000E+00  1.60000000E+01  1.00800000E+00
  1.00800000E+00  0.00000000E+00  1.60000000E+01  1.00800000E+00  1.00800000E+00
  0.00000000E+00  1.60000000E+01  1.00800000E+00  1.00800000E+00  0.00000000E+00
  1.60000000E+01  1.00800000E+00  1.00800000E+00  0.00000000E+00  1.60000000E+01
  1.00800000E+00  1.00800000E+00  0.00000000E+00  1.60000000E+01  1.00800000E+00
  1.00800000E+00  0.00000000E+00  1.60000000E+01  1.00800000E+00  1.00800000E+00
  0.00000000E+00  1.60000000E+01  1.00800000E+00  1.00800000E+00  0.00000000E+00
  1.60000000E+01  1.00800000E+00  1.00800000E+00  0.00000000E+00  1.60000000E+01
  1.00800000E+00  1.00800000E+00  0.00000000E+00  1.60000000E+01  1.00800000E+00
  1.00800000E+00  0.00000000E+00  1.60000000E+01  1.00800000E+00  1.00800000E+00
  0.00000000E+00  1.60000000E+01  1.00800000E+00  1.00800000E+00  0.00000000E+00
  1.60000000E+01  1.00800000E+00  1.00800000E+00  0.00000000E+00  1.60000000E+01
  1.00800000E+00  1.00800000E+00  0.00000000E+00  1.60000000E+01  1.00800000E+00
  1.00800000E+00  0.00000000E+00  1.60000000E+01  1.00800000E+00  1.00800000E+00
  0.00000000E+00  1.60000000E+01  1.00800000E+00  1.00800000E+00  0.00000000E+00
  1.60000000E+01  1.00800000E+00  1.00800000E+00  0.00000000E+00  1.60000000E+01
  1.00800000E+00  1.00800000E+00  0.00000000E+00  1.60000000E+01  1.00800000E+00
  1.00800000E+00  0.00000000E+00  1.60000000E+01  1.00800000E+00  1.00800000E+00
  0.00000000E+00  1.60000000E+01  1.00800000E+00  1.00800000E+00  0.00000000E+00
  1.60000000E+01  1.00800000E+00  1.00800000E+00  0.00000000E+00  1.60000000E+01
  1.00800000E+00  1.00800000E+00  0.00000000E+00  1.60000000E+01  1.00800000E+00
  1.00800000E+00  0.00000000E+00  1.60000000E+01  1.00800000E+00  1.00800000E+00
  0.00000000E+00  1.60000000E+01  1.00800000E+00  1.00800000E+00  0.00000000E+00
  1.60000000E+01  1.00800000E+00  1.00800000E+00  0.00000000E+00  1.60000000E+01
  1.00800000E+00  1.00800000E+00  0.00000000E+00  1.60000000E+01  1.00800000E+00
  1.00800000E+00  0.00000000E+00  1.60000000E+01  1.00800000E+00  1.00800000E+00
  0.00000000E+00  1.60000000E+01  1.00800000E+00  1.00800000E+00  0.00000000E+00
  1.60000000E+01  1.00800000E+00  1.00800000E+00  0.00000000E+00  1.60000000E+01
  1.00800000E+00  1.00800000E+00  0.00000000E+00  1.60000000E+01  1.00800000E+00
  1.00800000E+00  0.00000000E+00  1.60000000E+01  1.00800000E+00  1.00800000E+00
  0.00000000E+00  1.60000000E+01  1.00800000E+00  1.00800000E+00  0.00000000E+00
  1.60000000E+01  1.00800000E+00  1.00800000E+00  0.00000000E+00  1.60000000E+01
  1.00800000E+00  1.00800000E+00  0.00000000E+00  1.60000000E+01  1.00800000E+00
  1.00800000E+00  0.00000000E+00  1.60000000E+01  1.00800000E+00  1.00800000E+00
  0.00000000E+00  1.60000000E+01  1.00800000E+00  1.00800000E+00  0.00000000E+00
  1.60000000E+01  1.00800000E+00  1.00800000E+00  0.00000000E+00  1.60000000E+01
  1.00800000E+00  1.00800000E+00  0.00000000E+00  1.60000000E+01  1.00800000E+00
  1.00800000E+00  0.00000000E+00  1.60000000E+01  1.00800000E+00  1.00800000E+00
  0.00000000E+00  1.60000000E+01  1.00800000E+00  1.00800000E+00  0.00000000E+00
  1.60000000E+01  1.00800000E+00  1.00800000E+00  0.00000000E+00  1.60000000E+01
  1.00800000E+00  1.00800000E+00  0.00000000E+00  1.60000000E+01  1.00800000E+00
  1.00800000E+00  0.00000000E+00  1.60000000E+01  1.00800000E+00  1.00800000E+00
  0.00000000E+00  1.60000000E+01  1.00800000E+00  1.00800000E+00  0.00000000E+00
  1.60000000E+01  1.00800000E+00  1.00800000E+00  0.00000000E+00  1.60000000E+01
  1.00800000E+00  1.00800000E+00  0.00000000E+00  1.60000000E+01  1.00800000E+00
  1.00800000E+00  0.00000000E+00  1.60000000E+01  1.00800000E+00  1.00800000E+00
  0.00000000E+00  1.60000000E+01  1.00800000E+00  1.00800000E+00  0.00000000E+00
  1.60000000E+01  1.00800000E+00  1.00800000E+00  0.00000000E+00  1.60000000E+01
  1.00800000E+00  1.00800000E+00  0.00000000E+00  1.60000000E+01  1.00800000E+00
  1.00800000E+00  0.00000000E+00  1.60000000E+01  1.00800000E+00  1.00800000E+00
  0.00000000E+00  1.60000000E+01  1.00800000E+00  1.00800000E+00  0.00000000E+00
  1.60000000E+01  1.00800000E+00  1.00800000E+00  0.00000000E+00  1.60000000E+01
  1.00800000E+00  1.00800000E+00  0.00000000E+00  1.60000000E+01  1.00800000E+00
  1.00800000E+00  0.00000000E+00  1.60000000E+01  1.00800000E+00  1.00800000E+00
  0.00000000E+00  1.60000000E+01  1.00800000E+00  1.00800000E+00  0.00000000E+00
  1.60000000E+01  1.00800000E+00  1.00800000E+00  0.00000000E+00  1.60000000E+01
  1.00800000E+00  1.00800000E+00  0.00000000E+00  1.60000000E+01  1.00800000E+00
  1.00800000E+00  0.00000000E+00  1.60000000E+01  1.00800000E+00  1.00800000E+00
  0.00000000E+00  1.60000000E+01  1.00800000E+00  1.00800000E+00  0.00000000E+00
  1.60000000E+01  1.00800000E+00  1.00800000E+00  0.00000000E+00  1.60000000E+01
  1.00800000E+00  1.00800000E+00  0.00000000E+00  1.60000000E+01  1.00800000E+00
  1.00800000E+00  0.00000000E+00  1.60000000E+01  1.00800000E+00  1.00800000E+00
  0.00000000E+00  1.60000000E+01  1.00800000E+00  1.00800000E+00  0.00000000E+00
  1.60000000E+01  1.00800000E+00  1.00800000E+00  0.00000000E+00  1.60000000E+01
  1.00800000E+00  1.00800000E+00  0.00000000E+00  1.60000000E+01  1.00800000E+00
  1.00800000E+00  0.00000000E+00  1.60000000E+01  1.00800000E+00  1.00800000E+00
  0.00000000E+00  1.60000000E+01  1.00800000E+00  1.00800000E+00  0.00000000E+00
  1.60000000E+01  1.00800000E+00  1.00800000E+00  0.00000000E+00  1.60000000E+01
  1.00800000E+00  1.00800000E+00  0.00000000E+00  1.60000000E+01  1.00800000E+00
  1.00800000E+00  0.00000000E+00  1.60000000E+01  1.00800000E+00  1.00800000E+00
  0.00000000E+00  1.60000000E+01  1.00800000E+00  1.00800000E+00  0.00000000E+00
  1.60000000E+01  1.00800000E+00  1.00800000E+00  0.00000000E+00  1.60000000E+01
  1.00800000E+00  1.00800000E+00  0.00000000E+00  1.60000000E+01  1.00800000E+00
  1.00800000E+00  0.00000000E+00  1.60000000E+01  1.00800000E+00  1.00800000E+00
  0.00000000E+00  1.60000000E+01  1.00800000E+00  1.00800000E+00  0.00000000E+00
  1.60000000E+01  1.00800000E+00  1.00800000E+00  0.00000000E+00  1.60000000E+01
  1.00800000E+00  1.00800000E+00  0.00000000E+00  1.60000000E+01  1.00800000E+00
  1.00800000E+00  0.00000000E+00  1.60000000E+01  1.00800000E+00  1.00800000E+00
  0.00000000E+00  1.60000000E+01  1.00800000E+00  1.00800000E+00  0.00000000E+00
  1.60000000E+01  1.00800000E+00  1.00800000E+00  0.00000000E+00  1.60000000E+01
  1.00800000E+00  1.00800000E+00  0.00000000E+00  1.60000000E+01  1.00800000E+00
  1.00800000E+00  0.00000000E+00  1.60000000E+01  1.00800000E+00  1.00800000E+00
  0.00000000E+00  1.60000000E+01  1.00800000E+00  1.00800000E+00  0.00000000E+00
  1.60000000E+01  1.00800000E+00  1.00800000E+00  0.00000000E+00  1.60000000E+01
  1.00800000E+00  1.00800000E+00  0.00000000E+00  1.60000000E+01  1.00800000E+00
  1.00800000E+00  0.00000000E+00  1.60000000E+01  1.00800000E+00  1.00800000E+00
  0.00000000E+00  1.60000000E+01  1.00800000E+00  1.00800000E+00  0.00000000E+00
  1.60000000E+01  1.00800000E+00  1.00800000E+00  0.00000000E+00  1.60000000E+01
  1.00800000E+00  1.00800000E+00  0.00000000E+00  1.60000000E+01  1.00800000E+00
  1.00800000E+00  0.00000000E+00  1.60000000E+01  1.00800000E+00  1.00800000E+00
  0.00000000E+00  1.60000000E+01  1.00800000E+00  1.00800000E+00  0.00000000E+00
  1.60000000E+01  1.00800000E+00  1.00800000E+00  0.00000000E+00  1.60000000E+01
  1.00800000E+00  1.00800000E+00  0.00000000E+00  1.60000000E+01  1.00800000E+00
  1.00800000E+00  0.00000000E+00  1.60000000E+01  1.00800000E+00  1.00800000E+00
  0.00000000E+00  1.60000000E+01  1.00800000E+00  1.00800000E+00  0.00000000E+00
  1.60000000E+01  1.00800000E+00  1.00800000E+00  0.00000000E+00  1.60000000E+01
  1.00800000E+00  1.00800000E+00  0.00000000E+00  1.60000000E+01  1.00800000E+00
  1.00800000E+00  0.00000000E+00  1.60000000E+01  1.00800000E+00  1.00800000E+00
  0.00000000E+00  1.60000000E+01  1.00800000E+00  1.00800000E+00  0.00000000E+00
  1.60000000E+01  1.00800000E+00  1.00800000E+00  0.00000000E+00  1.60000000E+01
  1.00800000E+00  1.00800000E+00  0.00000000E+00  1.60000000E+01  1.00800000E+00
  1.00800000E+00  0.00000000E+00  1.60000000E+01  1.00800000E+00  1.00800000E+00
  0.00000000E+00  1.60000000E+01  1.00800000E+00  1.00800000E+00  0.00000000E+00
  1.60000000E+01  1.00800000E+00  1.00800000E+00  0.00000000E+00  1.60000000E+01
  1.00800000E+00  1.00800000E+00  0.00000000E+00  1.60000000E+01  1.00800000E+00
  1.00800000E+00  0.00000000E+00  1.60000000E+01  1.00800000E+00  1.00800000E+00
  0.00000000E+00  1.60000000E+01  1.00800000E+00  1.00800000E+00  0.00000000E+00
  1.60000000E+01  1.00800000E+00  1.00800000E+00  0.00000000E+00  1.60000000E+01
  1.00800000E+00  1.00800000E+00  0.00000000E+00  1.60000000E+01  1.00800000E+00
  1.00800000E+00  0.00000000E+00  1.60000000E+01  1.00800000E+00  1.00800000E+00
  0.00000000E+00  1.60000000E+01  1.00800000E+00  1.00800000E+00  0.00000000E+00
  1.60000000E+01  1.00800000E+00  1.00800000E+00  0.00000000E+00  1.60000000E+01
  1.00800000E+00  1.00800000E+00  0.00000000E+00  1.60000000E+01  1.00800000E+00
  1.00800000E+00  0.00000000E+00  1.60000000E+01  1.00800000E+00  1.00800000E+00
  0.00000000E+00  1.60000000E+01  1.00800000E+00  1.00800000E+00  0.00000000E+00
  1.60000000E+01  1.00800000E+00  1.00800000E+00  0.00000000E+00  1.60000000E+01
  1.00800000E+00  1.00800000E+00  0.00000000E+00  1.60000000E+01  1.00800000E+00
  1.00800000E+00  0.00000000E+00  1.60000000E+01  1.00800000E+00  1.00800000E+00
  0.00000000E+00  1.60000000E+01  1.00800000E+00  1.00800000E+00  0.00000000E+00
  1.60000000E+01  1.00800000E+00  1.00800000E+00  0.00000000E+00  1.60000000E+01
  1.00800000E+00  1.00800000E+00  0.00000000E+00  1.60000000E+01  1.00800000E+00
  1.00800000E+00  0.00000000E+00  1.60000000E+01  1.00800000E+00  1.00800000E+00
  0.00000000E+00  1.60000000E+01  1.00800000E+00  1.00800000E+00  0.00000000E+00
  1.60000000E+01  1.00800000E+00  1.00800000E+00  0.00000000E+00  1.60000000E+01
  1.00800000E+00  1.00800000E+00  0.00000000E+00  1.60000000E+01  1.00800000E+00
  1.00800000E+00  0.00000000E+00  1.60000000E+01  1.00800000E+00  1.00800000E+00
  0.00000000E+00  1.60000000E+01  1.00800000E+00  1.00800000E+00  0.00000000E+00
  1.60000000E+01  1.00800000E+00  1.00800000E+00  0.00000000E+00  1.60000000E+01
  1.00800000E+00  1.00800000E+00  0.00000000E+00  1.60000000E+01  1.00800000E+00
  1.00800000E+00  0.00000000E+00  1.60000000E+01  1.00800000E+00  1.00800000E+00
  0.00000000E+00  1.60000000E+01  1.00800000E+00  1.00800000E+00  0.00000000E+00
  1.60000000E+01  1.00800000E+00  1.00800000E+00  0.00000000E+00  1.60000000E+01
  1.00800000E+00  1.00800000E+00  0.00000000E+00  1.60000000E+01  1.00800000E+00
  1.00800000E+00  0.00000000E+00  1.60000000E+01  1.00800000E+00  1.00800000E+00
  0.00000000E+00  1.60000000E+01  1.00800000E+00  1.00800000E+00  0.00000000E+00
  1.60000000E+01  1.00800000E+00  1.00800000E+00  0.00000000E+00  1.60000000E+01
  1.00800000E+00  1.00800000E+00  0.00000000E+00  1.60000000E+01  1.00800000E+00
  1.00800000E+00  0.00000000E+00  1.60000000E+01  1.00800000E+00  1.00800000E+00
  0.00000000E+00  1.60000000E+01  1.00800000E+00  1.00800000E+00  0.00000000E+00
  1.60000000E+01  1.00800000E+00  1.00800000E+00  0.00000000E+00  1.60000000E+01
  1.00800000E+00  1.00800000E+00  0.00000000E+00  1.60000000E+01  1.00800000E+00
  1.00800000E+00  0.00000000E+00  1.60000000E+01  1.00800000E+00  1.00800000E+00
  0.00000000E+00  1.60000000E+01  1.00800000E+00  1.00800000E+00  0.00000000E+00
  1.60000000E+01  1.00800000E+00  1.00800000E+00  0.00000000E+00  1.60000000E+01
  1.00800000E+00  1.00800000E+00  0.00000000E+00  1.60000000E+01  1.00800000E+00
  1.00800000E+00  0.00000000E+00  1.60000000E+01  1.00800000E+00  1.00800000E+00
  0.00000000E+00  1.60000000E+01  1.00800000E+00  1.00800000E+00  0.00000000E+00
  1.60000000E+01  1.00800000E+00  1.00800000E+00  0.00000000E+00  1.60000000E+01
  1.00800000E+00  1.00800000E+00  0.00000000E+00  1.60000000E+01  1.00800000E+00
  1.00800000E+00  0.00000000E+00  1.60000000E+01  1.00800000E+00  1.00800000E+00
  0.00000000E+00  1.60000000E+01  1.00800000E+00  1.00800000E+00  0.00000000E+00
  1.60000000E+01  1.00800000E+00  1.00800000E+00  0.00000000E+00  1.60000000E+01
  1.00800000E+00  1.00800000E+00  0.00000000E+00  1.60000000E+01  1.00800000E+00
  1.00800000E+00  0.00000000E+00  1.60000000E+01  1.00800000E+00  1.00800000E+00
  0.00000000E+00  1.60000000E+01  1.00800000E+00  1.00800000E+00  0.00000000E+00
  1.60000000E+01  1.00800000E+00  1.00800000E+00  0.00000000E+00  1.60000000E+01
  1.00800000E+00  1.00800000E+00  0.00000000E+00  1.60000000E+01  1.00800000E+00
  1.00800000E+00  0.00000000E+00  1.60000000E+01  1.00800000E+00  1.00800000E+00
  0.00000000E+00  1.60000000E+01  1.00800000E+00  1.00800000E+00  0.00000000E+00
  1.60000000E+01  1.00800000E+00  1.00800000E+00  0.00000000E+00  1.60000000E+01
  1.00800000E+00  1.00800000E+00  0.00000000E+00  1.60000000E+01  1.00800000E+00
  1.00800000E+00  0.00000000E+00  1.60000000E+01  1.00800000E+00  1.00800000E+00
  0.00000000E+00  1.60000000E+01  1.00800000E+00  1.00800000E+00  0.00000000E+00
  1.60000000E+01  1.00800000E+00  1.00800000E+00  0.00000000E+00  1.60000000E+01
  1.00800000E+00  1.00800000E+00  0.00000000E+00  1.60000000E+01  1.00800000E+00
  1.00800000E+00  0.00000000E+00  1.60000000E+01  1.00800000E+00  1.00800000E+00
  0.00000000E+00  1.60000000E+01  1.00800000E+00  1.00800000E+00  0.00000000E+00
  1.60000000E+01  1.00800000E+00  1.00800000E+00  0.00000000E+00  1.60000000E+01
  1.00800000E+00  1.00800000E+00  0.00000000E+00  1.60000000E+01  1.00800000E+00
  1.00800000E+00  0.00000000E+00  1.60000000E+01  1.00800000E+00  1.00800000E+00
  0.00000000E+00  1.60000000E+01  1.00800000E+00  1.00800000E+00  0.00000000E+00
  1.60000000E+01  1.00800000E+00  1.00800000E+00  0.00000000E+00  1.60000000E+01
  1.00800000E+00  1.00800000E+00  0.00000000E+00  1.60000000E+01  1.00800000E+00
  1.00800000E+00  0.00000000E+00  1.60000000E+01  1.00800000E+00  1.00800000E+00
  0.00000000E+00  1.60000000E+01  1.00800000E+00  1.00800000E+00  0.00000000E+00
  1.60000000E+01  1.00800000E+00  1.00800000E+00  0.00000000E+00  1.60000000E+01
  1.00800000E+00  1.00800000E+00  0.00000000E+00  1.60000000E+01  1.00800000E+00
  1.00800000E+00  0.00000000E+00  1.60000000E+01  1.00800000E+00  1.00800000E+00
  0.00000000E+00  1.60000000E+01  1.00800000E+00  1.00800000E+00  0.00000000E+00
  1.60000000E+01  1.00800000E+00  1.00800000E+00  0.00000000E+00  1.60000000E+01
  1.00800000E+00  1.00800000E+00  0.00000000E+00  1.60000000E+01  1.00800000E+00
  1.00800000E+00  0.00000000E+00  1.60000000E+01  1.00800000E+00  1.00800000E+00
  0.00000000E+00  1.60000000E+01  1.00800000E+00  1.00800000E+00  0.00000000E+00
  1.60000000E+01  1.00800000E+00  1.00800000E+00  0.00000000E+00  1.60000000E+01
  1.00800000E+00  1.00800000E+00  0.00000000E+00  1.60000000E+01  1.00800000E+00
  1.00800000E+00  0.00000000E+00  1.60000000E+01  1.00800000E+00  1.00800000E+00
  0.00000000E+00  1.60000000E+01  1.00800000E+00  1.00800000E+00  0.00000000E+00
  1.60000000E+01  1.00800000E+00  1.00800000E+00  0.00000000E+00  1.60000000E+01
  1.00800000E+00  1.00800000E+00  0.00000000E+00  1.60000000E+01  1.00800000E+00
  1.00800000E+00  0.00000000E+00  1.60000000E+01  1.00800000E+00  1.00800000E+00
  0.00000000E+00  1.60000000E+01  1.00800000E+00  1.00800000E+00  0.00000000E+00
  1.60000000E+01  1.00800000E+00  1.00800000E+00  0.00000000E+00  1.60000000E+01
  1.00800000E+00  1.00800000E+00  0.00000000E+00  1.60000000E+01  1.00800000E+00
  1.00800000E+00  0.00000000E+00  1.60000000E+01  1.00800000E+00  1.00800000E+00
  0.00000000E+00  1.60000000E+01  1.00800000E+00  1.00800000E+00  0.00000000E+00
  1.60000000E+01  1.00800000E+00  1.00800000E+00  0.00000000E+00  1.60000000E+01
  1.00800000E+00  1.00800000E+00  0.00000000E+00  1.60000000E+01  1.00800000E+00
  1.00800000E+00  0.00000000E+00  1.60000000E+01  1.00800000E+00  1.00800000E+00
  0.00000000E+00  1.60000000E+01  1.00800000E+00  1.00800000E+00  0.00000000E+00
  1.60000000E+01  1.00800000E+00  1.00800000E+00  0.00000000E+00  1.60000000E+01
  1.00800000E+00  1.00800000E+00  0.00000000E+00  1.60000000E+01  1.00800000E+00
  1.00800000E+00  0.00000000E+00  1.60000000E+01  1.00800000E+00  1.00800000E+00
  0.00000000E+00  1.60000000E+01  1.00800000E+00  1.00800000E+00  0.00000000E+00
  1.60000000E+01  1.00800000E+00  1.00800000E+00  0.00000000E+00  1.60000000E+01
  1.00800000E+00  1.00800000E+00  0.00000000E+00  1.60000000E+01  1.00800000E+00
  1.00800000E+00  0.00000000E+00  1.60000000E+01  1.00800000E+00  1.00800000E+00
  0.00000000E+00  1.60000000E+01  1.00800000E+00  1.00800000E+00  0.00000000E+00
  1.60000000E+01  1.00800000E+00  1.00800000E+00  0.00000000E+00  1.60000000E+01
  1.00800000E+00  1.00800000E+00  0.00000000E+00  1.60000000E+01  1.00800000E+00
  1.00800000E+00  0.00000000E+00  1.60000000E+01  1.00800000E+00  1.00800000E+00
  0.00000000E+00  1.60000000E+01  1.00800000E+00  1.00800000E+00  0.00000000E+00
  1.60000000E+01  1.00800000E+00  1.00800000E+00  0.00000000E+00  1.60000000E+01
  1.00800000E+00  1.00800000E+00  0.00000000E+00  1.60000000E+01  1.00800000E+00
  1.00800000E+00  0.00000000E+00  1.60000000E+01  1.00800000E+00  1.00800000E+00
  0.00000000E+00  1.60000000E+01  1.00800000E+00  1.00800000E+00  0.00000000E+00
  1.60000000E+01  1.00800000E+00  1.00800000E+00  0.00000000E+00  1.60000000E+01
  1.00800000E+00  1.00800000E+00  0.00000000E+00  1.60000000E+01  1.00800000E+00
  1.00800000E+00  0.00000000E+00  1.60000000E+01  1.00800000E+00  1.00800000E+00
  0.00000000E+00  1.60000000E+01  1.00800000E+00  1.00800000E+00  0.00000000E+00
  1.60000000E+01  1.00800000E+00  1.00800000E+00  0.00000000E+00  1.60000000E+01
  1.00800000E+00  1.00800000E+00  0.00000000E+00  1.60000000E+01  1.00800000E+00
  1.00800000E+00  0.00000000E+00  1.60000000E+01  1.00800000E+00  1.00800000E+00
  0.00000000E+00  1.60000000E+01  1.00800000E+00  1.00800000E+00  0.00000000E+00
  1.60000000E+01  1.00800000E+00  1.00800000E+00  0.00000000E+00  1.60000000E+01
  1.00800000E+00  1.00800000E+00  0.00000000E+00  1.60000000E+01  1.00800000E+00
  1.00800000E+00  0.00000000E+00  1.60000000E+01  1.00800000E+00  1.00800000E+00
  0.00000000E+00  1.60000000E+01  1.00800000E+00  1.00800000E+00  0.00000000E+00
  1.60000000E+01  1.00800000E+00  1.00800000E+00  0.00000000E+00  1.60000000E+01
  1.00800000E+00  1.00800000E+00  0.00000000E+00  1.60000000E+01  1.00800000E+00
  1.00800000E+00  0.00000000E+00  1.60000000E+01  1.00800000E+00  1.00800000E+00
  0.00000000E+00  1.60000000E+01  1.00800000E+00  1.00800000E+00  0.00000000E+00
  1.60000000E+01  1.00800000E+00  1.00800000E+00  0.00000000E+00  1.60000000E+01
  1.00800000E+00  1.00800000E+00  0.00000000E+00  1.60000000E+01  1.00800000E+00
  1.00800000E+00  0.00000000E+00  1.60000000E+01  1.00800000E+00  1.00800000E+00
  0.00000000E+00  1.60000000E+01  1.00800000E+00  1.00800000E+00  0.00000000E+00
  1.60000000E+01  1.00800000E+00  1.00800000E+00  0.00000000E+00  1.60000000E+01
  1.00800000E+00  1.00800000E+00  0.00000000E+00  1.60000000E+01  1.00800000E+00
  1.00800000E+00  0.00000000E+00  1.60000000E+01  1.00800000E+00  1.00800000E+00
  0.00000000E+00  1.60000000E+01  1.00800000E+00  1.00800000E+00  0.00000000E+00
  1.60000000E+01  1.00800000E+00  1.00800000E+00  0.00000000E+00  1.60000000E+01
  1.00800000E+00  1.00800000E+00  0.00000000E+00  1.60000000E+01  1.00800000E+00
  1.00800000E+00  0.00000000E+00  1.60000000E+01  1.00800000E+00  1.00800000E+00
  0.00000000E+00  1.60000000E+01  1.00800000E+00  1.00800000E+00  0.00000000E+00
  1.60000000E+01  1.00800000E+00  1.00800000E+00  0.00000000E+00  1.60000000E+01
  1.00800000E+00  1.00800000E+00  0.00000000E+00  1.60000000E+01  1.00800000E+00
  1.00800000E+00  0.00000000E+00  1.60000000E+01  1.00800000E+00  1.00800000E+00
  0.00000000E+00  1.60000000E+01  1.00800000E+00  1.00800000E+00  0.00000000E+00
  1.60000000E+01  1.00800000E+00  1.00800000E+00  0.00000000E+00  1.60000000E+01
  1.00800000E+00  1.00800000E+00  0.00000000E+00  1.60000000E+01  1.00800000E+00
  1.00800000E+00  0.00000000E+00  1.60000000E+01  1.00800000E+00  1.00800000E+00
  0.00000000E+00  1.60000000E+01  1.00800000E+00  1.00800000E+00  0.00000000E+00
  1.60000000E+01  1.00800000E+00  1.00800000E+00  0.00000000E+00  1.60000000E+01
  1.00800000E+00  1.00800000E+00  0.00000000E+00  1.60000000E+01  1.00800000E+00
  1.00800000E+00  0.00000000E+00  1.60000000E+01  1.00800000E+00  1.00800000E+00
  0.00000000E+00  1.60000000E+01  1.00800000E+00  1.00800000E+00  0.00000000E+00
  1.60000000E+01  1.00800000E+00  1.00800000E+00  0.00000000E+00  1.60000000E+01
  1.00800000E+00  1.00800000E+00  0.00000000E+00  1.60000000E+01  1.00800000E+00
  1.00800000E+00  0.00000000E+00  1.60000000E+01  1.00800000E+00  1.00800000E+00
  0.00000000E+00  1.60000000E+01  1.00800000E+00  1.00800000E+00  0.00000000E+00
  1.60000000E+01  1.00800000E+00  1.00800000E+00  0.00000000E+00  1.60000000E+01
  1.00800000E+00  1.00800000E+00  0.00000000E+00  1.60000000E+01  1.00800000E+00
  1.00800000E+00  0.00000000E+00  1.60000000E+01  1.00800000E+00  1.00800000E+00
  0.00000000E+00  1.60000000E+01  1.00800000E+00  1.00800000E+00  0.00000000E+00
  1.60000000E+01  1.00800000E+00  1.00800000E+00  0.00000000E+00  1.60000000E+01
  1.00800000E+00  1.00800000E+00  0.00000000E+00  1.60000000E+01  1.00800000E+00
  1.00800000E+00  0.00000000E+00  1.60000000E+01  1.00800000E+00  1.00800000E+00
  0.00000000E+00  1.60000000E+01  1.00800000E+00  1.00800000E+00  0.00000000E+00
  1.60000000E+01  1.00800000E+00  1.00800000E+00  0.00000000E+00  1.60000000E+01
  1.00800000E+00  1.00800000E+00  0.00000000E+00  1.60000000E+01  1.00800000E+00
  1.00800000E+00  0.00000000E+00  1.60000000E+01  1.00800000E+00  1.00800000E+00
  0.00000000E+00  1.60000000E+01  1.00800000E+00  1.00800000E+00  0.00000000E+00
  1.60000000E+01  1.00800000E+00  1.00800000E+00  0.00000000E+00  1.60000000E+01
  1.00800000E+00  1.00800000E+00  0.00000000E+00  1.60000000E+01  1.00800000E+00
  1.00800000E+00  0.00000000E+00  1.60000000E+01  1.00800000E+00  1.00800000E+00
  0.00000000E+00  1.60000000E+01  1.00800000E+00  1.00800000E+00  0.00000000E+00
  1.60000000E+01  1.00800000E+00  1.00800000E+00  0.00000000E+00  1.60000000E+01
  1.00800000E+00  1.00800000E+00  0.00000000E+00  1.60000000E+01  1.00800000E+00
  1.00800000E+00  0.00000000E+00  1.60000000E+01  1.00800000E+00  1.00800000E+00
  0.00000000E+00  1.60000000E+01  1.00800000E+00  1.00800000E+00  0.00000000E+00
  1.60000000E+01  1.00800000E+00  1.00800000E+00  0.00000000E+00  1.60000000E+01
  1.00800000E+00  1.00800000E+00  0.00000000E+00  1.60000000E+01  1.00800000E+00
  1.00800000E+00  0.00000000E+00  1.60000000E+01  1.00800000E+00  1.00800000E+00
  0.00000000E+00  1.60000000E+01  1.00800000E+00  1.00800000E+00  0.00000000E+00
  1.60000000E+01  1.00800000E+00  1.00800000E+00  0.00000000E+00  1.60000000E+01
  1.00800000E+00  1.00800000E+00  0.00000000E+00  1.60000000E+01  1.00800000E+00
  1.00800000E+00  0.00000000E+00  1.60000000E+01  1.00800000E+00  1.00800000E+00
  0.00000000E+00  1.60000000E+01  1.00800000E+00  1.00800000E+00  0.00000000E+00
  1.60000000E+01  1.00800000E+00  1.00800000E+00  0.00000000E+00  1.60000000E+01
  1.00800000E+00  1.00800000E+00  0.00000000E+00  1.60000000E+01  1.00800000E+00
  1.00800000E+00  0.00000000E+00  1.60000000E+01  1.00800000E+00  1.00800000E+00
  0.00000000E+00  1.60000000E+01  1.00800000E+00  1.00800000E+00  0.00000000E+00
  1.60000000E+01  1.00800000E+00  1.00800000E+00  0.00000000E+00  1.60000000E+01
  1.00800000E+00  1.00800000E+00  0.00000000E+00  1.60000000E+01  1.00800000E+00
  1.00800000E+00  0.00000000E+00  1.60000000E+01  1.00800000E+00  1.00800000E+00
  0.00000000E+00  1.60000000E+01  1.00800000E+00  1.00800000E+00  0.00000000E+00
  1.60000000E+01  1.00800000E+00  1.00800000E+00  0.00000000E+00  1.60000000E+01
  1.00800000E+00  1.00800000E+00  0.00000000E+00  1.60000000E+01  1.00800000E+00
  1.00800000E+00  0.00000000E+00  1.60000000E+01  1.00800000E+00  1.00800000E+00
  0.00000000E+00  1.60000000E+01  1.00800000E+00  1.00800000E+00  0.00000000E+00
  1.60000000E+01  1.00800000E+00  1.00800000E+00  0.00000000E+00  1.60000000E+01
  1.00800000E+00  1.00800000E+00  0.00000000E+00  1.60000000E+01  1.00800000E+00
  1.00800000E+00  0.00000000E+00  1.60000000E+01  1.00800000E+00  1.00800000E+00
  0.00000000E+00  1.60000000E+01  1.00800000E+00  1.00800000E+00  0.00000000E+00
  1.60000000E+01  1.00800000E+00  1.00800000E+00  0.00000000E+00  1.60000000E+01
  1.00800000E+00  1.00800000E+00  0.00000000E+00  1.60000000E+01  1.00800000E+00
  1.00800000E+00  0.00000000E+00  1.60000000E+01  1.00800000E+00  1.00800000E+00
  0.00000000E+00  1.60000000E+01  1.00800000E+00  1.00800000E+00  0.00000000E+00
  1.60000000E+01  1.00800000E+00  1.00800000E+00  0.00000000E+00  1.60000000E+01
  1.00800000E+00  1.00800000E+00  0.00000000E+00  1.60000000E+01  1.00800000E+00
  1.00800000E+00  0.00000000E+00  1.60000000E+01  1.00800000E+00  1.00800000E+00
  0.00000000E+00  1.60000000E+01  1.00800000E+00  1.00800000E+00  0.00000000E+00
  1.60000000E+01  1.00800000E+00  1.00800000E+00  0.00000000E+00  1.60000000E+01
  1.00800000E+00  1.00800000E+00  0.00000000E+00  1.60000000E+01  1.00800000E+00
  1.00800000E+00  0.00000000E+00  1.60000000E+01  1.00800000E+00  1.00800000E+00
  0.00000000E+00  1.60000000E+01  1.00800000E+00  1.00800000E+00  0.00000000E+00
  1.60000000E+01  1.00800000E+00  1.00800000E+00  0.00000000E+00  1.60000000E+01
  1.00800000E+00  1.00800000E+00  0.00000000E+00  1.60000000E+01  1.00800000E+00
  1.00800000E+00  0.00000000E+00  1.60000000E+01  1.00800000E+00  1.00800000E+00
  0.00000000E+00  1.60000000E+01  1.00800000E+00  1.00800000E+00  0.00000000E+00
  1.60000000E+01  1.00800000E+00  1.00800000E+00  0.00000000E+00  1.60000000E+01
  1.00800000E+00  1.00800000E+00  0.00000000E+00  1.60000000E+01  1.00800000E+00
  1.00800000E+00  0.00000000E+00  1.60000000E+01  1.00800000E+00  1.00800000E+00
  0.00000000E+00  1.60000000E+01  1.00800000E+00  1.00800000E+00  0.00000000E+00
  1.60000000E+01  1.00800000E+00  1.00800000E+00  0.00000000E+00  1.60000000E+01
  1.00800000E+00  1.00800000E+00  0.00000000E+00  1.60000000E+01  1.00800000E+00
  1.00800000E+00  0.00000000E+00  1.60000000E+01  1.00800000E+00  1.00800000E+00
  0.00000000E+00  1.60000000E+01  1.00800000E+00  1.00800000E+00  0.00000000E+00
  1.60000000E+01  1.00800000E+00  1.00800000E+00  0.00000000E+00  1.60000000E+01
  1.00800000E+00  1.00800000E+00  0.00000000E+00  1.60000000E+01  1.00800000E+00
  1.00800000E+00  0.00000000E+00  1.60000000E+01  1.00800000E+00  1.00800000E+00
  0.00000000E+00  1.60000000E+01  1.00800000E+00  1.00800000E+00  0.00000000E+00
  1.60000000E+01  1.00800000E+00  1.00800000E+00  0.00000000E+00  1.60000000E+01
  1.00800000E+00  1.00800000E+00  0.00000000E+00  1.60000000E+01  1.00800000E+00
  1.00800000E+00  0.00000000E+00  1.60000000E+01  1.00800000E+00  1.00800000E+00
  0.00000000E+00  1.60000000E+01  1.00800000E+00  1.00800000E+00  0.00000000E+00
  1.60000000E+01  1.00800000E+00  1.00800000E+00  0.00000000E+00  1.60000000E+01
  1.00800000E+00  1.00800000E+00  0.00000000E+00  1.60000000E+01  1.00800000E+00
  1.00800000E+00  0.00000000E+00  1.60000000E+01  1.00800000E+00  1.00800000E+00
  0.00000000E+00  1.60000000E+01  1.00800000E+00  1.00800000E+00  0.00000000E+00
  1.60000000E+01  1.00800000E+00  1.00800000E+00  0.00000000E+00  1.60000000E+01
  1.00800000E+00  1.00800000E+00  0.00000000E+00  1.60000000E+01  1.00800000E+00
  1.00800000E+00  0.00000000E+00  1.60000000E+01  1.00800000E+00  1.00800000E+00
  0.00000000E+00  1.60000000E+01  1.00800000E+00  1.00800000E+00  0.00000000E+00
  1.60000000E+01  1.00800000E+00  1.00800000E+00  0.00000000E+00  1.60000000E+01
  1.00800000E+00  1.00800000E+00  0.00000000E+00  1.60000000E+01  1.00800000E+00
  1.00800000E+00  0.00000000E+00  1.60000000E+01  1.00800000E+00  1.00800000E+00
  0.00000000E+00  1.60000000E+01  1.00800000E+00  1.00800000E+00  0.00000000E+00
  1.60000000E+01  1.00800000E+00  1.00800000E+00  0.00000000E+00  1.60000000E+01
  1.00800000E+00  1.00800000E+00  0.00000000E+00  1.60000000E+01  1.00800000E+00
  1.00800000E+00  0.00000000E+00  1.60000000E+01  1.00800000E+00  1.00800000E+00
  0.00000000E+00  1.60000000E+01  1.00800000E+00  1.00800000E+00  0.00000000E+00
  1.60000000E+01  1.00800000E+00  1.00800000E+00  0.00000000E+00  1.60000000E+01
  1.00800000E+00  1.00800000E+00  0.00000000E+00  1.60000000E+01  1.00800000E+00
  1.00800000E+00  0.00000000E+00  1.60000000E+01  1.00800000E+00  1.00800000E+00
  0.00000000E+00  1.60000000E+01  1.00800000E+00  1.00800000E+00  0.00000000E+00
  1.60000000E+01  1.00800000E+00  1.00800000E+00  0.00000000E+00  1.60000000E+01
  1.00800000E+00  1.00800000E+00  0.00000000E+00  1.60000000E+01  1.00800000E+00
  1.00800000E+00  0.00000000E+00  1.60000000E+01  1.00800000E+00  1.00800000E+00
  0.00000000E+00  1.60000000E+01  1.00800000E+00  1.00800000E+00  0.00000000E+00
  1.60000000E+01  1.00800000E+00  1.00800000E+00  0.00000000E+00  1.60000000E+01
  1.00800000E+00  1.00800000E+00  0.00000000E+00  1.60000000E+01  1.00800000E+00
  1.00800000E+00  0.00000000E+00  1.60000000E+01  1.00800000E+00  1.00800000E+00
  0.00000000E+00  1.60000000E+01  1.00800000E+00  1.00800000E+00  0.00000000E+00
  1.60000000E+01  1.00800000E+00  1.00800000E+00  0.00000000E+00  1.60000000E+01
  1.00800000E+00  1.00800000E+00  0.00000000E+00  1.60000000E+01  1.00800000E+00
  1.00800000E+00  0.00000000E+00  1.60000000E+01  1.00800000E+00  1.00800000E+00
  0.00000000E+00  1.60000000E+01  1.00800000E+00  1.00800000E+00  0.00000000E+00
  1.60000000E+01  1.00800000E+00  1.00800000E+00  0.00000000E+00  1.60000000E+01
  1.00800000E+00  1.00800000E+00  0.00000000E+00  1.60000000E+01  1.00800000E+00
  1.00800000E+00  0.00000000E+00  1.60000000E+01  1.00800000E+00  1.00800000E+00
  0.00000000E+00  1.60000000E+01  1.00800000E+00  1.00800000E+00  0.00000000E+00
  1.60000000E+01  1.00800000E+00  1.00800000E+00  0.00000000E+00  1.60000000E+01
  1.00800000E+00  1.00800000E+00  0.00000000E+00  1.60000000E+01  1.00800000E+00
  1.00800000E+00  0.00000000E+00  1.60000000E+01  1.00800000E+00  1.00800000E+00
  0.00000000E+00  1.60000000E+01  1.00800000E+00  1.00800000E+00  0.00000000E+00
  1.60000000E+01  1.00800000E+00  1.00800000E+00  0.00000000E+00  1.60000000E+01
  1.00800000E+00  1.00800000E+00  0.00000000E+00  1.60000000E+01  1.00800000E+00
  1.00800000E+00  0.00000000E+00  1.60000000E+01  1.00800000E+00  1.00800000E+00
  0.00000000E+00  1.60000000E+01  1.00800000E+00  1.00800000E+00  0.00000000E+00
  1.60000000E+01  1.00800000E+00  1.00800000E+00  0.00000000E+00  1.60000000E+01
  1.00800000E+00  1.00800000E+00  0.00000000E+00  1.60000000E+01  1.00800000E+00
  1.00800000E+00  0.00000000E+00  1.60000000E+01  1.00800000E+00  1.00800000E+00
  0.00000000E+00  1.60000000E+01  1.00800000E+00  1.00800000E+00  0.00000000E+00
  1.60000000E+01  1.00800000E+00  1.00800000E+00  0.00000000E+00  1.60000000E+01
  1.00800000E+00  1.00800000E+00  0.00000000E+00  1.60000000E+01  1.00800000E+00
  1.00800000E+00  0.00000000E+00  1.60000000E+01  1.00800000E+00  1.00800000E+00
  0.00000000E+00  1.60000000E+01  1.00800000E+00  1.00800000E+00  0.00000000E+00
  1.60000000E+01  1.00800000E+00  1.00800000E+00  0.00000000E+00  1.60000000E+01
  1.00800000E+00  1.00800000E+00  0.00000000E+00  1.60000000E+01  1.00800000E+00
  1.00800000E+00  0.00000000E+00  1.60000000E+01  1.00800000E+00  1.00800000E+00
  0.00000000E+00  1.60000000E+01  1.00800000E+00  1.00800000E+00  0.00000000E+00
  1.60000000E+01  1.00800000E+00  1.00800000E+00  0.00000000E+00  1.60000000E+01
  1.00800000E+00  1.00800000E+00  0.00000000E+00  1.60000000E+01  1.00800000E+00
  1.00800000E+00  0.00000000E+00  1.60000000E+01  1.00800000E+00  1.00800000E+00
  0.00000000E+00  1.60000000E+01  1.00800000E+00  1.00800000E+00  0.00000000E+00
  1.60000000E+01  1.00800000E+00  1.00800000E+00  0.00000000E+00  1.60000000E+01
  1.00800000E+00  1.00800000E+00  0.00000000E+00  1.60000000E+01  1.00800000E+00
  1.00800000E+00  0.00000000E+00  1.60000000E+01  1.00800000E+00  1.00800000E+00
  0.00000000E+00  1.60000000E+01  1.00800000E+00  1.00800000E+00  0.00000000E+00
  1.60000000E+01  1.00800000E+00  1.00800000E+00  0.00000000E+00  1.60000000E+01
  1.00800000E+00  1.00800000E+00  0.00000000E+00  1.60000000E+01  1.00800000E+00
  1.00800000E+00  0.00000000E+00  1.60000000E+01  1.00800000E+00  1.00800000E+00
  0.00000000E+00  1.60000000E+01  1.00800000E+00  1.00800000E+00  0.00000000E+00
  1.60000000E+01  1.00800000E+00  1.00800000E+00  0.00000000E+00  1.60000000E+01
  1.00800000E+00  1.00800000E+00  0.00000000E+00  1.60000000E+01  1.00800000E+00
  1.00800000E+00  0.00000000E+00  1.60000000E+01  1.00800000E+00  1.00800000E+00
  0.00000000E+00  1.60000000E+01  1.00800000E+00  1.00800000E+00  0.00000000E+00
  1.60000000E+01  1.00800000E+00  1.00800000E+00  0.00000000E+00  1.60000000E+01
  1.00800000E+00  1.00800000E+00  0.00000000E+00  1.60000000E+01  1.00800000E+00
  1.00800000E+00  0.00000000E+00  1.60000000E+01  1.00800000E+00  1.00800000E+00
  0.00000000E+00  1.60000000E+01  1.00800000E+00  1.00800000E+00  0.00000000E+00
  1.60000000E+01  1.00800000E+00  1.00800000E+00  0.00000000E+00  1.60000000E+01
  1.00800000E+00  1.00800000E+00  0.00000000E+00  1.60000000E+01  1.00800000E+00
  1.00800000E+00  0.00000000E+00  1.60000000E+01  1.00800000E+00  1.00800000E+00
  0.00000000E+00  1.60000000E+01  1.00800000E+00  1.00800000E+00  0.00000000E+00
  1.60000000E+01  1.00800000E+00  1.00800000E+00  0.00000000E+00  1.60000000E+01
  1.00800000E+00  1.00800000E+00  0.00000000E+00  1.60000000E+01  1.00800000E+00
  1.00800000E+00  0.00000000E+00  1.60000000E+01  1.00800000E+00  1.00800000E+00
  0.00000000E+00  1.60000000E+01  1.00800000E+00  1.00800000E+00  0.00000000E+00
  1.60000000E+01  1.00800000E+00  1.00800000E+00  0.00000000E+00  1.60000000E+01
  1.00800000E+00  1.00800000E+00  0.00000000E+00  1.60000000E+01  1.00800000E+00
  1.00800000E+00  0.00000000E+00  1.60000000E+01  1.00800000E+00  1.00800000E+00
  0.00000000E+00  1.60000000E+01  1.00800000E+00  1.00800000E+00  0.00000000E+00
  1.60000000E+01  1.00800000E+00  1.00800000E+00  0.00000000E+00  1.60000000E+01
  1.00800000E+00  1.00800000E+00  0.00000000E+00  1.60000000E+01  1.00800000E+00
  1.00800000E+00  0.00000000E+00  1.60000000E+01  1.00800000E+00  1.00800000E+00
  0.00000000E+00  1.60000000E+01  1.00800000E+00  1.00800000E+00  0.00000000E+00
  1.60000000E+01  1.00800000E+00  1.00800000E+00  0.00000000E+00  1.60000000E+01
  1.00800000E+00  1.00800000E+00  0.00000000E+00  1.60000000E+01  1.00800000E+00
  1.00800000E+00  0.00000000E+00  1.60000000E+01  1.00800000E+00  1.00800000E+00
  0.00000000E+00  1.60000000E+01  1.00800000E+00  1.00800000E+00  0.00000000E+00
  1.60000000E+01  1.00800000E+00  1.00800000E+00  0.00000000E+00  1.60000000E+01
  1.00800000E+00  1.00800000E+00  0.00000000E+00  1.60000000E+01  1.00800000E+00
  1.00800000E+00  0.00000000E+00  1.60000000E+01  1.00800000E+00  1.00800000E+00
  0.00000000E+00  1.60000000E+01  1.00800000E+00  1.00800000E+00  0.00000000E+00
  1.60000000E+01  1.00800000E+00  1.00800000E+00  0.00000000E+00  1.60000000E+01
  1.00800000E+00  1.00800000E+00  0.00000000E+00  1.60000000E+01  1.00800000E+00
  1.00800000E+00  0.00000000E+00  1.60000000E+01  1.00800000E+00  1.00800000E+00
  0.00000000E+00  1.60000000E+01  1.00800000E+00  1.00800000E+00  0.00000000E+00
  1.60000000E+01  1.00800000E+00  1.00800000E+00  0.00000000E+00  1.60000000E+01
  1.00800000E+00  1.00800000E+00  0.00000000E+00  1.60000000E+01  1.00800000E+00
  1.00800000E+00  0.00000000E+00  1.60000000E+01  1.00800000E+00  1.00800000E+00
  0.00000000E+00  1.60000000E+01  1.00800000E+00  1.00800000E+00  0.00000000E+00
  1.60000000E+01  1.00800000E+00  1.00800000E+00  0.00000000E+00  1.60000000E+01
  1.00800000E+00  1.00800000E+00  0.00000000E+00  1.60000000E+01  1.00800000E+00
  1.00800000E+00  0.00000000E+00  1.60000000E+01  1.00800000E+00  1.00800000E+00
  0.00000000E+00  1.60000000E+01  1.00800000E+00  1.00800000E+00  0.00000000E+00
  1.60000000E+01  1.00800000E+00  1.00800000E+00  0.00000000E+00  1.60000000E+01
  1.00800000E+00  1.00800000E+00  0.00000000E+00  1.60000000E+01  1.00800000E+00
  1.00800000E+00  0.00000000E+00  1.60000000E+01  1.00800000E+00  1.00800000E+00
  0.00000000E+00  1.60000000E+01  1.00800000E+00  1.00800000E+00  0.00000000E+00
  1.60000000E+01  1.00800000E+00  1.00800000E+00  0.00000000E+00  1.60000000E+01
  1.00800000E+00  1.00800000E+00  0.00000000E+00  1.60000000E+01  1.00800000E+00
  1.00800000E+00  0.00000000E+00  1.60000000E+01  1.00800000E+00  1.00800000E+00
  0.00000000E+00  1.60000000E+01  1.00800000E+00  1.00800000E+00  0.00000000E+00
  1.60000000E+01  1.00800000E+00  1.00800000E+00  0.00000000E+00  1.60000000E+01
  1.00800000E+00  1.00800000E+00  0.00000000E+00  1.60000000E+01  1.00800000E+00
  1.00800000E+00  0.00000000E+00  1.60000000E+01  1.00800000E+00  1.00800000E+00
  0.00000000E+00  1.60000000E+01  1.00800000E+00  1.00800000E+00  0.00000000E+00
  1.60000000E+01  1.00800000E+00  1.00800000E+00  0.00000000E+00  1.60000000E+01
  1.00800000E+00  1.00800000E+00  0.00000000E+00  1.60000000E+01  1.00800000E+00
  1.00800000E+00  0.00000000E+00  1.60000000E+01  1.00800000E+00  1.00800000E+00
  0.00000000E+00  1.60000000E+01  1.00800000E+00  1.00800000E+00  0.00000000E+00
  1.60000000E+01  1.00800000E+00  1.00800000E+00  0.00000000E+00  1.60000000E+01
  1.00800000E+00  1.00800000E+00  0.00000000E+00  1.60000000E+01  1.00800000E+00
  1.00800000E+00  0.00000000E+00  1.60000000E+01  1.00800000E+00  1.00800000E+00
  0.00000000E+00  1.60000000E+01  1.00800000E+00  1.00800000E+00  0.00000000E+00
  1.60000000E+01  1.00800000E+00  1.00800000E+00  0.00000000E+00  1.60000000E+01
  1.00800000E+00  1.00800000E+00  0.00000000E+00  1.60000000E+01  1.00800000E+00
  1.00800000E+00  0.00000000E+00  1.60000000E+01  1.00800000E+00  1.00800000E+00
  0.00000000E+00  1.60000000E+01  1.00800000E+00  1.00800000E+00  0.00000000E+00
  1.60000000E+01  1.00800000E+00  1.00800000E+00  0.00000000E+00  1.60000000E+01
  1.00800000E+00  1.00800000E+00  0.00000000E+00  1.60000000E+01  1.00800000E+00
  1.00800000E+00  0.00000000E+00  1.60000000E+01  1.00800000E+00  1.00800000E+00
  0.00000000E+00  1.60000000E+01  1.00800000E+00  1.00800000E+00  0.00000000E+00
  1.60000000E+01  1.00800000E+00  1.00800000E+00  0.00000000E+00  1.60000000E+01
  1.00800000E+00  1.00800000E+00  0.00000000E+00  1.60000000E+01  1.00800000E+00
  1.00800000E+00  0.00000000E+00  1.60000000E+01  1.00800000E+00  1.00800000E+00
  0.00000000E+00  1.60000000E+01  1.00800000E+00  1.00800000E+00  0.00000000E+00
  1.60000000E+01  1.00800000E+00  1.00800000E+00  0.00000000E+00  1.60000000E+01
  1.00800000E+00  1.00800000E+00  0.00000000E+00  1.60000000E+01  1.00800000E+00
  1.00800000E+00  0.00000000E+00  1.60000000E+01  1.00800000E+00  1.00800000E+00
  0.00000000E+00  1.60000000E+01  1.00800000E+00  1.00800000E+00  0.00000000E+00
  1.60000000E+01  1.00800000E+00  1.00800000E+00  0.00000000E+00  1.60000000E+01
  1.00800000E+00  1.00800000E+00  0.00000000E+00  1.60000000E+01  1.00800000E+00
  1.00800000E+00  0.00000000E+00  1.60000000E+01  1.00800000E+00  1.00800000E+00
  0.00000000E+00  1.60000000E+01  1.00800000E+00  1.00800000E+00  0.00000000E+00
  1.60000000E+01  1.00800000E+00  1.00800000E+00  0.00000000E+00  1.60000000E+01
  1.00800000E+00  1.00800000E+00  0.00000000E+00  1.60000000E+01  1.00800000E+00
  1.00800000E+00  0.00000000E+00  1.60000000E+01  1.00800000E+00  1.00800000E+00
  0.00000000E+00  1.60000000E+01  1.00800000E+00  1.00800000E+00  0.00000000E+00
  1.60000000E+01  1.00800000E+00  1.00800000E+00  0.00000000E+00  1.60000000E+01
  1.00800000E+00  1.00800000E+00  0.00000000E+00  1.60000000E+01  1.00800000E+00
  1.00800000E+00  0.00000000E+00  1.60000000E+01  1.00800000E+00  1.00800000E+00
  0.00000000E+00  1.60000000E+01  1.00800000E+00  1.00800000E+00  0.00000000E+00
  1.60000000E+01  1.00800000E+00  1.00800000E+00  0.00000000E+00  1.60000000E+01
  1.00800000E+00  1.00800000E+00  0.00000000E+00  1.60000000E+01  1.00800000E+00
  1.00800000E+00  0.00000000E+00  1.60000000E+01  1.00800000E+00  1.00800000E+00
  0.00000000E+00  1.60000000E+01  1.00800000E+00  1.00800000E+00  0.00000000E+00
  1.60000000E+01  1.00800000E+00  1.00800000E+00  0.00000000E+00  1.60000000E+01
  1.00800000E+00  1.00800000E+00  0.00000000E+00  1.60000000E+01  1.00800000E+00
  1.00800000E+00  0.00000000E+00  1.60000000E+01  1.00800000E+00  1.00800000E+00
  0.00000000E+00  1.60000000E+01  1.00800000E+00  1.00800000E+00  0.00000000E+00
  1.60000000E+01  1.00800000E+00  1.00800000E+00  0.00000000E+00  1.60000000E+01
  1.00800000E+00  1.00800000E+00  0.00000000E+00  1.60000000E+01  1.00800000E+00
  1.00800000E+00  0.00000000E+00  1.60000000E+01  1.00800000E+00  1.00800000E+00
  0.00000000E+00  1.60000000E+01  1.00800000E+00  1.00800000E+00  0.00000000E+00
  1.60000000E+01  1.00800000E+00  1.00800000E+00  0.00000000E+00  1.60000000E+01
  1.00800000E+00  1.00800000E+00  0.00000000E+00  1.60000000E+01  1.00800000E+00
  1.00800000E+00  0.00000000E+00  1.60000000E+01  1.00800000E+00  1.00800000E+00
  0.00000000E+00  1.60000000E+01  1.00800000E+00  1.00800000E+00  0.00000000E+00
  1.60000000E+01  1.00800000E+00  1.00800000E+00  0.00000000E+00  1.60000000E+01
  1.00800000E+00  1.00800000E+00  0.00000000E+00  1.60000000E+01  1.00800000E+00
  1.00800000E+00  0.00000000E+00  1.60000000E+01  1.00800000E+00  1.00800000E+00
  0.00000000E+00  1.60000000E+01  1.00800000E+00  1.00800000E+00  0.00000000E+00
  1.60000000E+01  1.00800000E+00  1.00800000E+00  0.00000000E+00  1.60000000E+01
  1.00800000E+00  1.00800000E+00  0.00000000E+00  1.60000000E+01  1.00800000E+00
  1.00800000E+00  0.00000000E+00  1.60000000E+01  1.00800000E+00  1.00800000E+00
  0.00000000E+00  1.60000000E+01  1.00800000E+00  1.00800000E+00  0.00000000E+00
  1.60000000E+01  1.00800000E+00  1.00800000E+00  0.00000000E+00  1.60000000E+01
  1.00800000E+00  1.00800000E+00  0.00000000E+00  1.60000000E+01  1.00800000E+00
  1.00800000E+00  0.00000000E+00  1.60000000E+01  1.00800000E+00  1.00800000E+00
  0.00000000E+00  1.60000000E+01  1.00800000E+00  1.00800000E+00  0.00000000E+00
  1.60000000E+01  1.00800000E+00  1.00800000E+00  0.00000000E+00  1.60000000E+01
  1.00800000E+00  1.00800000E+00  0.00000000E+00  1.60000000E+01  1.00800000E+00
  1.00800000E+00  0.00000000E+00  1.60000000E+01  1.00800000E+00  1.00800000E+00
  0.00000000E+00  1.60000000E+01  1.00800000E+00  1.00800000E+00  0.00000000E+00
  1.60000000E+01  1.00800000E+00  1.00800000E+00  0.00000000E+00  1.60000000E+01
  1.00800000E+00  1.00800000E+00  0.00000000E+00  1.60000000E+01  1.00800000E+00
  1.00800000E+00  0.00000000E+00  1.60000000E+01  1.00800000E+00  1.00800000E+00
  0.00000000E+00  1.60000000E+01  1.00800000E+00  1.00800000E+00  0.00000000E+00
  1.60000000E+01  1.00800000E+00  1.00800000E+00  0.00000000E+00  1.60000000E+01
  1.00800000E+00  1.00800000E+00  0.00000000E+00  1.60000000E+01  1.00800000E+00
  1.00800000E+00  0.00000000E+00  1.60000000E+01  1.00800000E+00  1.00800000E+00
  0.00000000E+00  1.60000000E+01  1.00800000E+00  1.00800000E+00  0.00000000E+00
  1.60000000E+01  1.00800000E+00  1.00800000E+00  0.00000000E+00  1.60000000E+01
  1.00800000E+00  1.00800000E+00  0.00000000E+00  1.60000000E+01  1.00800000E+00
  1.00800000E+00  0.00000000E+00  1.60000000E+01  1.00800000E+00  1.00800000E+00
  0.00000000E+00  1.60000000E+01  1.00800000E+00  1.00800000E+00  0.00000000E+00
  1.60000000E+01  1.00800000E+00  1.00800000E+00  0.00000000E+00  1.60000000E+01
  1.00800000E+00  1.00800000E+00  0.00000000E+00  1.60000000E+01  1.00800000E+00
  1.00800000E+00  0.00000000E+00  1.60000000E+01  1.00800000E+00  1.00800000E+00
  0.00000000E+00  1.60000000E+01  1.00800000E+00  1.00800000E+00  0.00000000E+00
  1.60000000E+01  1.00800000E+00  1.00800000E+00  0.00000000E+00  1.60000000E+01
  1.00800000E+00  1.00800000E+00  0.00000000E+00  1.60000000E+01  1.00800000E+00
  1.00800000E+00  0.00000000E+00  1.60000000E+01  1.00800000E+00  1.00800000E+00
  0.00000000E+00  1.60000000E+01  1.00800000E+00  1.00800000E+00  0.00000000E+00
  1.60000000E+01  1.00800000E+00  1.00800000E+00  0.00000000E+00  1.60000000E+01
  1.00800000E+00  1.00800000E+00  0.00000000E+00  1.60000000E+01  1.00800000E+00
  1.00800000E+00  0.00000000E+00  1.60000000E+01  1.00800000E+00  1.00800000E+00
  0.00000000E+00  1.60000000E+01  1.00800000E+00  1.00800000E+00  0.00000000E+00
  1.60000000E+01  1.00800000E+00  1.00800000E+00  0.00000000E+00  1.60000000E+01
  1.00800000E+00  1.00800000E+00  0.00000000E+00  1.60000000E+01  1.00800000E+00
  1.00800000E+00  0.00000000E+00  1.60000000E+01  1.00800000E+00  1.00800000E+00
  0.00000000E+00  1.60000000E+01  1.00800000E+00  1.00800000E+00  0.00000000E+00
  1.60000000E+01  1.00800000E+00  1.00800000E+00  0.00000000E+00  1.60000000E+01
  1.00800000E+00  1.00800000E+00  0.00000000E+00  1.60000000E+01  1.00800000E+00
  1.00800000E+00  0.00000000E+00  1.60000000E+01  1.00800000E+00  1.00800000E+00
  0.00000000E+00  1.60000000E+01  1.00800000E+00  1.00800000E+00  0.00000000E+00
  1.60000000E+01  1.00800000E+00  1.00800000E+00  0.00000000E+00  1.60000000E+01
  1.00800000E+00  1.00800000E+00  0.00000000E+00  1.60000000E+01  1.00800000E+00
  1.00800000E+00  0.00000000E+00  1.60000000E+01  1.00800000E+00  1.00800000E+00
  0.00000000E+00  1.60000000E+01  1.00800000E+00  1.00800000E+00  0.00000000E+00
  1.60000000E+01  1.00800000E+00  1.00800000E+00  0.00000000E+00  1.60000000E+01
  1.00800000E+00  1.00800000E+00  0.00000000E+00  1.60000000E+01  1.00800000E+00
  1.00800000E+00  0.00000000E+00  1.60000000E+01  1.00800000E+00  1.00800000E+00
  0.00000000E+00  1.60000000E+01  1.00800000E+00  1.00800000E+00  0.00000000E+00
  1.60000000E+01  1.00800000E+00  1.00800000E+00  0.00000000E+00  1.60000000E+01
  1.00800000E+00  1.00800000E+00  0.00000000E+00  1.60000000E+01  1.00800000E+00
  1.00800000E+00  0.00000000E+00  1.60000000E+01  1.00800000E+00  1.00800000E+00
  0.00000000E+00  1.60000000E+01  1.00800000E+00  1.00800000E+00  0.00000000E+00
  1.60000000E+01  1.00800000E+00  1.00800000E+00  0.00000000E+00  1.60000000E+01
  1.00800000E+00  1.00800000E+00  0.00000000E+00  1.60000000E+01  1.00800000E+00
  1.00800000E+00  0.00000000E+00  1.60000000E+01  1.00800000E+00  1.00800000E+00
  0.00000000E+00  1.60000000E+01  1.00800000E+00  1.00800000E+00  0.00000000E+00
  1.60000000E+01  1.00800000E+00  1.00800000E+00  0.00000000E+00  1.60000000E+01
  1.00800000E+00  1.00800000E+00  0.00000000E+00  1.60000000E+01  1.00800000E+00
  1.00800000E+00  0.00000000E+00  1.60000000E+01  1.00800000E+00  1.00800000E+00
  0.00000000E+00  1.60000000E+01  1.00800000E+00  1.00800000E+00  0.00000000E+00
  1.60000000E+01  1.00800000E+00  1.00800000E+00  0.00000000E+00  1.60000000E+01
  1.00800000E+00  1.00800000E+00  0.00000000E+00  1.60000000E+01  1.00800000E+00
  1.00800000E+00  0.00000000E+00  1.60000000E+01  1.00800000E+00  1.00800000E+00
  0.00000000E+00  1.60000000E+01  1.00800000E+00  1.00800000E+00  0.00000000E+00
  1.60000000E+01  1.00800000E+00  1.00800000E+00  0.00000000E+00  1.60000000E+01
  1.00800000E+00  1.00800000E+00  0.00000000E+00  1.60000000E+01  1.00800000E+00
  1.00800000E+00  0.00000000E+00  1.60000000E+01  1.00800000E+00  1.00800000E+00
  0.00000000E+00  1.60000000E+01  1.00800000E+00  1.00800000E+00  0.00000000E+00
  1.60000000E+01  1.00800000E+00  1.00800000E+00  0.00000000E+00  1.60000000E+01
  1.00800000E+00  1.00800000E+00  0.00000000E+00  1.60000000E+01  1.00800000E+00
  1.00800000E+00  0.00000000E+00  1.60000000E+01  1.00800000E+00  1.00800000E+00
  0.00000000E+00  1.60000000E+01  1.00800000E+00  1.00800000E+00  0.00000000E+00
  1.60000000E+01  1.00800000E+00  1.00800000E+00  0.00000000E+00  1.60000000E+01
  1.00800000E+00  1.00800000E+00  0.00000000E+00  1.60000000E+01  1.00800000E+00
  1.00800000E+00  0.00000000E+00  1.60000000E+01  1.00800000E+00  1.00800000E+00
  0.00000000E+00  1.60000000E+01  1.00800000E+00  1.00800000E+00  0.00000000E+00
  1.60000000E+01  1.00800000E+00  1.00800000E+00  0.00000000E+00  1.60000000E+01
  1.00800000E+00  1.00800000E+00  0.00000000E+00  1.60000000E+01  1.00800000E+00
  1.00800000E+00  0.00000000E+00  1.60000000E+01  1.00800000E+00  1.00800000E+00
  0.00000000E+00  1.60000000E+01  1.00800000E+00  1.00800000E+00  0.00000000E+00
  1.60000000E+01  1.00800000E+00  1.00800000E+00  0.00000000E+00  1.60000000E+01
  1.00800000E+00  1.00800000E+00  0.00000000E+00  1.60000000E+01  1.00800000E+00
  1.00800000E+00  0.00000000E+00  1.60000000E+01  1.00800000E+00  1.00800000E+00
  0.00000000E+00  1.60000000E+01  1.00800000E+00  1.00800000E+00  0.00000000E+00
  1.60000000E+01  1.00800000E+00  1.00800000E+00  0.00000000E+00  1.60000000E+01
  1.00800000E+00  1.00800000E+00  0.00000000E+00  1.60000000E+01  1.00800000E+00
  1.00800000E+00  0.00000000E+00  1.60000000E+01  1.00800000E+00  1.00800000E+00
  0.00000000E+00  1.60000000E+01  1.00800000E+00  1.00800000E+00  0.00000000E+00
  1.60000000E+01  1.00800000E+00  1.00800000E+00  0.00000000E+00  1.60000000E+01
  1.00800000E+00  1.00800000E+00  0.00000000E+00  1.60000000E+01  1.00800000E+00
  1.00800000E+00  0.00000000E+00  1.60000000E+01  1.00800000E+00  1.00800000E+00
  0.00000000E+00  1.60000000E+01  1.00800000E+00  1.00800000E+00  0.00000000E+00
  1.60000000E+01  1.00800000E+00  1.00800000E+00  0.00000000E+00  1.60000000E+01
  1.00800000E+00  1.00800000E+00  0.00000000E+00  1.60000000E+01  1.00800000E+00
  1.00800000E+00  0.00000000E+00  1.60000000E+01  1.00800000E+00  1.00800000E+00
  0.00000000E+00  1.60000000E+01  1.00800000E+00  1.00800000E+00  0.00000000E+00
  1.60000000E+01  1.00800000E+00  1.00800000E+00  0.00000000E+00  1.60000000E+01
  1.00800000E+00  1.00800000E+00  0.00000000E+00  1.60000000E+01  1.00800000E+00
  1.00800000E+00  0.00000000E+00  1.60000000E+01  1.00800000E+00  1.00800000E+00
  0.00000000E+00  1.60000000E+01  1.00800000E+00  1.00800000E+00  0.00000000E+00
  1.60000000E+01  1.00800000E+00  1.00800000E+00  0.00000000E+00  1.60000000E+01
  1.00800000E+00  1.00800000E+00  0.00000000E+00  1.60000000E+01  1.00800000E+00
  1.00800000E+00  0.00000000E+00  1.60000000E+01  1.00800000E+00  1.00800000E+00
  0.00000000E+00  1.60000000E+01  1.00800000E+00  1.00800000E+00  0.00000000E+00
  1.60000000E+01  1.00800000E+00  1.00800000E+00  0.00000000E+00  1.60000000E+01
  1.00800000E+00  1.00800000E+00  0.00000000E+00  1.60000000E+01  1.00800000E+00
  1.00800000E+00  0.00000000E+00  1.60000000E+01  1.00800000E+00  1.00800000E+00
  0.00000000E+00  1.60000000E+01  1.00800000E+00  1.00800000E+00  0.00000000E+00
  1.60000000E+01  1.00800000E+00  1.00800000E+00  0.00000000E+00  1.60000000E+01
  1.00800000E+00  1.00800000E+00  0.00000000E+00  1.60000000E+01  1.00800000E+00
  1.00800000E+00  0.00000000E+00  1.60000000E+01  1.00800000E+00  1.00800000E+00
  0.00000000E+00  1.60000000E+01  1.00800000E+00  1.00800000E+00  0.00000000E+00
  1.60000000E+01  1.00800000E+00  1.00800000E+00  0.00000000E+00  1.60000000E+01
  1.00800000E+00  1.00800000E+00  0.00000000E+00  1.60000000E+01  1.00800000E+00
  1.00800000E+00  0.00000000E+00  1.60000000E+01  1.00800000E+00  1.00800000E+00
  0.00000000E+00  1.60000000E+01  1.00800000E+00  1.00800000E+00  0.00000000E+00
  1.60000000E+01  1.00800000E+00  1.00800000E+00  0.00000000E+00  1.60000000E+01
  1.00800000E+00  1.00800000E+00  0.00000000E+00  1.60000000E+01  1.00800000E+00
  1.00800000E+00  0.00000000E+00  1.60000000E+01  1.00800000E+00  1.00800000E+00
  0.00000000E+00  1.60000000E+01  1.00800000E+00  1.00800000E+00  0.00000000E+00
  1.60000000E+01  1.00800000E+00  1.00800000E+00  0.00000000E+00  1.60000000E+01
  1.00800000E+00  1.00800000E+00  0.00000000E+00  1.60000000E+01  1.00800000E+00
  1.00800000E+00  0.00000000E+00  1.60000000E+01  1.00800000E+00  1.00800000E+00
  0.00000000E+00  1.60000000E+01  1.00800000E+00  1.00800000E+00  0.00000000E+00
  1.60000000E+01  1.00800000E+00  1.00800000E+00  0.00000000E+00  1.60000000E+01
  1.00800000E+00  1.00800000E+00  0.00000000E+00  1.60000000E+01  1.00800000E+00
  1.00800000E+00  0.00000000E+00  1.60000000E+01  1.00800000E+00  1.00800000E+00
  0.00000000E+00  1.60000000E+01  1.00800000E+00  1.00800000E+00  0.00000000E+00
  1.60000000E+01  1.00800000E+00  1.00800000E+00  0.00000000E+00  1.60000000E+01
  1.00800000E+00  1.00800000E+00  0.00000000E+00  1.60000000E+01  1.00800000E+00
  1.00800000E+00  0.00000000E+00  1.60000000E+01  1.00800000E+00  1.00800000E+00
  0.00000000E+00  1.60000000E+01  1.00800000E+00  1.00800000E+00  0.00000000E+00
  1.60000000E+01  1.00800000E+00  1.00800000E+00  0.00000000E+00  1.60000000E+01
  1.00800000E+00  1.00800000E+00  0.00000000E+00  1.60000000E+01  1.00800000E+00
  1.00800000E+00  0.00000000E+00  1.60000000E+01  1.00800000E+00  1.00800000E+00
  0.00000000E+00  1.60000000E+01  1.00800000E+00  1.00800000E+00  0.00000000E+00
  1.60000000E+01  1.00800000E+00  1.00800000E+00  0.00000000E+00  1.60000000E+01
  1.00800000E+00  1.00800000E+00  0.00000000E+00  1.60000000E+01  1.00800000E+00
  1.00800000E+00  0.00000000E+00  1.60000000E+01  1.00800000E+00  1.00800000E+00
  0.00000000E+00  1.60000000E+01  1.00800000E+00  1.00800000E+00  0.00000000E+00
  1.60000000E+01  1.00800000E+00  1.00800000E+00  0.00000000E+00  1.60000000E+01
  1.00800000E+00  1.00800000E+00  0.00000000E+00  1.60000000E+01  1.00800000E+00
  1.00800000E+00  0.00000000E+00  1.60000000E+01  1.00800000E+00  1.00800000E+00
  0.00000000E+00  1.60000000E+01  1.00800000E+00  1.00800000E+00  0.00000000E+00
  1.60000000E+01  1.00800000E+00  1.00800000E+00  0.00000000E+00  1.60000000E+01
  1.00800000E+00  1.00800000E+00  0.00000000E+00  1.60000000E+01  1.00800000E+00
  1.00800000E+00  0.00000000E+00  1.60000000E+01  1.00800000E+00  1.00800000E+00
  0.00000000E+00  1.60000000E+01  1.00800000E+00  1.00800000E+00  0.00000000E+00
  1.60000000E+01  1.00800000E+00  1.00800000E+00  0.00000000E+00  1.60000000E+01
  1.00800000E+00  1.00800000E+00  0.00000000E+00  1.60000000E+01  1.00800000E+00
  1.00800000E+00  0.00000000E+00  1.60000000E+01  1.00800000E+00  1.00800000E+00
  0.00000000E+00  1.60000000E+01  1.00800000E+00  1.00800000E+00  0.00000000E+00
  1.60000000E+01  1.00800000E+00  1.00800000E+00  0.00000000E+00  1.60000000E+01
  1.00800000E+00  1.00800000E+00  0.00000000E+00  1.60000000E+01  1.00800000E+00
  1.00800000E+00  0.00000000E+00  1.60000000E+01  1.00800000E+00  1.00800000E+00
  0.00000000E+00  1.60000000E+01  1.00800000E+00  1.00800000E+00  0.00000000E+00
  1.60000000E+01  1.00800000E+00  1.00800000E+00  0.00000000E+00  1.60000000E+01
  1.00800000E+00  1.00800000E+00  0.00000000E+00  1.60000000E+01  1.00800000E+00
  1.00800000E+00  0.00000000E+00  1.60000000E+01  1.00800000E+00  1.00800000E+00
  0.00000000E+00  1.60000000E+01  1.00800000E+00  1.00800000E+00  0.00000000E+00
  1.60000000E+01  1.00800000E+00  1.00800000E+00  0.00000000E+00  1.60000000E+01
  1.00800000E+00  1.00800000E+00  0.00000000E+00  1.60000000E+01  1.00800000E+00
  1.00800000E+00  0.00000000E+00  1.60000000E+01  1.00800000E+00  1.00800000E+00
  0.00000000E+00  1.60000000E+01  1.00800000E+00  1.00800000E+00  0.00000000E+00
  1.60000000E+01  1.00800000E+00  1.00800000E+00  0.00000000E+00  1.60000000E+01
  1.00800000E+00  1.00800000E+00  0.00000000E+00  1.60000000E+01  1.00800000E+00
  1.00800000E+00  0.00000000E+00  1.60000000E+01  1.00800000E+00  1.00800000E+00
  0.00000000E+00  1.60000000E+01  1.00800000E+00  1.00800000E+00  0.00000000E+00
  1.60000000E+01  1.00800000E+00  1.00800000E+00  0.00000000E+00  1.60000000E+01
  1.00800000E+00  1.00800000E+00  0.00000000E+00  1.60000000E+01  1.00800000E+00
  1.00800000E+00  0.00000000E+00  1.60000000E+01  1.00800000E+00  1.00800000E+00
  0.00000000E+00  1.60000000E+01  1.00800000E+00  1.00800000E+00  0.00000000E+00
  1.60000000E+01  1.00800000E+00  1.00800000E+00  0.00000000E+00  1.60000000E+01
  1.00800000E+00  1.00800000E+00  0.00000000E+00  1.60000000E+01  1.00800000E+00
  1.00800000E+00  0.00000000E+00  1.60000000E+01  1.00800000E+00  1.00800000E+00
  0.00000000E+00  1.60000000E+01  1.00800000E+00  1.00800000E+00  0.00000000E+00
  1.60000000E+01  1.00800000E+00  1.00800000E+00  0.00000000E+00  1.60000000E+01
  1.00800000E+00  1.00800000E+00  0.00000000E+00  1.60000000E+01  1.00800000E+00
  1.00800000E+00  0.00000000E+00  1.60000000E+01  1.00800000E+00  1.00800000E+00
  0.00000000E+00  1.60000000E+01  1.00800000E+00  1.00800000E+00  0.00000000E+00
  1.60000000E+01  1.00800000E+00  1.00800000E+00  0.00000000E+00  1.60000000E+01
  1.00800000E+00  1.00800000E+00  0.00000000E+00  1.60000000E+01  1.00800000E+00
  1.00800000E+00  0.00000000E+00  1.60000000E+01  1.00800000E+00  1.00800000E+00
  0.00000000E+00  1.60000000E+01  1.00800000E+00  1.00800000E+00  0.00000000E+00
  1.60000000E+01  1.00800000E+00  1.00800000E+00  0.00000000E+00  1.60000000E+01
  1.00800000E+00  1.00800000E+00  0.00000000E+00  1.60000000E+01  1.00800000E+00
  1.00800000E+00  0.00000000E+00  1.60000000E+01  1.00800000E+00  1.00800000E+00
  0.00000000E+00  1.60000000E+01  1.00800000E+00  1.00800000E+00  0.00000000E+00
  1.60000000E+01  1.00800000E+00  1.00800000E+00  0.00000000E+00  1.60000000E+01
  1.00800000E+00  1.00800000E+00  0.00000000E+00  1.60000000E+01  1.00800000E+00
  1.00800000E+00  0.00000000E+00  1.60000000E+01  1.00800000E+00  1.00800000E+00
  0.00000000E+00  1.60000000E+01  1.00800000E+00  1.00800000E+00  0.00000000E+00
  1.60000000E+01  1.00800000E+00  1.00800000E+00  0.00000000E+00  1.60000000E+01
  1.00800000E+00  1.00800000E+00  0.00000000E+00  1.60000000E+01  1.00800000E+00
  1.00800000E+00  0.00000000E+00  1.60000000E+01  1.00800000E+00  1.00800000E+00
  0.00000000E+00  1.60000000E+01  1.00800000E+00  1.00800000E+00  0.00000000E+00
  1.60000000E+01  1.00800000E+00  1.00800000E+00  0.00000000E+00  1.60000000E+01
  1.00800000E+00  1.00800000E+00  0.00000000E+00  1.60000000E+01  1.00800000E+00
  1.00800000E+00  0.00000000E+00  1.60000000E+01  1.00800000E+00  1.00800000E+00
  0.00000000E+00  1.60000000E+01  1.00800000E+00  1.00800000E+00  0.00000000E+00
  1.60000000E+01  1.00800000E+00  1.00800000E+00  0.00000000E+00  1.60000000E+01
  1.00800000E+00  1.00800000E+00  0.00000000E+00  1.60000000E+01  1.00800000E+00
  1.00800000E+00  0.00000000E+00  1.60000000E+01  1.00800000E+00  1.00800000E+00
  0.00000000E+00  1.60000000E+01  1.00800000E+00  1.00800000E+00  0.00000000E+00
  1.60000000E+01  1.00800000E+00  1.00800000E+00  0.00000000E+00  1.60000000E+01
  1.00800000E+00  1.00800000E+00  0.00000000E+00  1.60000000E+01  1.00800000E+00
  1.00800000E+00  0.00000000E+00  1.60000000E+01  1.00800000E+00  1.00800000E+00
  0.00000000E+00  1.60000000E+01  1.00800000E+00  1.00800000E+00  0.00000000E+00
  1.60000000E+01  1.00800000E+00  1.00800000E+00  0.00000000E+00  1.60000000E+01
  1.00800000E+00  1.00800000E+00  0.00000000E+00  1.60000000E+01  1.00800000E+00
  1.00800000E+00  0.00000000E+00  1.60000000E+01  1.00800000E+00  1.00800000E+00
  0.00000000E+00  1.60000000E+01  1.00800000E+00  1.00800000E+00  0.00000000E+00
  1.60000000E+01  1.00800000E+00  1.00800000E+00  0.00000000E+00  1.60000000E+01
  1.00800000E+00  1.00800000E+00  0.00000000E+00  1.60000000E+01  1.00800000E+00
  1.00800000E+00  0.00000000E+00  1.60000000E+01  1.00800000E+00  1.00800000E+00
  0.00000000E+00  1.60000000E+01  1.00800000E+00  1.00800000E+00  0.00000000E+00
  1.60000000E+01  1.00800000E+00  1.00800000E+00  0.00000000E+00  1.60000000E+01
  1.00800000E+00  1.00800000E+00  0.00000000E+00  1.60000000E+01  1.00800000E+00
  1.00800000E+00  0.00000000E+00  1.60000000E+01  1.00800000E+00  1.00800000E+00
  0.00000000E+00  1.60000000E+01  1.00800000E+00  1.00800000E+00  0.00000000E+00
  1.60000000E+01  1.00800000E+00  1.00800000E+00  0.00000000E+00  1.60000000E+01
  1.00800000E+00  1.00800000E+00  0.00000000E+00  1.60000000E+01  1.00800000E+00
  1.00800000E+00  0.00000000E+00  1.60000000E+01  1.00800000E+00  1.00800000E+00
  0.00000000E+00  1.60000000E+01  1.00800000E+00  1.00800000E+00  0.00000000E+00
  1.60000000E+01  1.00800000E+00  1.00800000E+00  0.00000000E+00  1.60000000E+01
  1.00800000E+00  1.00800000E+00  0.00000000E+00  1.60000000E+01  1.00800000E+00
  1.00800000E+00  0.00000000E+00  1.60000000E+01  1.00800000E+00  1.00800000E+00
  0.00000000E+00  1.60000000E+01  1.00800000E+00  1.00800000E+00  0.00000000E+00
  1.60000000E+01  1.00800000E+00  1.00800000E+00  0.00000000E+00  1.60000000E+01
  1.00800000E+00  1.00800000E+00  0.00000000E+00  1.60000000E+01  1.00800000E+00
  1.00800000E+00  0.00000000E+00  1.60000000E+01  1.00800000E+00  1.00800000E+00
  0.00000000E+00  1.60000000E+01  1.00800000E+00  1.00800000E+00  0.00000000E+00
  1.60000000E+01  1.00800000E+00  1.00800000E+00  0.00000000E+00  1.60000000E+01
  1.00800000E+00  1.00800000E+00  0.00000000E+00  1.60000000E+01  1.00800000E+00
  1.00800000E+00  0.00000000E+00  1.60000000E+01  1.00800000E+00  1.00800000E+00
  0.00000000E+00  1.60000000E+01  1.00800000E+00  1.00800000E+00  0.00000000E+00
  1.60000000E+01  1.00800000E+00  1.00800000E+00  0.00000000E+00  1.60000000E+01
  1.00800000E+00  1.00800000E+00  0.00000000E+00  1.60000000E+01  1.00800000E+00
  1.00800000E+00  0.00000000E+00  1.60000000E+01  1.00800000E+00  1.00800000E+00
  0.00000000E+00  1.60000000E+01  1.00800000E+00  1.00800000E+00  0.00000000E+00
  1.60000000E+01  1.00800000E+00  1.00800000E+00  0.00000000E+00  1.60000000E+01
  1.00800000E+00  1.00800000E+00  0.00000000E+00  1.60000000E+01  1.00800000E+00
  1.00800000E+00  0.00000000E+00  1.60000000E+01  1.00800000E+00  1.00800000E+00
  0.00000000E+00  1.60000000E+01  1.00800000E+00  1.00800000E+00  0.00000000E+00
  1.60000000E+01  1.00800000E+00  1.00800000E+00  0.00000000E+00  1.60000000E+01
  1.00800000E+00  1.00800000E+00  0.00000000E+00  1.60000000E+01  1.00800000E+00
  1.00800000E+00  0.00000000E+00  1.60000000E+01  1.00800000E+00  1.00800000E+00
  0.00000000E+00  1.60000000E+01  1.00800000E+00  1.00800000E+00  0.00000000E+00
  1.60000000E+01  1.00800000E+00  1.00800000E+00  0.00000000E+00  1.60000000E+01
  1.00800000E+00  1.00800000E+00  0.00000000E+00  1.60000000E+01  1.00800000E+00
  1.00800000E+00  0.00000000E+00  1.60000000E+01  1.00800000E+00  1.00800000E+00
  0.00000000E+00  1.60000000E+01  1.00800000E+00  1.00800000E+00  0.00000000E+00
  1.60000000E+01  1.00800000E+00  1.00800000E+00  0.00000000E+00  1.60000000E+01
  1.00800000E+00  1.00800000E+00  0.00000000E+00  1.60000000E+01  1.00800000E+00
  1.00800000E+00  0.00000000E+00  1.60000000E+01  1.00800000E+00  1.00800000E+00
  0.00000000E+00  1.60000000E+01  1.00800000E+00  1.00800000E+00  0.00000000E+00
  1.60000000E+01  1.00800000E+00  1.00800000E+00  0.00000000E+00  1.60000000E+01
  1.00800000E+00  1.00800000E+00  0.00000000E+00  1.60000000E+01  1.00800000E+00
  1.00800000E+00  0.00000000E+00  1.60000000E+01  1.00800000E+00  1.00800000E+00
  0.00000000E+00  1.60000000E+01  1.00800000E+00  1.00800000E+00  0.00000000E+00
  1.60000000E+01  1.00800000E+00  1.00800000E+00  0.00000000E+00  1.60000000E+01
  1.00800000E+00  1.00800000E+00  0.00000000E+00  1.60000000E+01  1.00800000E+00
  1.00800000E+00  0.00000000E+00  1.60000000E+01  1.00800000E+00  1.00800000E+00
  0.00000000E+00  1.60000000E+01  1.00800000E+00  1.00800000E+00  0.00000000E+00
  1.60000000E+01  1.00800000E+00  1.00800000E+00  0.00000000E+00  1.60000000E+01
  1.00800000E+00  1.00800000E+00  0.00000000E+00  1.60000000E+01  1.00800000E+00
  1.00800000E+00  0.00000000E+00  1.60000000E+01  1.00800000E+00  1.00800000E+00
  0.00000000E+00  1.60000000E+01  1.00800000E+00  1.00800000E+00  0.00000000E+00
  1.60000000E+01  1.00800000E+00  1.00800000E+00  0.00000000E+00  1.60000000E+01
  1.00800000E+00  1.00800000E+00  0.00000000E+00  1.60000000E+01  1.00800000E+00
  1.00800000E+00  0.00000000E+00  1.60000000E+01  1.00800000E+00  1.00800000E+00
  0.00000000E+00  1.60000000E+01  1.00800000E+00  1.00800000E+00  0.00000000E+00
  1.60000000E+01  1.00800000E+00  1.00800000E+00  0.00000000E+00  1.60000000E+01
  1.00800000E+00  1.00800000E+00  0.00000000E+00  1.60000000E+01  1.00800000E+00
  1.00800000E+00  0.00000000E+00  1.60000000E+01  1.00800000E+00  1.00800000E+00
  0.00000000E+00  1.60000000E+01  1.00800000E+00  1.00800000E+00  0.00000000E+00
  1.60000000E+01  1.00800000E+00  1.00800000E+00  0.00000000E+00  1.60000000E+01
  1.00800000E+00  1.00800000E+00  0.00000000E+00  1.60000000E+01  1.00800000E+00
  1.00800000E+00  0.00000000E+00  1.60000000E+01  1.00800000E+00  1.00800000E+00
  0.00000000E+00  1.60000000E+01  1.00800000E+00  1.00800000E+00  0.00000000E+00
  1.60000000E+01  1.00800000E+00  1.00800000E+00  0.00000000E+00
%FLAG ATOM_TYPE_INDEX                                                           
%FORMAT(10I8)                                                                   
       1       2       3       4       4       3       4       5       3       6
       7       8       9       7       8       8      10       7      11       8
       7      11      11       7       8       3       4       3       4       2
       1       5      12      10      10       5       3       4       4       3
       4       5       3       6       7       8       9       7       8       8
      10       7      11       8       7      11      11       7       8       3
       4       3       4       2       1       5      12      10      10       5
       3       4       4       3       4       5       3       6       7       8
       9       7       8       8       7      11      11       7       8       9
       7       8       3       4       3       4       2       1       5      12
      10      10       5       3       4       4       3       4       5       3
       6       7       8      13       8      14       8      10       7      11
       8      10       3       4       3       4       2       1       5      12
      10      10       5       3       4       4       3       4       5       3
       6       7       8      13       8      14       8       7      11      11
       7       8      10       3       4       3       4       2       1       5
      12      10      10       5       3       4       4       3       4       5
       3       6       7       8       9       7       8       8       7      11
      11       7       8       9       7       8       3       4       3       4
       2       1       5      12      10      10       5       3       4       4
       3       4       5       3       6       7       8      13       8      14
       8      10       7      11       8      10       3       4       3       4
       2       1       5      12      10      10       5       3       4       4
       3       4       5       3       6       7       8       9       7       8
       8       7      11      11       7       8       9       7       8       3
       4       3       4       2       1       5      12      10      10       5
       3       4       4       3       4       5       3       6       7       8
      13       8      14       8      10       7      11       8      10       3
       4       3       4       2       1       5      12      10      10       5
       3       4       4       3       4       5       3       6       7       8
       9       7       8       8       7      11      11       7       8       9
       7       8       3       4       3       4       2       1       5      12
      10      10       5       3       4       4       3       4       5       3
       6       7       8       9       7       8       8       7      11      11
       7       8       9       7       8       3       4       3       4       2
       1       5      12      10      10       5       3       4       4       3
       4       5       3       6       7       8      13       8      14       8
      10       7      11       8      10       3       4       3       4       2
       1       5      12      10      10       5       3       4       4       3
       4       5       3       6       7       8      13       8      14       8
       7      11      11       7       8      10       3       4       3       4
       2       1       5      12      10      10       5       3       4       4
       3       4       5       3       6       7       8       9       7       8
       8      10       7      11       8       7      11      11       7       8
       3       4       3       4       2       1       5      12      10      10
       5       3       4       4       3       4       5       3       6       7
       8      13       8      14       8       7      11      11       7       8
      10       3       4       3       4       2       1       5      12      10
      10       5       3       4       4       3       4       5       3       6
       7       8       9       7       8       8      10       7      11       8
       7      11      11       7       8       3       4       3       4       2
       1       5      12      10      10       5       3       4       4       3
       4       5       3       6       7       8      13       8      14       8
      10       7      11       8      10       3       4       3       4       2
       1       5      12      10      10       5       3       4       4       3
       4       5       3       6       7       8       9       7       8       8
      10       7      11       8       7      11      11       7       8       3
       4       3       4       2       1       5      12      10      10       5
       3       4       4       3       4       5       3       6       7       8
       9       7       8       8      10       7      11       8       7      11
      11       7       8       3       4       3       4       2       1       5
      12      10      10       5       3       4       4       3       4       5
       3       6       7       8       9       7       8       8       7      11
      11       7       8       9       7       8       3       4       3       4
       2       1       5      12      10      10       5       3       4       4
       3       4       5       3       6       7       8      13       8      14
       8      10       7      11       8      10       3       4       3       4
       2       1       5      12      10      10       5       3       4       4
       3       4       5       3       6       7       8       9       7       8
       8       7      11      11       7       8       9       7       8       3
       4       3       4       2       1       5      12      10      10       5
       3       4       4       3       4       5       3       6       7       8
      13       8      14       8      10       7      11       8      10       3
       4       3       4       2       1       5      12      10      10       5
       3       4       4       3       4       5       3       6       7       8
       9       7       8       8      10       7      11       8       7      11
      11       7       8       3       4       3       4       2       1       5
      12      10      10       5       3       4       4       3       4       5
       3       6       7       8       9       7       8       8      10       7
      11       8       7      11      11       7       8       3       4       3
       4       2       1       5      12      10      10       5       3       4
       4       3       4       5       3       6       7       8      13       8
      14       8       7      11      11       7       8      10       3       4
       3       4       2       1       5      12      10      10       5       3
       4       4       3       4       5       3       6       7       8       9
       7       8       8       7      11      11       7       8       9       7
       8       3       4       3       4       2       1       5      12      10
      10       5       3       4       4       3       4       5       3       6
       7       8      13       8      14       8       7      11      11       7
       8      10       3       4       3       4       2       1       5      12
      10      10       5       3       4       4       3       4       5       3
       6       7       8       9       7       8       8      10       7      11
       8       7      11      11       7       8       3       4       3       4
       2       1       5      12      10      10       5       3       4       4
       3       4       5       3       6       7       8      13       8      14
       8       7      11      11       7       8      10       3       4       3
       4       2       1       5      12      10      10       5       3       4
       4       3       4       5       3       6       7       8       9       7
       8       8       7      11      11       7       8       9       7       8
       3       4       3       4       2       1       5      12      10      10
       5       3       4       4       3       4       5       3       6       7
       8       9       7       8       8       7      11      11       7       8
       9       7       8       3       4       3       4       2       1       5
      12      10      10       5       3       4       4       3       4       5
       3       6       7       8       9       7       8       8      10       7
      11       8       7      11      11       7       8       3       4       3
       4       2       1       5      12      10      10       5       3       4
       4       3       4       5       3       6       7       8      13       8
      14       8      10       7      11       8      10       3       4       3
       4       2       1       5      12      10      10       5       3       4
       4       3       4       5       3       6       7       8      13       8
      14       8      10       7      11       8      10       3       4       3
       4       2       1       5      12      10      10       5       3       4
       4       3       4       5       3       6       7       8      13       8
      14       8      10       7      11       8      10       3       4       3
       4       2       1       5      12      10      10       5       3       4
       4       3       4       5       3       6       7       8      13       8
      14       8       7      11      11       7       8      10       3       4
       3       4       2       1       5      12      10      10       5       3
       4       4       3       4       5       3       6       7       8      13
       8      14       8      10       7      11       8      10       3       4
       3       4       2       1       5      12      10      10       5       3
       4       4       3       4       5       3       6       7       8       9
       7       8       8       7      11      11       7       8       9       7
       8       3       4       3       4       2       1       5      12      10
      10       5       3       4       4       3       4       5       3       6
       7       8      13       8      14       8       7      11      11       7
       8      10       3       4       3       4       2       1       5      12
      10      10       5       3       4       4       3       4       5       3
       6       7       8      13       8      14       8       7      11      11
       7       8      10       3       4       3       4       2       1       5
      12      10      10       5       3       4       4       3       4       5
       3       6       7       8       9       7       8       8      10       7
      11       8       7      11      11       7       8       3       4       3
       4       2       1       5      12      10      10       5       3       4
       4       3       4       5       3       6       7       8       9       7
       8       8      10       7      11       8       7      11      11       7
       8       3       4       3       4       2       1       5      12      10
      10       5       3       4       4       3       4       5       3       6
       7       8       9       7       8       8      10       7      11       8
       7      11      11       7       8       3       4       3       4       2
       1       5      12      10      10       5       3       4       4       3
       4       5       3       6       7       8      13       8      14       8
       7      11      11       7       8      10       3       4       3       4
       2       1       5      12      10      10       5       3       4       4
       3       4       5       3       6       7       8       9       7       8
       8       7      11      11       7       8       9       7       8       3
       4       3       4       2       1       5      12      10      10       5
       3       4       4       3       4       5       3       6       7       8
      13       8      14       8       7      11      11       7       8      10
       3       4       3       4       2       1       5      12      10      10
       5       3       4       4       3       4       5       3       6       7
       8      13       8      14       8       7      11      11       7       8
      10       3       4       3       4       2       1       5      12      10
      10       5       3       4       4       3       4       5       3       6
       7       8       9       7       8       8      10       7      11       8
       7      11      11       7       8       3       4       3       4       2
       1       5      12      10      10       5       3       4       4       3
       4       5       3       6       7       8      13       8      14       8
      10       7      11       8      10       3       4       3       4       2
       1       5      12      10      10       5       3       4       4       3
       4       5       3       6       7       8       9       7       8       8
       7      11      11       7       8       9       7       8       3       4
       3       4       2       1       5      12      10      10       5       3
       4       4       3       4       5       3       6       7       8       9
       7       8       8       7      11      11       7       8       9       7
       8       3       4       3       4       2       1       5      12      10
      10       5       3       4       4       3       4       5       3       6
       7       8       9       7       8       8       7      11      11       7
       8       9       7       8       3       4       3       4       2       1
       5      12      10      10       5       3       4       4       3       4
       5       3       6       7       8      13       8      14       8      10
       7      11       8      10       3       4       3       4       2       1
       5      12      10      10       5       3       4       4       3       4
       5       3       6       7       8       9       7       8       8      10
       7      11       8       7      11      11       7       8       3       4
       3       4       2       1       5      12      10      10       5       3
       4       4       3       4       5       3       6       7       8      13
       8      14       8      10       7      11       8      10       3       4
       3       4       2       1       5      12      10      10       5       3
       4       4       3       4       5       3       6       7       8      13
       8      14       8       7      11      11       7       8      10       3
       4       3       4       2       1       5      12      10      10       5
       3       4       4       3       4       5       3       6       7       8
      13       8      14       8       7      11      11       7       8      10
       3       4       3       4       2       1       5      12      10      10
       5       3       4       4       3       4       5       3       6       7
       8       9       7       8       8      10       7      11       8       7
      11      11       7       8       3       4       3       4       2       1
       5      12      10      10       5       3       4       4       3       4
       5       3       6       7       8       9       7       8       8       7
      11      11       7       8       9       7       8       3       4       3
       4       2       1       5      12      10      10       5       3       4
       4       3       4       5       3       6       7       8      13       8
      14       8       7      11      11       7       8      10       3       4
       3       4       2       1       5      12      10      10       5       3
       4       4       3       4       5       3       6       7       8      13
       8      14       8      10       7      11       8      10       3       4
       3       4       2       1       5      12      10      10       5       3
       4       4       3       4       5       3       6       7       8       9
       7       8       8       7      11      11       7       8       9       7
       8       3       4       3       4       2       1       5      12      10
      10       5       3       4       4       3       4       5       3       6
       7       8      13       8      14       8      10       7      11       8
      10       3       4       3       4       2       1       5      12      10
      10       5       3       4       4       3       4       5       3       6
       7       8       9       7       8       8      10       7      11       8
       7      11      11       7       8       3       4       3       4       2
       1       5      12      10      10       5       3       4       4       3
       4       5       3       6       7       8       9       7       8       8
      10       7      11       8       7      11      11       7       8       3
       4       3       4       2       1       5      12      10      10       5
       3       4       4       3       4       5       3       6       7       8
      13       8      14       8      10       7      11       8      10       3
       4       3       4       2       1       5      12      10      10       5
       3       4       4       3       4       5       3       6       7       8
      13       8      14       8       7      11      11       7       8      10
       3       4       3       4       2       1       2       1      15      15
      15      15      15      15      15      15      15      15      15      15
      15      15      15      15      15      15      15      15      15      15
      15      15      15      15      15      15      15      15      15      15
      15      15      15      15      15      15      15      15      15      15
      15      15      15      15      15      15      15      15      15      15
      15      15      15      15      15      15      15      15      15      15
      15      15      15      15      15      15      16      15      16      15
      16      15      16      15      16      15      16      15      16      15
      16      15      16      15      16      15      16      15      16      15
      16      15      16      15      16      15      16      15      16      15
      16      15      16      15      16      15      16      15      16      15
      16      15      16      15      16      15      16      15      16      15
      16      15      16      15      16      15      16      15      16      17
      18      19      18      20      21      22      18      18      18      18
      18      18      23      18      18      23      18      24      25      25
      26      26      27      27      27      27      27      28      25      29
       1       1      30      29       1       1      30      29       1       1
      30      29       1       1      30      29       1       1      30      29
       1       1      30      29       1       1      30      29       1       1
      30      29       1       1      30      29       1       1      30      29
       1       1      30      29       1       1      30      29       1       1
      30      29       1       1      30      29       1       1      30      29
       1       1      30      29       1       1      30      29       1       1
      30      29       1       1      30      29       1       1      30      29
       1       1      30      29       1       1      30      29       1       1
      30      29       1       1      30      29       1       1      30      29
       1       1      30      29       1       1      30      29       1       1
      30      29       1       1      30      29       1       1      30      29
       1       1      30      29       1       1      30      29       1       1
      30      29       1       1      30      29       1       1      30      29
       1       1      30      29       1       1      30      29       1       1
      30      29       1       1      30      29       1       1      30      29
       1       1      30      29       1       1      30      29       1       1
      30      29       1       1      30      29       1       1      30      29
       1       1      30      29       1       1      30      29       1       1
      30      29       1       1      30      29       1       1      30      29
       1       1      30      29       1       1      30      29       1       1
      30      29       1       1      30      29       1       1      30      29
       1       1      30      29       1       1      30      29       1       1
      30      29       1       1      30      29       1       1      30      29
       1       1      30      29       1       1      30      29       1       1
      30      29       1       1      30      29       1       1      30      29
       1       1      30      29       1       1      30      29       1       1
      30      29       1       1      30      29       1       1      30      29
       1       1      30      29       1       1      30      29       1       1
      30      29       1       1      30      29       1       1      30      29
       1       1      30      29       1       1      30      29       1       1
      30      29       1       1      30      29       1       1      30      29
       1       1      30      29       1       1      30      29       1       1
      30      29       1       1      30      29       1       1      30      29
       1       1      30      29       1       1      30      29       1       1
      30      29       1       1      30      29       1       1      30      29
       1       1      30      29       1       1      30      29       1       1
      30      29       1       1      30      29       1       1      30      29
       1       1      30      29       1       1      30      29       1       1
      30      29       1       1      30      29       1       1      30      29
       1       1      30      29       1       1      30      29       1       1
      30      29       1       1      30      29       1       1      30      29
       1       1      30      29       1       1      30      29       1       1
      30      29       1       1      30      29       1       1      30      29
       1       1      30      29       1       1      30      29       1       1
      30      29       1       1      30      29       1       1      30      29
       1       1      30      29       1       1      30      29       1       1
      30      29       1       1      30      29       1       1      30      29
       1       1      30      29       1       1      30      29       1       1
      30      29       1       1      30      29       1       1      30      29
       1       1      30      29       1       1      30      29       1       1
      30      29       1       1      30      29       1       1      30      29
       1       1      30      29       1       1      30      29       1       1
      30      29       1       1      30      29       1       1      30      29
       1       1      30      29       1       1      30      29       1       1
      30      29       1       1      30      29       1       1      30      29
       1       1      30      29       1       1      30      29       1       1
      30      29       1       1      30      29       1       1      30      29
       1       1      30      29       1       1      30      29       1       1
      30      29       1       1      30      29       1       1      30      29
       1       1      30      29       1       1      30      29       1       1
      30      29       1       1      30      29       1       1      30      29
       1       1      30      29       1       1      30      29       1       1
      30      29       1       1      30      29       1       1      30      29
       1       1      30      29       1       1      30      29       1       1
      30      29       1       1      30      29       1       1      30      29
       1       1      30      29       1       1      30      29       1       1
      30      29       1       1      30      29       1       1      30      29
       1       1      30      29       1       1      30      29       1       1
      30      29       1       1      30      29       1       1      30      29
       1       1      30      29       1       1      30      29       1       1
      30      29       1       1      30      29       1       1      30      29
       1       1      30      29       1       1      30      29       1       1
      30      29       1       1      30      29       1       1      30      29
       1       1      30      29       1       1      30      29       1       1
      30      29       1       1      30      29       1       1      30      29
       1       1      30      29       1       1      30      29       1       1
      30      29       1       1      30      29       1       1      30      29
       1       1      30      29       1       1      30      29       1       1
      30      29       1       1      30      29       1       1      30      29
       1       1      30      29       1       1      30      29       1       1
      30      29       1       1      30      29       1       1      30      29
       1       1      30      29       1       1      30      29       1       1
      30      29       1       1      30      29       1       1      30      29
       1       1      30      29       1       1      30      29       1       1
      30      29       1       1      30      29       1       1      30      29
       1       1      30      29       1       1      30      29       1       1
      30      29       1       1      30      29       1       1      30      29
       1       1      30      29       1       1      30      29       1       1
      30      29       1       1      30      29       1       1      30      29
       1       1      30      29       1       1      30      29       1       1
      30      29       1       1      30      29       1       1      30      29
       1       1      30      29       1       1      30      29       1       1
      30      29       1       1      30      29       1       1      30      29
       1       1      30      29       1       1      30      29       1       1
      30      29       1       1      30      29       1       1      30      29
       1       1      30      29       1       1      30      29       1       1
      30      29       1       1      30      29       1       1      30      29
       1       1      30      29       1       1      30      29       1       1
      30      29       1       1      30      29       1       1      30      29
       1       1      30      29       1       1      30      29       1       1
      30      29       1       1      30      29       1       1      30      29
       1       1      30      29       1       1      30      29       1       1
      30      29       1       1      30      29       1       1      30      29
       1       1      30      29       1       1      30      29       1       1
      30      29       1       1      30      29       1       1      30      29
       1       1      30      29       1       1      30      29       1       1
      30      29       1       1      30      29       1       1      30      29
       1       1      30      29       1       1      30      29       1       1
      30      29       1       1      30      29       1       1      30      29
       1       1      30      29       1       1      30      29       1       1
      30      29       1       1      30      29       1       1      30      29
       1       1      30      29       1       1      30      29       1       1
      30      29       1       1      30      29       1       1      30      29
       1       1      30      29       1       1      30      29       1       1
      30      29       1       1      30      29       1       1      30      29
       1       1      30      29       1       1      30      29       1       1
      30      29       1       1      30      29       1       1      30      29
       1       1      30      29       1       1      30      29       1       1
      30      29       1       1      30      29       1       1      30      29
       1       1      30      29       1       1      30      29       1       1
      30      29       1       1      30      29       1       1      30      29
       1       1      30      29       1       1      30      29       1       1
      30      29       1       1      30      29       1       1      30      29
       1       1      30      29       1       1      30      29       1       1
      30      29       1       1      30      29       1       1      30      29
       1       1      30      29       1       1      30      29       1       1
      30      29       1       1      30      29       1       1      30      29
       1       1      30      29       1       1      30      29       1       1
      30      29       1       1      30      29       1       1      30      29
       1       1      30      29       1       1      30      29       1       1
      30      29       1       1      30      29       1       1      30      29
       1       1      30      29       1       1      30      29       1       1
      30      29       1       1      30      29       1       1      30      29
       1       1      30      29       1       1      30      29       1       1
      30      29       1       1      30      29       1       1      30      29
       1       1      30      29       1       1      30      29       1       1
      30      29       1       1      30      29       1       1      30      29
       1       1      30      29       1       1      30      29       1       1
      30      29       1       1      30      29       1       1      30      29
       1       1      30      29       1       1      30      29       1       1
      30      29       1       1      30      29       1       1      30      29
       1       1      30      29       1       1      30      29       1       1
      30      29       1       1      30      29       1       1      30      29
       1       1      30      29       1       1      30      29       1       1
      30      29       1       1      30      29       1       1      30      29
       1       1      30      29       1       1      30      29       1       1
      30      29       1       1      30      29       1       1      30      29
       1       1      30      29       1       1      30      29       1       1
      30      29       1       1      30      29       1       1      30      29
       1       1      30      29       1       1      30      29       1       1
      30      29       1       1      30      29       1       1      30      29
       1       1      30      29       1       1      30      29       1       1
      30      29       1       1      30      29       1       1      30      29
       1       1      30      29       1       1      30      29       1       1
      30      29       1       1      30      29       1       1      30      29
       1       1      30      29       1       1      30      29       1       1
      30      29       1       1      30      29       1       1      30      29
       1       1      30      29       1       1      30      29       1       1
      30      29       1       1      30      29       1       1      30      29
       1       1      30      29       1       1      30      29       1       1
      30      29       1       1      30      29       1       1      30      29
       1       1      30      29       1       1      30      29       1       1
      30      29       1       1      30      29       1       1      30      29
       1       1      30      29       1       1      30      29       1       1
      30      29       1       1      30      29       1       1      30      29
       1       1      30      29       1       1      30      29       1       1
      30      29       1       1      30      29       1       1      30      29
       1       1      30      29       1       1      30      29       1       1
      30      29       1       1      30      29       1       1      30      29
       1       1      30      29       1       1      30      29       1       1
      30      29       1       1      30      29       1       1      30      29
       1       1      30      29       1       1      30      29       1       1
      30      29       1       1      30      29       1       1      30      29
       1       1      30      29       1       1      30      29       1       1
      30      29       1       1      30      29       1       1      30      29
       1       1      30      29       1       1      30      29       1       1
      30      29       1       1      30      29       1       1      30      29
       1       1      30      29       1       1      30      29       1       1
      30      29       1       1      30      29       1       1      30      29
       1       1      30      29       1       1      30      29       1       1
      30      29       1       1      30      29       1       1      30      29
       1       1      30      29       1       1      30      29       1       1
      30      29       1       1      30      29       1       1      30      29
       1       1      30      29       1       1      30      29       1       1
      30      29       1       1      30      29       1       1      30      29
       1       1      30      29       1       1      30      29       1       1
      30      29       1       1      30      29       1       1      30      29
       1       1      30      29       1       1      30      29       1       1
      30      29       1       1      30      29       1       1      30      29
       1       1      30      29       1       1      30      29       1       1
      30      29       1       1      30      29       1       1      30      29
       1       1      30      29       1       1      30      29       1       1
      30      29       1       1      30      29       1       1      30      29
       1       1      30      29       1       1      30      29       1       1
      30      29       1       1      30      29       1       1      30      29
       1       1      30      29       1       1      30      29       1       1
      30      29       1       1      30      29       1       1      30      29
       1       1      30      29       1       1      30      29       1       1
      30      29       1       1      30      29       1       1      30      29
       1       1      30      29       1       1      30      29       1       1
      30      29       1       1      30      29       1       1      30      29
       1       1      30      29       1       1      30      29       1       1
      30      29       1       1      30      29       1       1      30      29
       1       1      30      29       1       1      30      29       1       1
      30      29       1       1      30      29       1       1      30      29
       1       1      30      29       1       1      30      29       1       1
      30      29       1       1      30      29       1       1      30      29
       1       1      30      29       1       1      30      29       1       1
      30      29       1       1      30      29       1       1      30      29
       1       1      30      29       1       1      30      29       1       1
      30      29       1       1      30      29       1       1      30      29
       1       1      30      29       1       1      30      29       1       1
      30      29       1       1      30      29       1       1      30      29
       1       1      30      29       1       1      30      29       1       1
      30      29       1       1      30      29       1       1      30      29
       1       1      30      29       1       1      30      29       1       1
      30      29       1       1      30      29       1       1      30      29
       1       1      30      29       1       1      30      29       1       1
      30      29       1       1      30      29       1       1      30      29
       1       1      30      29       1       1      30      29       1       1
      30      29       1       1      30      29       1       1      30      29
       1       1      30      29       1       1      30      29       1       1
      30      29       1       1      30      29       1       1      30      29
       1       1      30      29       1       1      30      29       1       1
      30      29       1       1      30      29       1       1      30      29
       1       1      30      29       1       1      30      29       1       1
      30      29       1       1      30      29       1       1      30      29
       1       1      30      29       1       1      30      29       1       1
      30      29       1       1      30      29       1       1      30      29
       1       1      30      29       1       1      30      29       1       1
      30      29       1       1      30      29       1       1      30      29
       1       1      30      29       1       1      30      29       1       1
      30      29       1       1      30      29       1       1      30      29
       1       1      30      29       1       1      30      29       1       1
      30      29       1       1      30      29       1       1      30      29
       1       1      30      29       1       1      30      29       1       1
      30      29       1       1      30      29       1       1      30      29
       1       1      30      29       1       1      30      29       1       1
      30      29       1       1      30      29       1       1      30      29
       1       1      30      29       1       1      30      29       1       1
      30      29       1       1      30      29       1       1      30      29
       1       1      30      29       1       1      30      29       1       1
      30      29       1       1      30      29       1       1      30      29
       1       1      30      29       1       1      30      29       1       1
      30      29       1       1      30      29       1       1      30      29
       1       1      30      29       1       1      30      29       1       1
      30      29       1       1      30      29       1       1      30      29
       1       1      30      29       1       1      30      29       1       1
      30      29       1       1      30      29       1       1      30      29
       1       1      30      29       1       1      30      29       1       1
      30      29       1       1      30      29       1       1      30      29
       1       1      30      29       1       1      30      29       1       1
      30      29       1       1      30      29       1       1      30      29
       1       1      30      29       1       1      30      29       1       1
      30      29       1       1      30      29       1       1      30      29
       1       1      30      29       1       1      30      29       1       1
      30      29       1       1      30      29       1       1      30      29
       1       1      30      29       1       1      30      29       1       1
      30      29       1       1      30      29       1       1      30      29
       1       1      30      29       1       1      30      29       1       1
      30      29       1       1      30      29       1       1      30      29
       1       1      30      29       1       1      30      29       1       1
      30      29       1       1      30      29       1       1      30      29
       1       1      30      29       1       1      30      29       1       1
      30      29       1       1      30      29       1       1      30      29
       1       1      30      29       1       1      30      29       1       1
      30      29       1       1      30      29       1       1      30      29
       1       1      30      29       1       1      30      29       1       1
      30      29       1       1      30      29       1       1      30      29
       1       1      30      29       1       1      30      29       1       1
      30      29       1       1      30      29       1       1      30      29
       1       1      30      29       1       1      30      29       1       1
      30      29       1       1      30      29       1       1      30      29
       1       1      30      29       1       1      30      29       1       1
      30      29       1       1      30      29       1       1      30      29
       1       1      30      29       1       1      30      29       1       1
      30      29       1       1      30      29       1       1      30      29
       1       1      30      29       1       1      30      29       1       1
      30      29       1       1      30      29       1       1      30      29
       1       1      30      29       1       1      30      29       1       1
      30      29       1       1      30      29       1       1      30      29
       1       1      30      29       1       1      30      29       1       1
      30      29       1       1      30      29       1       1      30      29
       1       1      30      29       1       1      30      29       1       1
      30      29       1       1      30      29       1       1      30      29
       1       1      30      29       1       1      30      29       1       1
      30      29       1       1      30      29       1       1      30      29
       1       1      30      29       1       1      30      29       1       1
      30      29       1       1      30      29       1       1      30      29
       1       1      30      29       1       1      30      29       1       1
      30      29       1       1      30      29       1       1      30      29
       1       1      30      29       1       1      30      29       1       1
      30      29       1       1      30      29       1       1      30      29
       1       1      30      29       1       1      30      29       1       1
      30      29       1       1      30      29       1       1      30      29
       1       1      30      29       1       1      30      29       1       1
      30      29       1       1      30      29       1       1      30      29
       1       1      30      29       1       1      30      29       1       1
      30      29       1       1      30      29       1       1      30      29
       1       1      30      29       1       1      30      29       1       1
      30      29       1       1      30      29       1       1      30      29
       1       1      30      29       1       1      30      29       1       1
      30      29       1       1      30      29       1       1      30      29
       1       1      30      29       1       1      30      29       1       1
      30      29       1       1      30      29       1       1      30      29
       1       1      30      29       1       1      30      29       1       1
      30      29       1       1      30      29       1       1      30      29
       1       1      30      29       1       1      30      29       1       1
      30      29       1       1      30      29       1       1      30      29
       1       1      30      29       1       1      30      29       1       1
      30      29       1       1      30      29       1       1      30      29
       1       1      30      29       1       1      30      29       1       1
      30      29       1       1      30      29       1       1      30      29
       1       1      30      29       1       1      30      29       1       1
      30      29       1       1      30      29       1       1      30      29
       1       1      30      29       1       1      30      29       1       1
      30      29       1       1      30      29       1       1      30      29
       1       1      30      29       1       1      30      29       1       1
      30      29       1       1      30      29       1       1      30      29
       1       1      30      29       1       1      30      29       1       1
      30      29       1       1      30      29       1       1      30      29
       1       1      30      29       1       1      30      29       1       1
      30      29       1       1      30      29       1       1      30      29
       1       1      30      29       1       1      30      29       1       1
      30      29       1       1      30      29       1       1      30      29
       1       1      30      29       1       1      30      29       1       1
      30      29       1       1      30      29       1       1      30      29
       1       1      30      29       1       1      30      29       1       1
      30      29       1       1      30      29       1       1      30      29
       1       1      30      29       1       1      30      29       1       1
      30      29       1       1      30      29       1       1      30      29
       1       1      30      29       1       1      30      29       1       1
      30      29       1       1      30      29       1       1      30      29
       1       1      30      29       1       1      30      29       1       1
      30      29       1       1      30      29       1       1      30      29
       1       1      30      29       1       1      30      29       1       1
      30      29       1       1      30      29       1       1      30      29
       1       1      30      29       1       1      30      29       1       1
      30      29       1       1      30      29       1       1      30      29
       1       1      30      29       1       1      30      29       1       1
      30      29       1       1      30      29       1       1      30      29
       1       1      30      29       1       1      30      29       1       1
      30      29       1       1      30      29       1       1      30      29
       1       1      30      29       1       1      30      29       1       1
      30      29       1       1      30      29       1       1      30      29
       1       1      30      29       1       1      30      29       1       1
      30      29       1       1      30      29       1       1      30      29
       1       1      30      29       1       1      30      29       1       1
      30      29       1       1      30      29       1       1      30      29
       1       1      30      29       1       1      30      29       1       1
      30      29       1       1      30      29       1       1      30      29
       1       1      30      29       1       1      30      29       1       1
      30      29       1       1      30      29       1       1      30      29
       1       1      30      29       1       1      30      29       1       1
      30      29       1       1      30      29       1       1      30      29
       1       1      30      29       1       1      30      29       1       1
      30      29       1       1      30      29       1       1      30      29
       1       1      30      29       1       1      30      29       1       1
      30      29       1       1      30      29       1       1      30      29
       1       1      30      29       1       1      30      29       1       1
      30      29       1       1      30      29       1       1      30      29
       1       1      30      29       1       1      30      29       1       1
      30      29       1       1      30      29       1       1      30      29
       1       1      30      29       1       1      30      29       1       1
      30      29       1       1      30      29       1       1      30      29
       1       1      30      29       1       1      30      29       1       1
      30      29       1       1      30      29       1       1      30      29
       1       1      30      29       1       1      30      29       1       1
      30      29       1       1      30      29       1       1      30      29
       1       1      30      29       1       1      30      29       1       1
      30      29       1       1      30      29       1       1      30      29
       1       1      30      29       1       1      30      29       1       1
      30      29       1       1      30      29       1       1      30      29
       1       1      30      29       1       1      30      29       1       1
      30      29       1       1      30      29       1       1      30      29
       1       1      30      29       1       1      30      29       1       1
      30      29       1       1      30      29       1       1      30      29
       1       1      30      29       1       1      30      29       1       1
      30      29       1       1      30      29       1       1      30      29
       1       1      30      29       1       1      30      29       1       1
      30      29       1       1      30      29       1       1      30      29
       1       1      30      29       1       1      30      29       1       1
      30      29       1       1      30      29       1       1      30      29
       1       1      30      29       1       1      30      29       1       1
      30      29       1       1      30      29       1       1      30      29
       1       1      30      29       1       1      30      29       1       1
      30      29       1       1      30      29       1       1      30      29
       1       1      30      29       1       1      30      29       1       1
      30      29       1       1      30      29       1       1      30      29
       1       1      30      29       1       1      30      29       1       1
      30      29       1       1      30      29       1       1      30      29
       1       1      30      29       1       1      30      29       1       1
      30      29       1       1      30      29       1       1      30      29
       1       1      30      29       1       1      30      29       1       1
      30      29       1       1      30      29       1       1      30      29
       1       1      30      29       1       1      30      29       1       1
      30      29       1       1      30      29       1       1      30      29
       1       1      30      29       1       1      30      29       1       1
      30      29       1       1      30      29       1       1      30      29
       1       1      30      29       1       1      30      29       1       1
      30      29       1       1      30      29       1       1      30      29
       1       1      30      29       1       1      30      29       1       1
      30      29       1       1      30      29       1       1      30      29
       1       1      30      29       1       1      30      29       1       1
      30      29       1       1      30      29       1       1      30      29
       1       1      30      29       1       1      30      29       1       1
      30      29       1       1      30      29       1       1      30      29
       1       1      30      29       1       1      30      29       1       1
      30      29       1       1      30      29       1       1      30      29
       1       1      30      29       1       1      30      29       1       1
      30      29       1       1      30      29       1       1      30      29
       1       1      30      29       1       1      30      29       1       1
      30      29       1       1      30      29       1       1      30      29
       1       1      30      29       1       1      30      29       1       1
      30      29       1       1      30      29       1       1      30      29
       1       1      30      29       1       1      30      29       1       1
      30      29       1       1      30      29       1       1      30      29
       1       1      30      29       1       1      30      29       1       1
      30      29       1       1      30      29       1       1      30      29
       1       1      30      29       1       1      30      29       1       1
      30      29       1       1      30      29       1       1      30      29
       1       1      30      29       1       1      30      29       1       1
      30      29       1       1      30      29       1       1      30      29
       1       1      30      29       1       1      30      29       1       1
      30      29       1       1      30      29       1       1      30      29
       1       1      30      29       1       1      30      29       1       1
      30      29       1       1      30      29       1       1      30      29
       1       1      30      29       1       1      30      29       1       1
      30      29       1       1      30      29       1       1      30      29
       1       1      30      29       1       1      30      29       1       1
      30      29       1       1      30      29       1       1      30      29
       1       1      30      29       1       1      30      29       1       1
      30      29       1       1      30      29       1       1      30      29
       1       1      30      29       1       1      30      29       1       1
      30      29       1       1      30      29       1       1      30      29
       1       1      30      29       1       1      30      29       1       1
      30      29       1       1      30      29       1       1      30      29
       1       1      30      29       1       1      30      29       1       1
      30      29       1       1      30      29       1       1      30      29
       1       1      30      29       1       1      30      29       1       1
      30      29       1       1      30      29       1       1      30      29
       1       1      30      29       1       1      30      29       1       1
      30      29       1       1      30      29       1       1      30      29
       1       1      30      29       1       1      30      29       1       1
      30      29       1       1      30      29       1       1      30      29
       1       1      30      29       1       1      30      29       1       1
      30      29       1       1      30      29       1       1      30      29
       1       1      30      29       1       1      30      29       1       1
      30      29       1       1      30      29       1       1      30      29
       1       1      30      29       1       1      30      29       1       1
      30      29       1       1      30      29       1       1      30      29
       1       1      30      29       1       1      30      29       1       1
      30      29       1       1      30      29       1       1      30      29
       1       1      30      29       1       1      30      29       1       1
      30      29       1       1      30      29       1       1      30      29
       1       1      30      29       1       1      30      29       1       1
      30      29       1       1      30      29       1       1      30      29
       1       1      30      29       1       1      30      29       1       1
      30      29       1       1      30      29       1       1      30      29
       1       1      30      29       1       1      30      29       1       1
      30      29       1       1      30      29       1       1      30      29
       1       1      30      29       1       1      30      29       1       1
      30      29       1       1      30      29       1       1      30      29
       1       1      30      29       1       1      30      29       1       1
      30      29       1       1      30      29       1       1      30      29
       1       1      30      29       1       1      30      29       1       1
      30      29       1       1      30      29       1       1      30      29
       1       1      30      29       1       1      30      29       1       1
      30      29       1       1      30      29       1       1      30      29
       1       1      30      29       1       1      30      29       1       1
      30      29       1       1      30      29       1       1      30      29
       1       1      30      29       1       1      30      29       1       1
      30      29       1       1      30      29       1       1      30      29
       1       1      30      29       1       1      30      29       1       1
      30      29       1       1      30      29       1       1      30      29
       1       1      30      29       1       1      30      29       1       1
      30      29       1       1      30      29       1       1      30      29
       1       1      30      29       1       1      30      29       1       1
      30      29       1       1      30      29       1       1      30      29
       1       1      30      29       1       1      30      29       1       1
      30      29       1       1      30      29       1       1      30      29
       1       1      30      29       1       1      30      29       1       1
      30      29       1       1      30      29       1       1      30      29
       1       1      30      29       1       1      30      29       1       1
      30      29       1       1      30      29       1       1      30      29
       1       1      30      29       1       1      30      29       1       1
      30      29       1       1      30      29       1       1      30      29
       1       1      30      29       1       1      30      29       1       1
      30      29       1       1      30      29       1       1      30      29
       1       1      30      29       1       1      30      29       1       1
      30      29       1       1      30      29       1       1      30      29
       1       1      30      29       1       1      30      29       1       1
      30      29       1       1      30      29       1       1      30      29
       1       1      30      29       1       1      30      29       1       1
      30      29       1       1      30      29       1       1      30      29
       1       1      30      29       1       1      30      29       1       1
      30      29       1       1      30      29       1       1      30      29
       1       1      30      29       1       1      30      29       1       1
      30      29       1       1      30      29       1       1      30      29
       1       1      30      29       1       1      30      29       1       1
      30      29       1       1      30      29       1       1      30      29
       1       1      30      29       1       1      30      29       1       1
      30      29       1       1      30      29       1       1      30      29
       1       1      30      29       1       1      30      29       1       1
      30      29       1       1      30      29       1       1      30      29
       1       1      30      29       1       1      30      29       1       1
      30      29       1       1      30      29       1       1      30      29
       1       1      30      29       1       1      30      29       1       1
      30      29       1       1      30      29       1       1      30      29
       1       1      30      29       1       1      30      29       1       1
      30      29       1       1      30      29       1       1      30      29
       1       1      30      29       1       1      30      29       1       1
      30      29       1       1      30      29       1       1      30      29
       1       1      30      29       1       1      30      29       1       1
      30      29       1       1      30      29       1       1      30      29
       1       1      30      29       1       1      30      29       1       1
      30      29       1       1      30      29       1       1      30      29
       1       1      30      29       1       1      30      29       1       1
      30      29       1       1      30      29       1       1      30      29
       1       1      30      29       1       1      30      29       1       1
      30      29       1       1      30      29       1       1      30      29
       1       1      30      29       1       1      30      29       1       1
      30      29       1       1      30      29       1       1      30      29
       1       1      30      29       1       1      30      29       1       1
      30      29       1       1      30      29       1       1      30      29
       1       1      30      29       1       1      30      29       1       1
      30      29       1       1      30      29       1       1      30      29
       1       1      30      29       1       1      30      29       1       1
      30      29       1       1      30      29       1       1      30      29
       1       1      30      29       1       1      30      29       1       1
      30      29       1       1      30      29       1       1      30      29
       1       1      30      29       1       1      30      29       1       1
      30      29       1       1      30      29       1       1      30      29
       1       1      30      29       1       1      30      29       1       1
      30      29       1       1      30      29       1       1      30      29
       1       1      30      29       1       1      30      29       1       1
      30      29       1       1      30      29       1       1      30      29
       1       1      30      29       1       1      30      29       1       1
      30      29       1       1      30      29       1       1      30      29
       1       1      30      29       1       1      30      29       1       1
      30      29       1       1      30      29       1       1      30      29
       1       1      30      29       1       1      30      29       1       1
      30      29       1       1      30      29       1       1      30      29
       1       1      30      29       1       1      30      29       1       1
      30      29       1       1      30      29       1       1      30      29
       1       1      30      29       1       1      30      29       1       1
      30      29       1       1      30      29       1       1      30      29
       1       1      30      29       1       1      30      29       1       1
      30      29       1       1      30      29       1       1      30      29
       1       1      30      29       1       1      30      29       1       1
      30      29       1       1      30      29       1       1      30      29
       1       1      30      29       1       1      30      29       1       1
      30      29       1       1      30      29       1       1      30      29
       1       1      30      29       1       1      30      29       1       1
      30      29       1       1      30      29       1       1      30      29
       1       1      30      29       1       1      30      29       1       1
      30      29       1       1      30      29       1       1      30      29
       1       1      30      29       1       1      30      29       1       1
      30      29       1       1      30      29       1       1      30      29
       1       1      30      29       1       1      30      29       1       1
      30      29       1       1      30      29       1       1      30      29
       1       1      30      29       1       1      30      29       1       1
      30      29       1       1      30      29       1       1      30      29
       1       1      30      29       1       1      30      29       1       1
      30      29       1       1      30      29       1       1      30      29
       1       1      30      29       1       1      30      29       1       1
      30      29       1       1      30      29       1       1      30      29
       1       1      30      29       1       1      30      29       1       1
      30      29       1       1      30      29       1       1      30      29
       1       1      30      29       1       1      30      29       1       1
      30      29       1       1      30      29       1       1      30      29
       1       1      30      29       1       1      30      29       1       1
      30      29       1       1      30      29       1       1      30      29
       1       1      30      29       1       1      30      29       1       1
      30      29       1       1      30      29       1       1      30      29
       1       1      30      29       1       1      30      29       1       1
      30      29       1       1      30      29       1       1      30      29
       1       1      30      29       1       1      30      29       1       1
      30      29       1       1      30      29       1       1      30      29
       1       1      30      29       1       1      30      29       1       1
      30      29       1       1      30      29       1       1      30      29
       1       1      30      29       1       1      30      29       1       1
      30      29       1       1      30      29       1       1      30      29
       1       1      30      29       1       1      30      29       1       1
      30      29       1       1      30      29       1       1      30      29
       1       1      30      29       1       1      30      29       1       1
      30      29       1       1      30      29       1       1      30      29
       1       1      30      29       1       1      30      29       1       1
      30      29       1       1      30      29       1       1      30      29
       1       1      30      29       1       1      30      29       1       1
      30      29       1       1      30      29       1       1      30      29
       1       1      30      29       1       1      30      29       1       1
      30      29       1       1      30      29       1       1      30      29
       1       1      30      29       1       1      30      29       1       1
      30      29       1       1      30      29       1       1      30      29
       1       1      30      29       1       1      30      29       1       1
      30      29       1       1      30      29       1       1      30      29
       1       1      30      29       1       1      30      29       1       1
      30      29       1       1      30      29       1       1      30      29
       1       1      30      29       1       1      30      29       1       1
      30      29       1       1      30      29       1       1      30      29
       1       1      30      29       1       1      30      29       1       1
      30      29       1       1      30      29       1       1      30      29
       1       1      30      29       1       1      30      29       1       1
      30      29       1       1      30      29       1       1      30      29
       1       1      30      29       1       1      30      29       1       1
      30      29       1       1      30      29       1       1      30      29
       1       1      30      29       1       1      30      29       1       1
      30      29       1       1      30      29       1       1      30      29
       1       1      30      29       1       1      30      29       1       1
      30      29       1       1      30      29       1       1      30      29
       1       1      30      29       1       1      30      29       1       1
      30      29       1       1      30      29       1       1      30      29
       1       1      30      29       1       1      30      29       1       1
      30      29       1       1      30      29       1       1      30      29
       1       1      30      29       1       1      30      29       1       1
      30      29       1       1      30      29       1       1      30      29
       1       1      30      29       1       1      30      29       1       1
      30      29       1       1      30      29       1       1      30      29
       1       1      30      29       1       1      30      29       1       1
      30      29       1       1      30      29       1       1      30      29
       1       1      30      29       1       1      30      29       1       1
      30      29       1       1      30      29       1       1      30      29
       1       1      30      29       1       1      30      29       1       1
      30      29       1       1      30      29       1       1      30      29
       1       1      30      29       1       1      30      29       1       1
      30      29       1       1      30      29       1       1      30      29
       1       1      30      29       1       1      30      29       1       1
      30      29       1       1      30      29       1       1      30      29
       1       1      30      29       1       1      30      29       1       1
      30      29       1       1      30      29       1       1      30      29
       1       1      30      29       1       1      30      29       1       1
      30      29       1       1      30      29       1       1      30      29
       1       1      30      29       1       1      30      29       1       1
      30      29       1       1      30      29       1       1      30      29
       1       1      30      29       1       1      30      29       1       1
      30      29       1       1      30      29       1       1      30      29
       1       1      30      29       1       1      30      29       1       1
      30      29       1       1      30      29       1       1      30      29
       1       1      30      29       1       1      30      29       1       1
      30      29       1       1      30      29       1       1      30      29
       1       1      30      29       1       1      30      29       1       1
      30      29       1       1      30      29       1       1      30      29
       1       1      30      29       1       1      30      29       1       1
      30      29       1       1      30      29       1       1      30      29
       1       1      30      29       1       1      30      29       1       1
      30      29       1       1      30      29       1       1      30      29
       1       1      30      29       1       1      30      29       1       1
      30      29       1       1      30      29       1       1      30      29
       1       1      30      29       1       1      30      29       1       1
      30      29       1       1      30      29       1       1      30      29
       1       1      30      29       1       1      30      29       1       1
      30      29       1       1      30      29       1       1      30      29
       1       1      30      29       1       1      30      29       1       1
      30      29       1       1      30      29       1       1      30      29
       1       1      30      29       1       1      30      29       1       1
      30      29       1       1      30      29       1       1      30      29
       1       1      30      29       1       1      30      29       1       1
      30      29       1       1      30      29       1       1      30      29
       1       1      30      29       1       1      30      29       1       1
      30      29       1       1      30      29       1       1      30      29
       1       1      30      29       1       1      30      29       1       1
      30      29       1       1      30      29       1       1      30      29
       1       1      30      29       1       1      30      29       1       1
      30      29       1       1      30      29       1       1      30      29
       1       1      30      29       1       1      30      29       1       1
      30      29       1       1      30      29       1       1      30      29
       1       1      30      29       1       1      30      29       1       1
      30      29       1       1      30      29       1       1      30      29
       1       1      30      29       1       1      30      29       1       1
      30      29       1       1      30      29       1       1      30      29
       1       1      30      29       1       1      30      29       1       1
      30      29       1       1      30      29       1       1      30      29
       1       1      30      29       1       1      30      29       1       1
      30      29       1       1      30      29       1       1      30      29
       1       1      30      29       1       1      30      29       1       1
      30      29       1       1      30      29       1       1      30      29
       1       1      30      29       1       1      30      29       1       1
      30      29       1       1      30      29       1       1      30      29
       1       1      30      29       1       1      30      29       1       1
      30      29       1       1      30      29       1       1      30      29
       1       1      30      29       1       1      30      29       1       1
      30      29       1       1      30      29       1       1      30      29
       1       1      30      29       1       1      30      29       1       1
      30      29       1       1      30      29       1       1      30      29
       1       1      30      29       1       1      30      29       1       1
      30      29       1       1      30      29       1       1      30      29
       1       1      30      29       1       1      30      29       1       1
      30      29       1       1      30      29       1       1      30      29
       1       1      30      29       1       1      30      29       1       1
      30      29       1       1      30      29       1       1      30      29
       1       1      30      29       1       1      30      29       1       1
      30      29       1       1      30      29       1       1      30      29
       1       1      30      29       1       1      30      29       1       1
      30      29       1       1      30      29       1       1      30      29
       1       1      30      29       1       1      30      29       1       1
      30      29       1       1      30      29       1       1      30      29
       1       1      30      29       1       1      30      29       1       1
      30      29       1       1      30      29       1       1      30      29
       1       1      30      29       1       1      30      29       1       1
      30      29       1       1      30      29       1       1      30      29
       1       1      30      29       1       1      30      29       1       1
      30      29       1       1      30      29       1       1      30      29
       1       1      30      29       1       1      30      29       1       1
      30      29       1       1      30      29       1       1      30      29
       1       1      30      29       1       1      30      29       1       1
      30      29       1       1      30      29       1       1      30      29
       1       1      30      29       1       1      30      29       1       1
      30      29       1       1      30      29       1       1      30      29
       1       1      30      29       1       1      30      29       1       1
      30      29       1       1      30      29       1       1      30      29
       1       1      30      29       1       1      30      29       1       1
      30      29       1       1      30      29       1       1      30      29
       1       1      30      29       1       1      30      29       1       1
      30      29       1       1      30      29       1       1      30      29
       1       1      30      29       1       1      30      29       1       1
      30      29       1       1      30      29       1       1      30      29
       1       1      30      29       1       1      30      29       1       1
      30      29       1       1      30      29       1       1      30      29
       1       1      30      29       1       1      30      29       1       1
      30      29       1       1      30      29       1       1      30      29
       1       1      30      29       1       1      30      29       1       1
      30      29       1       1      30      29       1       1      30      29
       1       1      30      29       1       1      30      29       1       1
      30      29       1       1      30      29       1       1      30      29
       1       1      30      29       1       1      30      29       1       1
      30      29       1       1      30      29       1       1      30      29
       1       1      30      29       1       1      30      29       1       1
      30      29       1       1      30      29       1       1      30      29
       1       1      30      29       1       1      30      29       1       1
      30      29       1       1      30      29       1       1      30      29
       1       1      30      29       1       1      30      29       1       1
      30      29       1       1      30      29       1       1      30      29
       1       1      30      29       1       1      30      29       1       1
      30      29       1       1      30      29       1       1      30      29
       1       1      30      29       1       1      30      29       1       1
      30      29       1       1      30      29       1       1      30      29
       1       1      30      29       1       1      30      29       1       1
      30      29       1       1      30      29       1       1      30      29
       1       1      30      29       1       1      30      29       1       1
      30      29       1       1      30      29       1       1      30      29
       1       1      30      29       1       1      30      29       1       1
      30      29       1       1      30      29       1       1      30      29
       1       1      30      29       1       1      30      29       1       1
      30      29       1       1      30      29       1       1      30      29
       1       1      30      29       1       1      30      29       1       1
      30      29       1       1      30      29       1       1      30      29
       1       1      30      29       1       1      30      29       1       1
      30      29       1       1      30      29       1       1      30      29
       1       1      30      29       1       1      30      29       1       1
      30      29       1       1      30      29       1       1      30      29
       1       1      30      29       1       1      30      29       1       1
      30      29       1       1      30      29       1       1      30      29
       1       1      30      29       1       1      30      29       1       1
      30      29       1       1      30      29       1       1      30      29
       1       1      30      29       1       1      30      29       1       1
      30      29       1       1      30      29       1       1      30      29
       1       1      30      29       1       1      30      29       1       1
      30      29       1       1      30      29       1       1      30      29
       1       1      30      29       1       1      30      29       1       1
      30      29       1       1      30      29       1       1      30      29
       1       1      30      29       1       1      30      29       1       1
      30      29       1       1      30      29       1       1      30      29
       1       1      30      29       1       1      30      29       1       1
      30      29       1       1      30      29       1       1      30      29
       1       1      30      29       1       1      30      29       1       1
      30      29       1       1      30      29       1       1      30      29
       1       1      30      29       1       1      30      29       1       1
      30      29       1       1      30      29       1       1      30      29
       1       1      30      29       1       1      30      29       1       1
      30      29       1       1      30      29       1       1      30      29
       1       1      30      29       1       1      30      29       1       1
      30      29       1       1      30      29       1       1      30      29
       1       1      30      29       1       1      30      29       1       1
      30      29       1       1      30      29       1       1      30      29
       1       1      30      29       1       1      30      29       1       1
      30      29       1       1      30      29       1       1      30      29
       1       1      30      29       1       1      30      29       1       1
      30      29       1       1      30      29       1       1      30      29
       1       1      30      29       1       1      30      29       1       1
      30      29       1       1      30      29       1       1      30      29
       1       1      30      29       1       1      30      29       1       1
      30      29       1       1      30      29       1       1      30      29
       1       1      30      29       1       1      30      29       1       1
      30      29       1       1      30      29       1       1      30      29
       1       1      30      29       1       1      30      29       1       1
      30      29       1       1      30      29       1       1      30      29
       1       1      30      29       1       1      30      29       1       1
      30      29       1       1      30      29       1       1      30      29
       1       1      30      29       1       1      30      29       1       1
      30      29       1       1      30      29       1       1      30      29
       1       1      30      29       1       1      30      29       1       1
      30      29       1       1      30      29       1       1      30      29
       1       1      30      29       1       1      30      29       1       1
      30      29       1       1      30      29       1       1      30      29
       1       1      30      29       1       1      30      29       1       1
      30      29       1       1      30      29       1       1      30      29
       1       1      30      29       1       1      30      29       1       1
      30      29       1       1      30      29       1       1      30      29
       1       1      30      29       1       1      30      29       1       1
      30      29       1       1      30      29       1       1      30      29
       1       1      30      29       1       1      30      29       1       1
      30      29       1       1      30      29       1       1      30      29
       1       1      30      29       1       1      30      29       1       1
      30      29       1       1      30      29       1       1      30      29
       1       1      30      29       1       1      30      29       1       1
      30      29       1       1      30      29       1       1      30      29
       1       1      30      29       1       1      30      29       1       1
      30      29       1       1      30      29       1       1      30      29
       1       1      30      29       1       1      30      29       1       1
      30      29       1       1      30      29       1       1      30      29
       1       1      30      29       1       1      30      29       1       1
      30      29       1       1      30      29       1       1      30      29
       1       1      30      29       1       1      30      29       1       1
      30      29       1       1      30      29       1       1      30      29
       1       1      30      29       1       1      30      29       1       1
      30      29       1       1      30      29       1       1      30      29
       1       1      30      29       1       1      30      29       1       1
      30      29       1       1      30      29       1       1      30      29
       1       1      30      29       1       1      30      29       1       1
      30      29       1       1      30      29       1       1      30      29
       1       1      30      29       1       1      30      29       1       1
      30      29       1       1      30      29       1       1      30      29
       1       1      30      29       1       1      30      29       1       1
      30      29       1       1      30      29       1       1      30      29
       1       1      30      29       1       1      30      29       1       1
      30      29       1       1      30      29       1       1      30      29
       1       1      30      29       1       1      30      29       1       1
      30      29       1       1      30      29       1       1      30      29
       1       1      30      29       1       1      30      29       1       1
      30      29       1       1      30      29       1       1      30      29
       1       1      30      29       1       1      30      29       1       1
      30      29       1       1      30      29       1       1      30      29
       1       1      30      29       1       1      30      29       1       1
      30      29       1       1      30      29       1       1      30      29
       1       1      30      29       1       1      30      29       1       1
      30      29       1       1      30      29       1       1      30      29
       1       1      30      29       1       1      30      29       1       1
      30      29       1       1      30      29       1       1      30      29
       1       1      30      29       1       1      30      29       1       1
      30      29       1       1      30      29       1       1      30      29
       1       1      30      29       1       1      30      29       1       1
      30      29       1       1      30      29       1       1      30      29
       1       1      30      29       1       1      30      29       1       1
      30      29       1       1      30      29       1       1      30      29
       1       1      30      29       1       1      30      29       1       1
      30      29       1       1      30      29       1       1      30      29
       1       1      30      29       1       1      30      29       1       1
      30      29       1       1      30      29       1       1      30      29
       1       1      30      29       1       1      30      29       1       1
      30      29       1       1      30      29       1       1      30      29
       1       1      30      29       1       1      30      29       1       1
      30      29       1       1      30      29       1       1      30      29
       1       1      30      29       1       1      30      29       1       1
      30      29       1       1      30      29       1       1      30      29
       1       1      30      29       1       1      30      29       1       1
      30      29       1       1      30      29       1       1      30      29
       1       1      30      29       1       1      30      29       1       1
      30      29       1       1      30      29       1       1      30      29
       1       1      30      29       1       1      30      29       1       1
      30      29       1       1      30      29       1       1      30      29
       1       1      30      29       1       1      30      29       1       1
      30      29       1       1      30      29       1       1      30      29
       1       1      30      29       1       1      30      29       1       1
      30      29       1       1      30      29       1       1      30      29
       1       1      30      29       1       1      30      29       1       1
      30      29       1       1      30      29       1       1      30      29
       1       1      30      29       1       1      30      29       1       1
      30      29       1       1      30      29       1       1      30      29
       1       1      30      29       1       1      30      29       1       1
      30      29       1       1      30      29       1       1      30      29
       1       1      30      29       1       1      30      29       1       1
      30      29       1       1      30      29       1       1      30      29
       1       1      30      29       1       1      30      29       1       1
      30      29       1       1      30      29       1       1      30      29
       1       1      30      29       1       1      30      29       1       1
      30      29       1       1      30      29       1       1      30      29
       1       1      30      29       1       1      30      29       1       1
      30      29       1       1      30      29       1       1      30      29
       1       1      30      29       1       1      30      29       1       1
      30      29       1       1      30      29       1       1      30      29
       1       1      30      29       1       1      30      29       1       1
      30      29       1       1      30      29       1       1      30      29
       1       1      30      29       1       1      30      29       1       1
      30      29       1       1      30      29       1       1      30      29
       1       1      30      29       1       1      30      29       1       1
      30      29       1       1      30      29       1       1      30      29
       1       1      30      29       1       1      30      29       1       1
      30      29       1       1      30      29       1       1      30      29
       1       1      30      29       1       1      30      29       1       1
      30      29       1       1      30      29       1       1      30      29
       1       1      30      29       1       1      30      29       1       1
      30      29       1       1      30      29       1       1      30      29
       1       1      30      29       1       1      30      29       1       1
      30      29       1       1      30      29       1       1      30      29
       1       1      30      29       1       1      30      29       1       1
      30      29       1       1      30      29       1       1      30      29
       1       1      30      29       1       1      30      29       1       1
      30      29       1       1      30      29       1       1      30      29
       1       1      30      29       1       1      30      29       1       1
      30      29       1       1      30      29       1       1      30      29
       1       1      30      29       1       1      30      29       1       1
      30      29       1       1      30      29       1       1      30      29
       1       1      30      29       1       1      30      29       1       1
      30      29       1       1      30      29       1       1      30      29
       1       1      30      29       1       1      30      29       1       1
      30      29       1       1      30      29       1       1      30      29
       1       1      30      29       1       1      30      29       1       1
      30      29       1       1      30      29       1       1      30      29
       1       1      30      29       1       1      30      29       1       1
      30      29       1       1      30      29       1       1      30      29
       1       1      30      29       1       1      30      29       1       1
      30      29       1       1      30      29       1       1      30      29
       1       1      30      29       1       1      30      29       1       1
      30      29       1       1      30      29       1       1      30      29
       1       1      30      29       1       1      30      29       1       1
      30      29       1       1      30      29       1       1      30      29
       1       1      30      29       1       1      30      29       1       1
      30      29       1       1      30      29       1       1      30      29
       1       1      30      29       1       1      30      29       1       1
      30      29       1       1      30      29       1       1      30      29
       1       1      30      29       1       1      30      29       1       1
      30      29       1       1      30      29       1       1      30      29
       1       1      30      29       1       1      30      29       1       1
      30      29       1       1      30      29       1       1      30      29
       1       1      30      29       1       1      30      29       1       1
      30      29       1       1      30      29       1       1      30      29
       1       1      30      29       1       1      30      29       1       1
      30      29       1       1      30      29       1       1      30      29
       1       1      30      29       1       1      30      29       1       1
      30      29       1       1      30      29       1       1      30      29
       1       1      30      29       1       1      30      29       1       1
      30      29       1       1      30      29       1       1      30      29
       1       1      30      29       1       1      30      29       1       1
      30      29       1       1      30      29       1       1      30      29
       1       1      30      29       1       1      30      29       1       1
      30      29       1       1      30      29       1       1      30      29
       1       1      30      29       1       1      30      29       1       1
      30      29       1       1      30      29       1       1      30      29
       1       1      30      29       1       1      30      29       1       1
      30      29       1       1      30      29       1       1      30      29
       1       1      30      29       1       1      30      29       1       1
      30      29       1       1      30      29       1       1      30      29
       1       1      30      29       1       1      30      29       1       1
      30      29       1       1      30      29       1       1      30      29
       1       1      30      29       1       1      30      29       1       1
      30      29       1       1      30      29       1       1      30      29
       1       1      30      29       1       1      30      29       1       1
      30      29       1       1      30      29       1       1      30      29
       1       1      30      29       1       1      30      29       1       1
      30      29       1       1      30      29       1       1      30      29
       1       1      30      29       1       1      30      29       1       1
      30      29       1       1      30      29       1       1      30      29
       1       1      30      29       1       1      30      29       1       1
      30      29       1       1      30      29       1       1      30      29
       1       1      30      29       1       1      30      29       1       1
      30      29       1       1      30      29       1       1      30      29
       1       1      30      29       1       1      30      29       1       1
      30      29       1       1      30      29       1       1      30      29
       1       1      30      29       1       1      30      29       1       1
      30      29       1       1      30      29       1       1      30      29
       1       1      30      29       1       1      30      29       1       1
      30      29       1       1      30      29       1       1      30      29
       1       1      30      29       1       1      30      29       1       1
      30      29       1       1      30      29       1       1      30      29
       1       1      30      29       1       1      30      29       1       1
      30      29       1       1      30      29       1       1      30      29
       1       1      30      29       1       1      30      29       1       1
      30      29       1       1      30      29       1       1      30      29
       1       1      30      29       1       1      30      29       1       1
      30      29       1       1      30      29       1       1      30      29
       1       1      30      29       1       1      30      29       1       1
      30      29       1       1      30      29       1       1      30      29
       1       1      30      29       1       1      30      29       1       1
      30      29       1       1      30      29       1       1      30      29
       1       1      30      29       1       1      30      29       1       1
      30      29       1       1      30      29       1       1      30      29
       1       1      30      29       1       1      30      29       1       1
      30      29       1       1      30      29       1       1      30      29
       1       1      30      29       1       1      30      29       1       1
      30      29       1       1      30      29       1       1      30      29
       1       1      30      29       1       1      30      29       1       1
      30      29       1       1      30      29       1       1      30      29
       1       1      30      29       1       1      30      29       1       1
      30      29       1       1      30      29       1       1      30      29
       1       1      30      29       1       1      30      29       1       1
      30      29       1       1      30      29       1       1      30      29
       1       1      30      29       1       1      30      29       1       1
      30      29       1       1      30      29       1       1      30      29
       1       1      30      29       1       1      30      29       1       1
      30      29       1       1      30      29       1       1      30      29
       1       1      30      29       1       1      30      29       1       1
      30      29       1       1      30      29       1       1      30      29
       1       1      30      29       1       1      30      29       1       1
      30      29       1       1      30      29       1       1      30      29
       1       1      30      29       1       1      30      29       1       1
      30      29       1       1      30      29       1       1      30      29
       1       1      30      29       1       1      30      29       1       1
      30      29       1       1      30      29       1       1      30      29
       1       1      30      29       1       1      30      29       1       1
      30      29       1       1      30      29       1       1      30      29
       1       1      30      29       1       1      30      29       1       1
      30      29       1       1      30      29       1       1      30      29
       1       1      30      29       1       1      30      29       1       1
      30      29       1       1      30      29       1       1      30      29
       1       1      30      29       1       1      30      29       1       1
      30      29       1       1      30      29       1       1      30      29
       1       1      30      29       1       1      30      29       1       1
      30      29       1       1      30      29       1       1      30      29
       1       1      30      29       1       1      30      29       1       1
      30      29       1       1      30      29       1       1      30      29
       1       1      30      29       1       1      30      29       1       1
      30      29       1       1      30      29       1       1      30      29
       1       1      30      29       1       1      30      29       1       1
      30      29       1       1      30      29       1       1      30      29
       1       1      30      29       1       1      30      29       1       1
      30      29       1       1      30      29       1       1      30      29
       1       1      30      29       1       1      30      29       1       1
      30      29       1       1      30      29       1       1      30      29
       1       1      30      29       1       1      30      29       1       1
      30      29       1       1      30      29       1       1      30      29
       1       1      30      29       1       1      30      29       1       1
      30      29       1       1      30      29       1       1      30      29
       1       1      30      29       1       1      30      29       1       1
      30      29       1       1      30      29       1       1      30      29
       1       1      30      29       1       1      30      29       1       1
      30      29       1       1      30      29       1       1      30      29
       1       1      30      29       1       1      30      29       1       1
      30      29       1       1      30      29       1       1      30      29
       1       1      30      29       1       1      30      29       1       1
      30      29       1       1      30      29       1       1      30      29
       1       1      30      29       1       1      30      29       1       1
      30      29       1       1      30      29       1       1      30      29
       1       1      30      29       1       1      30      29       1       1
      30      29       1       1      30      29       1       1      30      29
       1       1      30      29       1       1      30      29       1       1
      30      29       1       1      30      29       1       1      30      29
       1       1      30      29       1       1      30      29       1       1
      30      29       1       1      30      29       1       1      30      29
       1       1      30      29       1       1      30      29       1       1
      30      29       1       1      30      29       1       1      30      29
       1       1      30      29       1       1      30      29       1       1
      30      29       1       1      30      29       1       1      30      29
       1       1      30      29       1       1      30      29       1       1
      30      29       1       1      30      29       1       1      30      29
       1       1      30      29       1       1      30      29       1       1
      30      29       1       1      30      29       1       1      30      29
       1       1      30      29       1       1      30      29       1       1
      30      29       1       1      30      29       1       1      30      29
       1       1      30      29       1       1      30      29       1       1
      30      29       1       1      30      29       1       1      30      29
       1       1      30      29       1       1      30      29       1       1
      30      29       1       1      30      29       1       1      30      29
       1       1      30      29       1       1      30      29       1       1
      30      29       1       1      30      29       1       1      30      29
       1       1      30      29       1       1      30      29       1       1
      30      29       1       1      30      29       1       1      30      29
       1       1      30      29       1       1      30      29       1       1
      30      29       1       1      30      29       1       1      30      29
       1       1      30      29       1       1      30      29       1       1
      30      29       1       1      30      29       1       1      30      29
       1       1      30      29       1       1      30      29       1       1
      30      29       1       1      30      29       1       1      30      29
       1       1      30      29       1       1      30      29       1       1
      30      29       1       1      30      29       1       1      30      29
       1       1      30      29       1       1      30      29       1       1
      30      29       1       1      30      29       1       1      30      29
       1       1      30      29       1       1      30      29       1       1
      30      29       1       1      30      29       1       1      30      29
       1       1      30      29       1       1      30      29       1       1
      30      29       1       1      30      29       1       1      30      29
       1       1      30      29       1       1      30      29       1       1
      30      29       1       1      30      29       1       1      30      29
       1       1      30      29       1       1      30      29       1       1
      30      29       1       1      30      29       1       1      30      29
       1       1      30      29       1       1      30      29       1       1
      30      29       1       1      30      29       1       1      30      29
       1       1      30      29       1       1      30      29       1       1
      30      29       1       1      30      29       1       1      30      29
       1       1      30      29       1       1      30      29       1       1
      30      29       1       1      30      29       1       1      30      29
       1       1      30      29       1       1      30      29       1       1
      30      29       1       1      30      29       1       1      30      29
       1       1      30      29       1       1      30      29       1       1
      30      29       1       1      30      29       1       1      30      29
       1       1      30      29       1       1      30      29       1       1
      30      29       1       1      30      29       1       1      30      29
       1       1      30      29       1       1      30      29       1       1
      30      29       1       1      30      29       1       1      30      29
       1       1      30      29       1       1      30      29       1       1
      30      29       1       1      30      29       1       1      30      29
       1       1      30      29       1       1      30      29       1       1
      30      29       1       1      30      29       1       1      30      29
       1       1      30      29       1       1      30      29       1       1
      30      29       1       1      30      29       1       1      30      29
       1       1      30      29       1       1      30      29       1       1
      30      29       1       1      30      29       1       1      30      29
       1       1      30      29       1       1      30      29       1       1
      30      29       1       1      30      29       1       1      30      29
       1       1      30      29       1       1      30      29       1       1
      30      29       1       1      30      29       1       1      30      29
       1       1      30      29       1       1      30      29       1       1
      30      29       1       1      30      29       1       1      30      29
       1       1      30      29       1       1      30      29       1       1
      30      29       1       1      30      29       1       1      30      29
       1       1      30      29       1       1      30      29       1       1
      30      29       1       1      30      29       1       1      30      29
       1       1      30      29       1       1      30      29       1       1
      30      29       1       1      30      29       1       1      30      29
       1       1      30      29       1       1      30      29       1       1
      30      29       1       1      30      29       1       1      30      29
       1       1      30      29       1       1      30      29       1       1
      30      29       1       1      30      29       1       1      30      29
       1       1      30      29       1       1      30      29       1       1
      30      29       1       1      30      29       1       1      30      29
       1       1      30      29       1       1      30      29       1       1
      30      29       1       1      30      29       1       1      30      29
       1       1      30      29       1       1      30      29       1       1
      30      29       1       1      30      29       1       1      30      29
       1       1      30      29       1       1      30      29       1       1
      30      29       1       1      30      29       1       1      30      29
       1       1      30      29       1       1      30      29       1       1
      30      29       1       1      30      29       1       1      30      29
       1       1      30      29       1       1      30      29       1       1
      30      29       1       1      30      29       1       1      30      29
       1       1      30      29       1       1      30      29       1       1
      30      29       1       1      30      29       1       1      30      29
       1       1      30      29       1       1      30      29       1       1
      30      29       1       1      30      29       1       1      30      29
       1       1      30      29       1       1      30      29       1       1
      30      29       1       1      30      29       1       1      30      29
       1       1      30      29       1       1      30      29       1       1
      30      29       1       1      30      29       1       1      30      29
       1       1      30      29       1       1      30      29       1       1
      30      29       1       1      30      29       1       1      30      29
       1       1      30      29       1       1      30      29       1       1
      30      29       1       1      30      29       1       1      30      29
       1       1      30      29       1       1      30      29       1       1
      30      29       1       1      30      29       1       1      30      29
       1       1      30      29       1       1      30      29       1       1
      30      29       1       1      30      29       1       1      30      29
       1       1      30      29       1       1      30      29       1       1
      30      29       1       1      30      29       1       1      30      29
       1       1      30      29       1       1      30      29       1       1
      30      29       1       1      30      29       1       1      30      29
       1       1      30      29       1       1      30      29       1       1
      30      29       1       1      30      29       1       1      30      29
       1       1      30      29       1       1      30      29       1       1
      30      29       1       1      30      29       1       1      30      29
       1       1      30      29       1       1      30      29       1       1
      30      29       1       1      30      29       1       1      30      29
       1       1      30      29       1       1      30      29       1       1
      30      29       1       1      30      29       1       1      30      29
       1       1      30      29       1       1      30      29       1       1
      30      29       1       1      30      29       1       1      30      29
       1       1      30      29       1       1      30      29       1       1
      30      29       1       1      30      29       1       1      30      29
       1       1      30      29       1       1      30      29       1       1
      30      29       1       1      30      29       1       1      30      29
       1       1      30      29       1       1      30      29       1       1
      30      29       1       1      30      29       1       1      30      29
       1       1      30      29       1       1      30      29       1       1
      30      29       1       1      30      29       1       1      30      29
       1       1      30      29       1       1      30      29       1       1
      30      29       1       1      30      29       1       1      30      29
       1       1      30      29       1       1      30      29       1       1
      30      29       1       1      30      29       1       1      30      29
       1       1      30      29       1       1      30      29       1       1
      30      29       1       1      30      29       1       1      30      29
       1       1      30      29       1       1      30      29       1       1
      30      29       1       1      30      29       1       1      30      29
       1       1      30      29       1       1      30      29       1       1
      30      29       1       1      30      29       1       1      30      29
       1       1      30      29       1       1      30      29       1       1
      30      29       1       1      30      29       1       1      30      29
       1       1      30      29       1       1      30      29       1       1
      30      29       1       1      30      29       1       1      30      29
       1       1      30      29       1       1      30      29       1       1
      30      29       1       1      30      29       1       1      30      29
       1       1      30      29       1       1      30      29       1       1
      30      29       1       1      30      29       1       1      30      29
       1       1      30      29       1       1      30      29       1       1
      30      29       1       1      30      29       1       1      30      29
       1       1      30      29       1       1      30      29       1       1
      30      29       1       1      30      29       1       1      30      29
       1       1      30      29       1       1      30      29       1       1
      30      29       1       1      30      29       1       1      30      29
       1       1      30      29       1       1      30      29       1       1
      30      29       1       1      30      29       1       1      30      29
       1       1      30      29       1       1      30      29       1       1
      30      29       1       1      30      29       1       1      30      29
       1       1      30      29       1       1      30      29       1       1
      30      29       1       1      30      29       1       1      30      29
       1       1      30      29       1       1      30      29       1       1
      30      29       1       1      30      29       1       1      30      29
       1       1      30      29       1       1      30      29       1       1
      30      29       1       1      30      29       1       1      30      29
       1       1      30      29       1       1      30      29       1       1
      30      29       1       1      30      29       1       1      30      29
       1       1      30      29       1       1      30      29       1       1
      30      29       1       1      30      29       1       1      30      29
       1       1      30      29       1       1      30      29       1       1
      30      29       1       1      30      29       1       1      30      29
       1       1      30      29       1       1      30      29       1       1
      30      29       1       1      30      29       1       1      30      29
       1       1      30      29       1       1      30      29       1       1
      30      29       1       1      30      29       1       1      30      29
       1       1      30      29       1       1      30      29       1       1
      30      29       1       1      30      29       1       1      30      29
       1       1      30      29       1       1      30      29       1       1
      30      29       1       1      30      29       1       1      30      29
       1       1      30      29       1       1      30      29       1       1
      30      29       1       1      30      29       1       1      30      29
       1       1      30      29       1       1      30      29       1       1
      30      29       1       1      30      29       1       1      30      29
       1       1      30      29       1       1      30      29       1       1
      30      29       1       1      30      29       1       1      30      29
       1       1      30      29       1       1      30      29       1       1
      30      29       1       1      30      29       1       1      30      29
       1       1      30      29       1       1      30      29       1       1
      30      29       1       1      30      29       1       1      30      29
       1       1      30      29       1       1      30      29       1       1
      30      29       1       1      30      29       1       1      30      29
       1       1      30      29       1       1      30      29       1       1
      30      29       1       1      30      29       1       1      30      29
       1       1      30      29       1       1      30      29       1       1
      30      29       1       1      30      29       1       1      30      29
       1       1      30      29       1       1      30      29       1       1
      30      29       1       1      30      29       1       1      30      29
       1       1      30      29       1       1      30      29       1       1
      30      29       1       1      30      29       1       1      30      29
       1       1      30      29       1       1      30      29       1       1
      30      29       1       1      30      29       1       1      30      29
       1       1      30      29       1       1      30      29       1       1
      30      29       1       1      30      29       1       1      30      29
       1       1      30      29       1       1      30      29       1       1
      30      29       1       1      30      29       1       1      30      29
       1       1      30      29       1       1      30      29       1       1
      30      29       1       1      30      29       1       1      30      29
       1       1      30      29       1       1      30      29       1       1
      30      29       1       1      30      29       1       1      30      29
       1       1      30      29       1       1      30      29       1       1
      30      29       1       1      30      29       1       1      30      29
       1       1      30      29       1       1      30      29       1       1
      30      29       1       1      30      29       1       1      30      29
       1       1      30      29       1       1      30      29       1       1
      30      29       1       1      30      29       1       1      30      29
       1       1      30      29       1       1      30      29       1       1
      30      29       1       1      30      29       1       1      30      29
       1       1      30      29       1       1      30      29       1       1
      30      29       1       1      30      29       1       1      30      29
       1       1      30      29       1       1      30      29       1       1
      30      29       1       1      30      29       1       1      30      29
       1       1      30      29       1       1      30      29       1       1
      30      29       1       1      30      29       1       1      30      29
       1       1      30      29       1       1      30      29       1       1
      30      29       1       1      30      29       1       1      30      29
       1       1      30      29       1       1      30      29       1       1
      30      29       1       1      30      29       1       1      30      29
       1       1      30      29       1       1      30      29       1       1
      30      29       1       1      30      29       1       1      30      29
       1       1      30      29       1       1      30      29       1       1
      30      29       1       1      30      29       1       1      30      29
       1       1      30      29       1       1      30      29       1       1
      30      29       1       1      30      29       1       1      30      29
       1       1      30      29       1       1      30      29       1       1
      30      29       1       1      30      29       1       1      30      29
       1       1      30      29       1       1      30      29       1       1
      30      29       1       1      30      29       1       1      30      29
       1       1      30      29       1       1      30      29       1       1
      30      29       1       1      30      29       1       1      30      29
       1       1      30      29       1       1      30      29       1       1
      30      29       1       1      30      29       1       1      30      29
       1       1      30      29       1       1      30      29       1       1
      30      29       1       1      30      29       1       1      30      29
       1       1      30      29       1       1      30      29       1       1
      30      29       1       1      30      29       1       1      30      29
       1       1      30      29       1       1      30      29       1       1
      30      29       1       1      30      29       1       1      30      29
       1       1      30      29       1       1      30      29       1       1
      30      29       1       1      30      29       1       1      30      29
       1       1      30      29       1       1      30      29       1       1
      30      29       1       1      30      29       1       1      30      29
       1       1      30      29       1       1      30      29       1       1
      30      29       1       1      30      29       1       1      30      29
       1       1      30      29       1       1      30      29       1       1
      30      29       1       1      30      29       1       1      30      29
       1       1      30      29       1       1      30      29       1       1
      30      29       1       1      30      29       1       1      30      29
       1       1      30      29       1       1      30      29       1       1
      30      29       1       1      30      29       1       1      30      29
       1       1      30      29       1       1      30      29       1       1
      30      29       1       1      30      29       1       1      30      29
       1       1      30      29       1       1      30      29       1       1
      30      29       1       1      30      29       1       1      30      29
       1       1      30      29       1       1      30      29       1       1
      30      29       1       1      30      29       1       1      30      29
       1       1      30      29       1       1      30      29       1       1
      30      29       1       1      30      29       1       1      30      29
       1       1      30      29       1       1      30      29       1       1
      30      29       1       1      30      29       1       1      30      29
       1       1      30      29       1       1      30      29       1       1
      30      29       1       1      30      29       1       1      30      29
       1       1      30      29       1       1      30      29       1       1
      30      29       1       1      30      29       1       1      30      29
       1       1      30      29       1       1      30      29       1       1
      30      29       1       1      30      29       1       1      30      29
       1       1      30      29       1       1      30      29       1       1
      30      29       1       1      30      29       1       1      30      29
       1       1      30      29       1       1      30      29       1       1
      30      29       1       1      30      29       1       1      30      29
       1       1      30      29       1       1      30      29       1       1
      30      29       1       1      30      29       1       1      30      29
       1       1      30      29       1       1      30      29       1       1
      30      29       1       1      30      29       1       1      30      29
       1       1      30      29       1       1      30      29       1       1
      30      29       1       1      30      29       1       1      30      29
       1       1      30      29       1       1      30      29       1       1
      30      29       1       1      30      29       1       1      30      29
       1       1      30      29       1       1      30      29       1       1
      30      29       1       1      30      29       1       1      30      29
       1       1      30      29       1       1      30      29       1       1
      30      29       1       1      30      29       1       1      30      29
       1       1      30      29       1       1      30      29       1       1
      30      29       1       1      30      29       1       1      30      29
       1       1      30      29       1       1      30      29       1       1
      30      29       1       1      30      29       1       1      30      29
       1       1      30      29       1       1      30      29       1       1
      30      29       1       1      30      29       1       1      30      29
       1       1      30      29       1       1      30      29       1       1
      30      29       1       1      30      29       1       1      30      29
       1       1      30      29       1       1      30      29       1       1
      30      29       1       1      30      29       1       1      30      29
       1       1      30      29       1       1      30      29       1       1
      30      29       1       1      30      29       1       1      30      29
       1       1      30      29       1       1      30      29       1       1
      30      29       1       1      30      29       1       1      30      29
       1       1      30      29       1       1      30      29       1       1
      30      29       1       1      30      29       1       1      30      29
       1       1      30      29       1       1      30      29       1       1
      30      29       1       1      30      29       1       1      30      29
       1       1      30      29       1       1      30      29       1       1
      30      29       1       1      30      29       1       1      30      29
       1       1      30      29       1       1      30      29       1       1
      30      29       1       1      30      29       1       1      30      29
       1       1      30      29       1       1      30      29       1       1
      30      29       1       1      30      29       1       1      30      29
       1       1      30      29       1       1      30      29       1       1
      30      29       1       1      30      29       1       1      30      29
       1       1      30      29       1       1      30      29       1       1
      30      29       1       1      30      29       1       1      30      29
       1       1      30      29       1       1      30      29       1       1
      30      29       1       1      30      29       1       1      30      29
       1       1      30      29       1       1      30      29       1       1
      30      29       1       1      30      29       1       1      30      29
       1       1      30      29       1       1      30      29       1       1
      30      29       1       1      30      29       1       1      30      29
       1       1      30      29       1       1      30      29       1       1
      30      29       1       1      30      29       1       1      30      29
       1       1      30      29       1       1      30      29       1       1
      30      29       1       1      30      29       1       1      30      29
       1       1      30      29       1       1      30      29       1       1
      30      29       1       1      30      29       1       1      30      29
       1       1      30      29       1       1      30      29       1       1
      30      29       1       1      30      29       1       1      30      29
       1       1      30      29       1       1      30      29       1       1
      30      29       1       1      30      29       1       1      30      29
       1       1      30      29       1       1      30      29       1       1
      30      29       1       1      30      29       1       1      30      29
       1       1      30      29       1       1      30      29       1       1
      30      29       1       1      30      29       1       1      30      29
       1       1      30      29       1       1      30      29       1       1
      30      29       1       1      30      29       1       1      30      29
       1       1      30      29       1       1      30      29       1       1
      30      29       1       1      30      29       1       1      30      29
       1       1      30      29       1       1      30      29       1       1
      30      29       1       1      30      29       1       1      30      29
       1       1      30      29       1       1      30      29       1       1
      30      29       1       1      30      29       1       1      30      29
       1       1      30      29       1       1      30      29       1       1
      30      29       1       1      30      29       1       1      30      29
       1       1      30      29       1       1      30      29       1       1
      30      29       1       1      30      29       1       1      30      29
       1       1      30      29       1       1      30      29       1       1
      30      29       1       1      30      29       1       1      30      29
       1       1      30      29       1       1      30      29       1       1
      30      29       1       1      30      29       1       1      30      29
       1       1      30      29       1       1      30      29       1       1
      30      29       1       1      30      29       1       1      30      29
       1       1      30      29       1       1      30      29       1       1
      30      29       1       1      30      29       1       1      30      29
       1       1      30      29       1       1      30      29       1       1
      30      29       1       1      30      29       1       1      30      29
       1       1      30      29       1       1      30      29       1       1
      30      29       1       1      30      29       1       1      30      29
       1       1      30      29       1       1      30      29       1       1
      30      29       1       1      30      29       1       1      30      29
       1       1      30      29       1       1      30      29       1       1
      30      29       1       1      30      29       1       1      30      29
       1       1      30      29       1       1      30      29       1       1
      30      29       1       1      30      29       1       1      30      29
       1       1      30      29       1       1      30      29       1       1
      30      29       1       1      30      29       1       1      30      29
       1       1      30      29       1       1      30      29       1       1
      30      29       1       1      30      29       1       1      30      29
       1       1      30      29       1       1      30      29       1       1
      30      29       1       1      30      29       1       1      30      29
       1       1      30      29       1       1      30      29       1       1
      30      29       1       1      30      29       1       1      30      29
       1       1      30      29       1       1      30      29       1       1
      30      29       1       1      30      29       1       1      30      29
       1       1      30      29       1       1      30      29       1       1
      30      29       1       1      30      29       1       1      30      29
       1       1      30      29       1       1      30      29       1       1
      30      29       1       1      30      29       1       1      30      29
       1       1      30      29       1       1      30      29       1       1
      30      29       1       1      30      29       1       1      30      29
       1       1      30      29       1       1      30      29       1       1
      30      29       1       1      30      29       1       1      30      29
       1       1      30      29       1       1      30      29       1       1
      30      29       1       1      30      29       1       1      30      29
       1       1      30      29       1       1      30      29       1       1
      30      29       1       1      30      29       1       1      30      29
       1       1      30      29       1       1      30      29       1       1
      30      29       1       1      30      29       1       1      30      29
       1       1      30      29       1       1      30      29       1       1
      30      29       1       1      30      29       1       1      30      29
       1       1      30      29       1       1      30      29       1       1
      30      29       1       1      30      29       1       1      30      29
       1       1      30      29       1       1      30      29       1       1
      30      29       1       1      30      29       1       1      30      29
       1       1      30      29       1       1      30      29       1       1
      30      29       1       1      30      29       1       1      30      29
       1       1      30      29       1       1      30      29       1       1
      30      29       1       1      30      29       1       1      30      29
       1       1      30      29       1       1      30      29       1       1
      30      29       1       1      30      29       1       1      30      29
       1       1      30      29       1       1      30      29       1       1
      30      29       1       1      30      29       1       1      30      29
       1       1      30      29       1       1      30      29       1       1
      30      29       1       1      30      29       1       1      30      29
       1       1      30      29       1       1      30      29       1       1
      30      29       1       1      30      29       1       1      30      29
       1       1      30      29       1       1      30      29       1       1
      30      29       1       1      30      29       1       1      30      29
       1       1      30      29       1       1      30      29       1       1
      30      29       1       1      30      29       1       1      30      29
       1       1      30      29       1       1      30      29       1       1
      30      29       1       1      30      29       1       1      30      29
       1       1      30      29       1       1      30      29       1       1
      30      29       1       1      30      29       1       1      30      29
       1       1      30      29       1       1      30      29       1       1
      30      29       1       1      30      29       1       1      30      29
       1       1      30      29       1       1      30      29       1       1
      30      29       1       1      30      29       1       1      30      29
       1       1      30      29       1       1      30      29       1       1
      30      29       1       1      30      29       1       1      30      29
       1       1      30      29       1       1      30      29       1       1
      30      29       1       1      30      29       1       1      30      29
       1       1      30      29       1       1      30      29       1       1
      30      29       1       1      30      29       1       1      30      29
       1       1      30      29       1       1      30      29       1       1
      30      29       1       1      30      29       1       1      30      29
       1       1      30      29       1       1      30      29       1       1
      30      29       1       1      30      29       1       1      30      29
       1       1      30      29       1       1      30      29       1       1
      30      29       1       1      30      29       1       1      30      29
       1       1      30      29       1       1      30      29       1       1
      30      29       1       1      30      29       1       1      30      29
       1       1      30      29       1       1      30      29       1       1
      30      29       1       1      30      29       1       1      30      29
       1       1      30      29       1       1      30      29       1       1
      30      29       1       1      30      29       1       1      30      29
       1       1      30      29       1       1      30      29       1       1
      30      29       1       1      30      29       1       1      30      29
       1       1      30      29       1       1      30      29       1       1
      30      29       1       1      30      29       1       1      30      29
       1       1      30      29       1       1      30      29       1       1
      30      29       1       1      30      29       1       1      30      29
       1       1      30      29       1       1      30      29       1       1
      30      29       1       1      30      29       1       1      30      29
       1       1      30      29       1       1      30      29       1       1
      30      29       1       1      30      29       1       1      30      29
       1       1      30      29       1       1      30      29       1       1
      30      29       1       1      30      29       1       1      30      29
       1       1      30      29       1       1      30      29       1       1
      30      29       1       1      30      29       1       1      30      29
       1       1      30      29       1       1      30      29       1       1
      30      29       1       1      30      29       1       1      30      29
       1       1      30      29       1       1      30      29       1       1
      30      29       1       1      30      29       1       1      30      29
       1       1      30      29       1       1      30      29       1       1
      30      29       1       1      30      29       1       1      30      29
       1       1      30      29       1       1      30      29       1       1
      30      29       1       1      30      29       1       1      30      29
       1       1      30      29       1       1      30      29       1       1
      30      29       1       1      30      29       1       1      30      29
       1       1      30      29       1       1      30      29       1       1
      30      29       1       1      30      29       1       1      30      29
       1       1      30      29       1       1      30      29       1       1
      30      29       1       1      30      29       1       1      30      29
       1       1      30      29       1       1      30      29       1       1
      30      29       1       1      30      29       1       1      30      29
       1       1      30      29       1       1      30      29       1       1
      30      29       1       1      30      29       1       1      30      29
       1       1      30      29       1       1      30      29       1       1
      30      29       1       1      30      29       1       1      30      29
       1       1      30      29       1       1      30      29       1       1
      30      29       1       1      30      29       1       1      30      29
       1       1      30      29       1       1      30      29       1       1
      30      29       1       1      30      29       1       1      30      29
       1       1      30      29       1       1      30      29       1       1
      30      29       1       1      30      29       1       1      30      29
       1       1      30      29       1       1      30      29       1       1
      30      29       1       1      30      29       1       1      30      29
       1       1      30      29       1       1      30      29       1       1
      30      29       1       1      30      29       1       1      30      29
       1       1      30      29       1       1      30      29       1       1
      30      29       1       1      30      29       1       1      30      29
       1       1      30      29       1       1      30      29       1       1
      30      29       1       1      30      29       1       1      30      29
       1       1      30      29       1       1      30      29       1       1
      30      29       1       1      30      29       1       1      30      29
       1       1      30      29       1       1      30      29       1       1
      30      29       1       1      30      29       1       1      30      29
       1       1      30      29       1       1      30      29       1       1
      30      29       1       1      30      29       1       1      30      29
       1       1      30      29       1       1      30      29       1       1
      30      29       1       1      30      29       1       1      30      29
       1       1      30      29       1       1      30      29       1       1
      30      29       1       1      30      29       1       1      30      29
       1       1      30      29       1       1      30      29       1       1
      30      29       1       1      30      29       1       1      30      29
       1       1      30      29       1       1      30      29       1       1
      30      29       1       1      30      29       1       1      30      29
       1       1      30      29       1       1      30      29       1       1
      30      29       1       1      30      29       1       1      30      29
       1       1      30      29       1       1      30      29       1       1
      30      29       1       1      30      29       1       1      30      29
       1       1      30      29       1       1      30      29       1       1
      30      29       1       1      30      29       1       1      30      29
       1       1      30      29       1       1      30      29       1       1
      30      29       1       1      30      29       1       1      30      29
       1       1      30      29       1       1      30      29       1       1
      30      29       1       1      30      29       1       1      30      29
       1       1      30      29       1       1      30      29       1       1
      30      29       1       1      30      29       1       1      30      29
       1       1      30      29       1       1      30      29       1       1
      30      29       1       1      30      29       1       1      30      29
       1       1      30      29       1       1      30      29       1       1
      30      29       1       1      30      29       1       1      30      29
       1       1      30      29       1       1      30      29       1       1
      30      29       1       1      30      29       1       1      30      29
       1       1      30      29       1       1      30      29       1       1
      30      29       1       1      30      29       1       1      30      29
       1       1      30      29       1       1      30      29       1       1
      30      29       1       1      30      29       1       1      30      29
       1       1      30      29       1       1      30      29       1       1
      30      29       1       1      30      29       1       1      30      29
       1       1      30      29       1       1      30      29       1       1
      30      29       1       1      30      29       1       1      30      29
       1       1      30      29       1       1      30      29       1       1
      30      29       1       1      30      29       1       1      30      29
       1       1      30      29       1       1      30      29       1       1
      30      29       1       1      30      29       1       1      30      29
       1       1      30      29       1       1      30      29       1       1
      30      29       1       1      30      29       1       1      30      29
       1       1      30      29       1       1      30      29       1       1
      30      29       1       1      30      29       1       1      30      29
       1       1      30      29       1       1      30      29       1       1
      30      29       1       1      30      29       1       1      30      29
       1       1      30      29       1       1      30      29       1       1
      30      29       1       1      30      29       1       1      30      29
       1       1      30      29       1       1      30      29       1       1
      30      29       1       1      30      29       1       1      30      29
       1       1      30      29       1       1      30      29       1       1
      30      29       1       1      30      29       1       1      30      29
       1       1      30      29       1       1      30      29       1       1
      30      29       1       1      30      29       1       1      30      29
       1       1      30      29       1       1      30      29       1       1
      30      29       1       1      30      29       1       1      30      29
       1       1      30      29       1       1      30      29       1       1
      30      29       1       1      30      29       1       1      30      29
       1       1      30      29       1       1      30      29       1       1
      30      29       1       1      30      29       1       1      30      29
       1       1      30      29       1       1      30      29       1       1
      30      29       1       1      30      29       1       1      30      29
       1       1      30      29       1       1      30      29       1       1
      30      29       1       1      30      29       1       1      30      29
       1       1      30      29       1       1      30      29       1       1
      30      29       1       1      30      29       1       1      30      29
       1       1      30      29       1       1      30      29       1       1
      30      29       1       1      30      29       1       1      30      29
       1       1      30      29       1       1      30      29       1       1
      30      29       1       1      30      29       1       1      30      29
       1       1      30      29       1       1      30      29       1       1
      30      29       1       1      30      29       1       1      30      29
       1       1      30      29       1       1      30      29       1       1
      30      29       1       1      30      29       1       1      30      29
       1       1      30      29       1       1      30      29       1       1
      30      29       1       1      30      29       1       1      30      29
       1       1      30      29       1       1      30      29       1       1
      30      29       1       1      30      29       1       1      30      29
       1       1      30      29       1       1      30      29       1       1
      30      29       1       1      30      29       1       1      30      29
       1       1      30      29       1       1      30      29       1       1
      30      29       1       1      30      29       1       1      30      29
       1       1      30      29       1       1      30      29       1       1
      30      29       1       1      30      29       1       1      30      29
       1       1      30      29       1       1      30      29       1       1
      30      29       1       1      30      29       1       1      30      29
       1       1      30      29       1       1      30      29       1       1
      30      29       1       1      30      29       1       1      30      29
       1       1      30      29       1       1      30      29       1       1
      30      29       1       1      30      29       1       1      30      29
       1       1      30      29       1       1      30      29       1       1
      30      29       1       1      30      29       1       1      30      29
       1       1      30      29       1       1      30      29       1       1
      30      29       1       1      30      29       1       1      30      29
       1       1      30      29       1       1      30      29       1       1
      30      29       1       1      30      29       1       1      30      29
       1       1      30      29       1       1      30      29       1       1
      30      29       1       1      30      29       1       1      30      29
       1       1      30      29       1       1      30      29       1       1
      30      29       1       1      30      29       1       1      30      29
       1       1      30      29       1       1      30      29       1       1
      30      29       1       1      30      29       1       1      30      29
       1       1      30      29       1       1      30      29       1       1
      30      29       1       1      30      29       1       1      30      29
       1       1      30      29       1       1      30      29       1       1
      30      29       1       1      30      29       1       1      30      29
       1       1      30      29       1       1      30      29       1       1
      30      29       1       1      30      29       1       1      30      29
       1       1      30      29       1       1      30      29       1       1
      30      29       1       1      30      29       1       1      30      29
       1       1      30      29       1       1      30      29       1       1
      30      29       1       1      30      29       1       1      30      29
       1       1      30      29       1       1      30      29       1       1
      30      29       1       1      30      29       1       1      30      29
       1       1      30      29       1       1      30      29       1       1
      30      29       1       1      30      29       1       1      30      29
       1       1      30      29       1       1      30      29       1       1
      30      29       1       1      30      29       1       1      30      29
       1       1      30      29       1       1      30      29       1       1
      30      29       1       1      30      29       1       1      30      29
       1       1      30      29       1       1      30      29       1       1
      30      29       1       1      30      29       1       1      30      29
       1       1      30      29       1       1      30      29       1       1
      30      29       1       1      30      29       1       1      30      29
       1       1      30      29       1       1      30      29       1       1
      30      29       1       1      30      29       1       1      30      29
       1       1      30      29       1       1      30      29       1       1
      30      29       1       1      30      29       1       1      30      29
       1       1      30      29       1       1      30      29       1       1
      30      29       1       1      30      29       1       1      30      29
       1       1      30      29       1       1      30      29       1       1
      30      29       1       1      30      29       1       1      30      29
       1       1      30      29       1       1      30      29       1       1
      30      29       1       1      30      29       1       1      30      29
       1       1      30      29       1       1      30      29       1       1
      30      29       1       1      30      29       1       1      30      29
       1       1      30      29       1       1      30      29       1       1
      30      29       1       1      30      29       1       1      30      29
       1       1      30      29       1       1      30      29       1       1
      30      29       1       1      30      29       1       1      30      29
       1       1      30      29       1       1      30      29       1       1
      30      29       1       1      30      29       1       1      30      29
       1       1      30      29       1       1      30      29       1       1
      30      29       1       1      30      29       1       1      30      29
       1       1      30      29       1       1      30      29       1       1
      30      29       1       1      30      29       1       1      30      29
       1       1      30      29       1       1      30      29       1       1
      30      29       1       1      30      29       1       1      30      29
       1       1      30      29       1       1      30      29       1       1
      30      29       1       1      30      29       1       1      30      29
       1       1      30      29       1       1      30      29       1       1
      30      29       1       1      30      29       1       1      30      29
       1       1      30      29       1       1      30      29       1       1
      30      29       1       1      30      29       1       1      30      29
       1       1      30      29       1       1      30      29       1       1
      30      29       1       1      30      29       1       1      30      29
       1       1      30      29       1       1      30      29       1       1
      30      29       1       1      30      29       1       1      30      29
       1       1      30      29       1       1      30      29       1       1
      30      29       1       1      30      29       1       1      30      29
       1       1      30      29       1       1      30      29       1       1
      30      29       1       1      30      29       1       1      30      29
       1       1      30      29       1       1      30      29       1       1
      30      29       1       1      30      29       1       1      30      29
       1       1      30      29       1       1      30      29       1       1
      30      29       1       1      30      29       1       1      30      29
       1       1      30      29       1       1      30      29       1       1
      30      29       1       1      30      29       1       1      30      29
       1       1      30      29       1       1      30      29       1       1
      30      29       1       1      30      29       1       1      30      29
       1       1      30      29       1       1      30      29       1       1
      30      29       1       1      30      29       1       1      30      29
       1       1      30      29       1       1      30      29       1       1
      30      29       1       1      30      29       1       1      30      29
       1       1      30      29       1       1      30      29       1       1
      30      29       1       1      30      29       1       1      30      29
       1       1      30      29       1       1      30      29       1       1
      30      29       1       1      30      29       1       1      30      29
       1       1      30      29       1       1      30      29       1       1
      30      29       1       1      30      29       1       1      30      29
       1       1      30      29       1       1      30      29       1       1
      30      29       1       1      30      29       1       1      30      29
       1       1      30      29       1       1      30      29       1       1
      30      29       1       1      30      29       1       1      30      29
       1       1      30      29       1       1      30      29       1       1
      30      29       1       1      30      29       1       1      30      29
       1       1      30      29       1       1      30      29       1       1
      30      29       1       1      30      29       1       1      30      29
       1       1      30      29       1       1      30      29       1       1
      30      29       1       1      30      29       1       1      30      29
       1       1      30      29       1       1      30      29       1       1
      30      29       1       1      30      29       1       1      30      29
       1       1      30      29       1       1      30      29       1       1
      30      29       1       1      30      29       1       1      30      29
       1       1      30      29       1       1      30      29       1       1
      30      29       1       1      30      29       1       1      30      29
       1       1      30      29       1       1      30      29       1       1
      30      29       1       1      30      29       1       1      30      29
       1       1      30      29       1       1      30      29       1       1
      30      29       1       1      30      29       1       1      30      29
       1       1      30      29       1       1      30      29       1       1
      30      29       1       1      30      29       1       1      30      29
       1       1      30      29       1       1      30      29       1       1
      30      29       1       1      30      29       1       1      30      29
       1       1      30      29       1       1      30      29       1       1
      30      29       1       1      30      29       1       1      30      29
       1       1      30      29       1       1      30      29       1       1
      30      29       1       1      30      29       1       1      30      29
       1       1      30      29       1       1      30      29       1       1
      30      29       1       1      30      29       1       1      30      29
       1       1      30      29       1       1      30      29       1       1
      30      29       1       1      30      29       1       1      30      29
       1       1      30      29       1       1      30      29       1       1
      30      29       1       1      30      29       1       1      30      29
       1       1      30      29       1       1      30      29       1       1
      30      29       1       1      30      29       1       1      30      29
       1       1      30      29       1       1      30      29       1       1
      30      29       1       1      30      29       1       1      30      29
       1       1      30      29       1       1      30      29       1       1
      30      29       1       1      30      29       1       1      30      29
       1       1      30      29       1       1      30      29       1       1
      30      29       1       1      30      29       1       1      30      29
       1       1      30      29       1       1      30      29       1       1
      30      29       1       1      30      29       1       1      30      29
       1       1      30      29       1       1      30      29       1       1
      30      29       1       1      30      29       1       1      30      29
       1       1      30      29       1       1      30      29       1       1
      30      29       1       1      30      29       1       1      30      29
       1       1      30      29       1       1      30      29       1       1
      30      29       1       1      30      29       1       1      30      29
       1       1      30      29       1       1      30      29       1       1
      30      29       1       1      30      29       1       1      30      29
       1       1      30      29       1       1      30      29       1       1
      30      29       1       1      30      29       1       1      30      29
       1       1      30      29       1       1      30      29       1       1
      30      29       1       1      30      29       1       1      30      29
       1       1      30      29       1       1      30      29       1       1
      30      29       1       1      30      29       1       1      30      29
       1       1      30      29       1       1      30      29       1       1
      30      29       1       1      30      29       1       1      30      29
       1       1      30      29       1       1      30      29       1       1
      30      29       1       1      30      29       1       1      30      29
       1       1      30      29       1       1      30      29       1       1
      30      29       1       1      30      29       1       1      30      29
       1       1      30      29       1       1      30      29       1       1
      30      29       1       1      30      29       1       1      30      29
       1       1      30      29       1       1      30      29       1       1
      30      29       1       1      30      29       1       1      30      29
       1       1      30      29       1       1      30      29       1       1
      30      29       1       1      30      29       1       1      30      29
       1       1      30      29       1       1      30      29       1       1
      30      29       1       1      30      29       1       1      30      29
       1       1      30      29       1       1      30      29       1       1
      30      29       1       1      30      29       1       1      30      29
       1       1      30      29       1       1      30      29       1       1
      30      29       1       1      30      29       1       1      30      29
       1       1      30      29       1       1      30      29       1       1
      30      29       1       1      30      29       1       1      30      29
       1       1      30      29       1       1      30      29       1       1
      30      29       1       1      30      29       1       1      30      29
       1       1      30      29       1       1      30      29       1       1
      30      29       1       1      30      29       1       1      30      29
       1       1      30      29       1       1      30      29       1       1
      30      29       1       1      30      29       1       1      30      29
       1       1      30      29       1       1      30      29       1       1
      30      29       1       1      30      29       1       1      30      29
       1       1      30      29       1       1      30      29       1       1
      30      29       1       1      30      29       1       1      30      29
       1       1      30      29       1       1      30      29       1       1
      30      29       1       1      30      29       1       1      30      29
       1       1      30      29       1       1      30      29       1       1
      30      29       1       1      30      29       1       1      30      29
       1       1      30      29       1       1      30      29       1       1
      30      29       1       1      30      29       1       1      30      29
       1       1      30      29       1       1      30      29       1       1
      30      29       1       1      30      29       1       1      30      29
       1       1      30      29       1       1      30      29       1       1
      30      29       1       1      30      29       1       1      30      29
       1       1      30      29       1       1      30      29       1       1
      30      29       1       1      30      29       1       1      30      29
       1       1      30      29       1       1      30      29       1       1
      30      29       1       1      30      29       1       1      30      29
       1       1      30      29       1       1      30      29       1       1
      30      29       1       1      30      29       1       1      30      29
       1       1      30      29       1       1      30      29       1       1
      30      29       1       1      30      29       1       1      30      29
       1       1      30      29       1       1      30      29       1       1
      30      29       1       1      30      29       1       1      30      29
       1       1      30      29       1       1      30      29       1       1
      30      29       1       1      30      29       1       1      30      29
       1       1      30      29       1       1      30      29       1       1
      30      29       1       1      30      29       1       1      30      29
       1       1      30      29       1       1      30      29       1       1
      30      29       1       1      30      29       1       1      30      29
       1       1      30      29       1       1      30      29       1       1
      30      29       1       1      30      29       1       1      30      29
       1       1      30      29       1       1      30      29       1       1
      30      29       1       1      30      29       1       1      30      29
       1       1      30      29       1       1      30      29       1       1
      30      29       1       1      30      29       1       1      30      29
       1       1      30      29       1       1      30      29       1       1
      30      29       1       1      30      29       1       1      30      29
       1       1      30      29       1       1      30      29       1       1
      30      29       1       1      30      29       1       1      30      29
       1       1      30      29       1       1      30      29       1       1
      30      29       1       1      30      29       1       1      30      29
       1       1      30      29       1       1      30      29       1       1
      30      29       1       1      30      29       1       1      30      29
       1       1      30      29       1       1      30      29       1       1
      30      29       1       1      30      29       1       1      30      29
       1       1      30      29       1       1      30      29       1       1
      30      29       1       1      30      29       1       1      30      29
       1       1      30      29       1       1      30      29       1       1
      30      29       1       1      30      29       1       1      30      29
       1       1      30      29       1       1      30      29       1       1
      30      29       1       1      30      29       1       1      30      29
       1       1      30      29       1       1      30      29       1       1
      30      29       1       1      30      29       1       1      30      29
       1       1      30      29       1       1      30      29       1       1
      30      29       1       1      30      29       1       1      30      29
       1       1      30      29       1       1      30      29       1       1
      30      29       1       1      30      29       1       1      30      29
       1       1      30      29       1       1      30      29       1       1
      30      29       1       1      30      29       1       1      30      29
       1       1      30      29       1       1      30      29       1       1
      30      29       1       1      30      29       1       1      30      29
       1       1      30      29       1       1      30      29       1       1
      30      29       1       1      30      29       1       1      30      29
       1       1      30      29       1       1      30      29       1       1
      30      29       1       1      30      29       1       1      30      29
       1       1      30      29       1       1      30      29       1       1
      30      29       1       1      30      29       1       1      30      29
       1       1      30      29       1       1      30      29       1       1
      30      29       1       1      30      29       1       1      30      29
       1       1      30      29       1       1      30      29       1       1
      30      29       1       1      30      29       1       1      30      29
       1       1      30      29       1       1      30      29       1       1
      30      29       1       1      30      29       1       1      30      29
       1       1      30      29       1       1      30      29       1       1
      30      29       1       1      30      29       1       1      30      29
       1       1      30      29       1       1      30      29       1       1
      30      29       1       1      30      29       1       1      30      29
       1       1      30      29       1       1      30      29       1       1
      30      29       1       1      30      29       1       1      30      29
       1       1      30      29       1       1      30      29       1       1
      30      29       1       1      30      29       1       1      30      29
       1       1      30      29       1       1      30      29       1       1
      30      29       1       1      30      29       1       1      30      29
       1       1      30      29       1       1      30      29       1       1
      30      29       1       1      30      29       1       1      30      29
       1       1      30      29       1       1      30      29       1       1
      30      29       1       1      30      29       1       1      30      29
       1       1      30      29       1       1      30      29       1       1
      30      29       1       1      30      29       1       1      30      29
       1       1      30      29       1       1      30      29       1       1
      30      29       1       1      30      29       1       1      30      29
       1       1      30      29       1       1      30      29       1       1
      30      29       1       1      30      29       1       1      30      29
       1       1      30      29       1       1      30      29       1       1
      30      29       1       1      30      29       1       1      30      29
       1       1      30      29       1       1      30      29       1       1
      30      29       1       1      30      29       1       1      30      29
       1       1      30      29       1       1      30      29       1       1
      30      29       1       1      30      29       1       1      30      29
       1       1      30      29       1       1      30      29       1       1
      30      29       1       1      30      29       1       1      30      29
       1       1      30      29       1       1      30      29       1       1
      30      29       1       1      30      29       1       1      30      29
       1       1      30      29       1       1      30      29       1       1
      30      29       1       1      30      29       1       1      30      29
       1       1      30      29       1       1      30      29       1       1
      30      29       1       1      30      29       1       1      30      29
       1       1      30      29       1       1      30      29       1       1
      30      29       1       1      30      29       1       1      30      29
       1       1      30      29       1       1      30      29       1       1
      30      29       1       1      30      29       1       1      30      29
       1       1      30      29       1       1      30      29       1       1
      30      29       1       1      30      29       1       1      30      29
       1       1      30      29       1       1      30      29       1       1
      30      29       1       1      30      29       1       1      30      29
       1       1      30      29       1       1      30      29       1       1
      30      29       1       1      30      29       1       1      30      29
       1       1      30      29       1       1      30      29       1       1
      30      29       1       1      30      29       1       1      30      29
       1       1      30      29       1       1      30      29       1       1
      30      29       1       1      30      29       1       1      30      29
       1       1      30      29       1       1      30      29       1       1
      30      29       1       1      30      29       1       1      30      29
       1       1      30      29       1       1      30      29       1       1
      30      29       1       1      30      29       1       1      30      29
       1       1      30      29       1       1      30      29       1       1
      30      29       1       1      30      29       1       1      30      29
       1       1      30      29       1       1      30      29       1       1
      30      29       1       1      30      29       1       1      30      29
       1       1      30      29       1       1      30      29       1       1
      30      29       1       1      30      29       1       1      30      29
       1       1      30      29       1       1      30      29       1       1
      30      29       1       1      30      29       1       1      30      29
       1       1      30      29       1       1      30      29       1       1
      30      29       1       1      30      29       1       1      30      29
       1       1      30      29       1       1      30      29       1       1
      30      29       1       1      30      29       1       1      30      29
       1       1      30      29       1       1      30      29       1       1
      30      29       1       1      30      29       1       1      30      29
       1       1      30      29       1       1      30      29       1       1
      30      29       1       1      30      29       1       1      30      29
       1       1      30      29       1       1      30      29       1       1
      30      29       1       1      30      29       1       1      30      29
       1       1      30      29       1       1      30      29       1       1
      30      29       1       1      30      29       1       1      30      29
       1       1      30      29       1       1      30      29       1       1
      30      29       1       1      30      29       1       1      30      29
       1       1      30      29       1       1      30      29       1       1
      30      29       1       1      30      29       1       1      30      29
       1       1      30      29       1       1      30      29       1       1
      30      29       1       1      30      29       1       1      30      29
       1       1      30      29       1       1      30      29       1       1
      30      29       1       1      30      29       1       1      30      29
       1       1      30      29       1       1      30      29       1       1
      30      29       1       1      30      29       1       1      30      29
       1       1      30      29       1       1      30      29       1       1
      30      29       1       1      30      29       1       1      30      29
       1       1      30      29       1       1      30      29       1       1
      30      29       1       1      30      29       1       1      30      29
       1       1      30      29       1       1      30      29       1       1
      30      29       1       1      30      29       1       1      30      29
       1       1      30      29       1       1      30      29       1       1
      30      29       1       1      30      29       1       1      30      29
       1       1      30      29       1       1      30      29       1       1
      30      29       1       1      30      29       1       1      30      29
       1       1      30      29       1       1      30      29       1       1
      30      29       1       1      30      29       1       1      30      29
       1       1      30      29       1       1      30      29       1       1
      30      29       1       1      30      29       1       1      30      29
       1       1      30      29       1       1      30      29       1       1
      30      29       1       1      30      29       1       1      30      29
       1       1      30      29       1       1      30      29       1       1
      30      29       1       1      30      29       1       1      30      29
       1       1      30      29       1       1      30      29       1       1
      30      29       1       1      30      29       1       1      30      29
       1       1      30      29       1       1      30      29       1       1
      30      29       1       1      30      29       1       1      30      29
       1       1      30      29       1       1      30      29       1       1
      30      29       1       1      30      29       1       1      30      29
       1       1      30      29       1       1      30      29       1       1
      30      29       1       1      30      29       1       1      30      29
       1       1      30      29       1       1      30      29       1       1
      30      29       1       1      30      29       1       1      30      29
       1       1      30      29       1       1      30      29       1       1
      30      29       1       1      30      29       1       1      30      29
       1       1      30      29       1       1      30      29       1       1
      30      29       1       1      30      29       1       1      30      29
       1       1      30      29       1       1      30      29       1       1
      30      29       1       1      30      29       1       1      30      29
       1       1      30      29       1       1      30      29       1       1
      30      29       1       1      30      29       1       1      30      29
       1       1      30      29       1       1      30      29       1       1
      30      29       1       1      30      29       1       1      30      29
       1       1      30      29       1       1      30      29       1       1
      30      29       1       1      30      29       1       1      30      29
       1       1      30      29       1       1      30      29       1       1
      30      29       1       1      30      29       1       1      30      29
       1       1      30      29       1       1      30      29       1       1
      30      29       1       1      30      29       1       1      30      29
       1       1      30      29       1       1      30      29       1       1
      30      29       1       1      30      29       1       1      30      29
       1       1      30      29       1       1      30      29       1       1
      30      29       1       1      30      29       1       1      30      29
       1       1      30      29       1       1      30      29       1       1
      30      29       1       1      30      29       1       1      30      29
       1       1      30      29       1       1      30      29       1       1
      30      29       1       1      30      29       1       1      30      29
       1       1      30      29       1       1      30      29       1       1
      30      29       1       1      30      29       1       1      30      29
       1       1      30      29       1       1      30      29       1       1
      30      29       1       1      30      29       1       1      30      29
       1       1      30      29       1       1      30      29       1       1
      30      29       1       1      30      29       1       1      30      29
       1       1      30      29       1       1      30      29       1       1
      30      29       1       1      30      29       1       1      30      29
       1       1      30      29       1       1      30      29       1       1
      30      29       1       1      30      29       1       1      30      29
       1       1      30      29       1       1      30      29       1       1
      30      29       1       1      30      29       1       1      30      29
       1       1      30      29       1       1      30      29       1       1
      30      29       1       1      30      29       1       1      30      29
       1       1      30      29       1       1      30      29       1       1
      30      29       1       1      30      29       1       1      30      29
       1       1      30      29       1       1      30      29       1       1
      30      29       1       1      30      29       1       1      30      29
       1       1      30      29       1       1      30      29       1       1
      30      29       1       1      30      29       1       1      30      29
       1       1      30      29       1       1      30      29       1       1
      30      29       1       1      30      29       1       1      30      29
       1       1      30      29       1       1      30      29       1       1
      30      29       1       1      30      29       1       1      30      29
       1       1      30      29       1       1      30      29       1       1
      30      29       1       1      30      29       1       1      30      29
       1       1      30      29       1       1      30      29       1       1
      30      29       1       1      30      29       1       1      30      29
       1       1      30      29       1       1      30      29       1       1
      30      29       1       1      30      29       1       1      30      29
       1       1      30      29       1       1      30      29       1       1
      30      29       1       1      30      29       1       1      30      29
       1       1      30      29       1       1      30      29       1       1
      30      29       1       1      30      29       1       1      30      29
       1       1      30      29       1       1      30      29       1       1
      30      29       1       1      30      29       1       1      30      29
       1       1      30      29       1       1      30      29       1       1
      30      29       1       1      30      29       1       1      30      29
       1       1      30      29       1       1      30      29       1       1
      30      29       1       1      30      29       1       1      30      29
       1       1      30      29       1       1      30      29       1       1
      30      29       1       1      30      29       1       1      30      29
       1       1      30      29       1       1      30      29       1       1
      30      29       1       1      30      29       1       1      30      29
       1       1      30      29       1       1      30      29       1       1
      30      29       1       1      30      29       1       1      30      29
       1       1      30      29       1       1      30      29       1       1
      30      29       1       1      30      29       1       1      30      29
       1       1      30      29       1       1      30      29       1       1
      30      29       1       1      30      29       1       1      30      29
       1       1      30      29       1       1      30      29       1       1
      30      29       1       1      30      29       1       1      30      29
       1       1      30      29       1       1      30      29       1       1
      30      29       1       1      30      29       1       1      30      29
       1       1      30      29       1       1      30      29       1       1
      30      29       1       1      30      29       1       1      30      29
       1       1      30      29       1       1      30      29       1       1
      30      29       1       1      30      29       1       1      30      29
       1       1      30      29       1       1      30      29       1       1
      30      29       1       1      30      29       1       1      30      29
       1       1      30      29       1       1      30      29       1       1
      30      29       1       1      30      29       1       1      30      29
       1       1      30      29       1       1      30      29       1       1
      30      29       1       1      30      29       1       1      30      29
       1       1      30      29       1       1      30      29       1       1
      30      29       1       1      30      29       1       1      30      29
       1       1      30      29       1       1      30      29       1       1
      30      29       1       1      30      29       1       1      30      29
       1       1      30      29       1       1      30      29       1       1
      30      29       1       1      30      29       1       1      30      29
       1       1      30      29       1       1      30      29       1       1
      30      29       1       1      30      29       1       1      30      29
       1       1      30      29       1       1      30      29       1       1
      30      29       1       1      30      29       1       1      30      29
       1       1      30      29       1       1      30      29       1       1
      30      29       1       1      30      29       1       1      30      29
       1       1      30      29       1       1      30      29       1       1
      30      29       1       1      30      29       1       1      30      29
       1       1      30      29       1       1      30      29       1       1
      30      29       1       1      30      29       1       1      30      29
       1       1      30      29       1       1      30      29       1       1
      30      29       1       1      30      29       1       1      30      29
       1       1      30      29       1       1      30      29       1       1
      30      29       1       1      30      29       1       1      30      29
       1       1      30      29       1       1      30      29       1       1
      30      29       1       1      30      29       1       1      30      29
       1       1      30      29       1       1      30      29       1       1
      30      29       1       1      30      29       1       1      30      29
       1       1      30      29       1       1      30      29       1       1
      30      29       1       1      30      29       1       1      30      29
       1       1      30      29       1       1      30      29       1       1
      30      29       1       1      30      29       1       1      30      29
       1       1      30      29       1       1      30      29       1       1
      30      29       1       1      30      29       1       1      30      29
       1       1      30      29       1       1      30      29       1       1
      30      29       1       1      30      29       1       1      30      29
       1       1      30      29       1       1      30      29       1       1
      30      29       1       1      30      29       1       1      30      29
       1       1      30      29       1       1      30      29       1       1
      30      29       1       1      30      29       1       1      30      29
       1       1      30      29       1       1      30      29       1       1
      30      29       1       1      30      29       1       1      30      29
       1       1      30      29       1       1      30      29       1       1
      30      29       1       1      30      29       1       1      30      29
       1       1      30      29       1       1      30      29       1       1
      30      29       1       1      30      29       1       1      30      29
       1       1      30      29       1       1      30      29       1       1
      30      29       1       1      30      29       1       1      30      29
       1       1      30      29       1       1      30      29       1       1
      30      29       1       1      30      29       1       1      30      29
       1       1      30      29       1       1      30      29       1       1
      30      29       1       1      30      29       1       1      30      29
       1       1      30      29       1       1      30      29       1       1
      30      29       1       1      30      29       1       1      30      29
       1       1      30      29       1       1      30      29       1       1
      30      29       1       1      30      29       1       1      30      29
       1       1      30      29       1       1      30      29       1       1
      30      29       1       1      30      29       1       1      30      29
       1       1      30      29       1       1      30      29       1       1
      30      29       1       1      30      29       1       1      30      29
       1       1      30      29       1       1      30      29       1       1
      30      29       1       1      30      29       1       1      30      29
       1       1      30      29       1       1      30      29       1       1
      30      29       1       1      30      29       1       1      30      29
       1       1      30      29       1       1      30      29       1       1
      30      29       1       1      30      29       1       1      30      29
       1       1      30      29       1       1      30      29       1       1
      30      29       1       1      30      29       1       1      30      29
       1       1      30      29       1       1      30      29       1       1
      30      29       1       1      30      29       1       1      30      29
       1       1      30      29       1       1      30      29       1       1
      30      29       1       1      30      29       1       1      30      29
       1       1      30      29       1       1      30      29       1       1
      30      29       1       1      30      29       1       1      30      29
       1       1      30      29       1       1      30      29       1       1
      30      29       1       1      30      29       1       1      30      29
       1       1      30      29       1       1      30      29       1       1
      30      29       1       1      30      29       1       1      30      29
       1       1      30      29       1       1      30      29       1       1
      30      29       1       1      30      29       1       1      30      29
       1       1      30      29       1       1      30      29       1       1
      30      29       1       1      30      29       1       1      30      29
       1       1      30      29       1       1      30      29       1       1
      30      29       1       1      30      29       1       1      30      29
       1       1      30      29       1       1      30      29       1       1
      30      29       1       1      30      29       1       1      30      29
       1       1      30      29       1       1      30      29       1       1
      30      29       1       1      30      29       1       1      30      29
       1       1      30      29       1       1      30      29       1       1
      30      29       1       1      30      29       1       1      30      29
       1       1      30      29       1       1      30      29       1       1
      30      29       1       1      30      29       1       1      30      29
       1       1      30      29       1       1      30      29       1       1
      30      29       1       1      30      29       1       1      30      29
       1       1      30      29       1       1      30      29       1       1
      30      29       1       1      30      29       1       1      30      29
       1       1      30      29       1       1      30      29       1       1
      30      29       1       1      30      29       1       1      30      29
       1       1      30      29       1       1      30      29       1       1
      30      29       1       1      30      29       1       1      30      29
       1       1      30      29       1       1      30      29       1       1
      30      29       1       1      30      29       1       1      30      29
       1       1      30      29       1       1      30      29       1       1
      30      29       1       1      30      29       1       1      30      29
       1       1      30      29       1       1      30      29       1       1
      30      29       1       1      30      29       1       1      30      29
       1       1      30      29       1       1      30      29       1       1
      30      29       1       1      30      29       1       1      30      29
       1       1      30      29       1       1      30      29       1       1
      30      29       1       1      30      29       1       1      30      29
       1       1      30      29       1       1      30      29       1       1
      30      29       1       1      30      29       1       1      30      29
       1       1      30      29       1       1      30      29       1       1
      30      29       1       1      30      29       1       1      30      29
       1       1      30      29       1       1      30      29       1       1
      30      29       1       1      30      29       1       1      30      29
       1       1      30      29       1       1      30      29       1       1
      30      29       1       1      30      29       1       1      30      29
       1       1      30      29       1       1      30      29       1       1
      30      29       1       1      30      29       1       1      30      29
       1       1      30      29       1       1      30      29       1       1
      30      29       1       1      30      29       1       1      30      29
       1       1      30      29       1       1      30      29       1       1
      30      29       1       1      30      29       1       1      30      29
       1       1      30      29       1       1      30      29       1       1
      30      29       1       1      30      29       1       1      30      29
       1       1      30      29       1       1      30      29       1       1
      30      29       1       1      30      29       1       1      30      29
       1       1      30      29       1       1      30      29       1       1
      30      29       1       1      30      29       1       1      30      29
       1       1      30      29       1       1      30      29       1       1
      30      29       1       1      30      29       1       1      30      29
       1       1      30      29       1       1      30      29       1       1
      30      29       1       1      30      29       1       1      30      29
       1       1      30      29       1       1      30      29       1       1
      30      29       1       1      30      29       1       1      30      29
       1       1      30      29       1       1      30      29       1       1
      30      29       1       1      30      29       1       1      30      29
       1       1      30      29       1       1      30      29       1       1
      30      29       1       1      30      29       1       1      30      29
       1       1      30      29       1       1      30      29       1       1
      30      29       1       1      30      29       1       1      30      29
       1       1      30      29       1       1      30      29       1       1
      30      29       1       1      30      29       1       1      30      29
       1       1      30      29       1       1      30      29       1       1
      30      29       1       1      30      29       1       1      30      29
       1       1      30      29       1       1      30      29       1       1
      30      29       1       1      30      29       1       1      30      29
       1       1      30      29       1       1      30      29       1       1
      30      29       1       1      30      29       1       1      30      29
       1       1      30      29       1       1      30      29       1       1
      30      29       1       1      30      29       1       1      30      29
       1       1      30      29       1       1      30      29       1       1
      30      29       1       1      30      29       1       1      30      29
       1       1      30      29       1       1      30      29       1       1
      30      29       1       1      30      29       1       1      30      29
       1       1      30      29       1       1      30      29       1       1
      30      29       1       1      30      29       1       1      30      29
       1       1      30      29       1       1      30      29       1       1
      30      29       1       1      30      29       1       1      30      29
       1       1      30      29       1       1      30      29       1       1
      30      29       1       1      30      29       1       1      30      29
       1       1      30      29       1       1      30      29       1       1
      30      29       1       1      30      29       1       1      30      29
       1       1      30      29       1       1      30      29       1       1
      30      29       1       1      30      29       1       1      30      29
       1       1      30      29       1       1      30      29       1       1
      30      29       1       1      30      29       1       1      30      29
       1       1      30      29       1       1      30      29       1       1
      30      29       1       1      30      29       1       1      30      29
       1       1      30      29       1       1      30      29       1       1
      30      29       1       1      30      29       1       1      30      29
       1       1      30      29       1       1      30      29       1       1
      30      29       1       1      30      29       1       1      30      29
       1       1      30      29       1       1      30      29       1       1
      30      29       1       1      30      29       1       1      30      29
       1       1      30      29       1       1      30      29       1       1
      30      29       1       1      30      29       1       1      30      29
       1       1      30      29       1       1      30      29       1       1
      30      29       1       1      30      29       1       1      30      29
       1       1      30      29       1       1      30      29       1       1
      30      29       1       1      30      29       1       1      30      29
       1       1      30      29       1       1      30      29       1       1
      30      29       1       1      30      29       1       1      30      29
       1       1      30      29       1       1      30      29       1       1
      30      29       1       1      30      29       1       1      30      29
       1       1      30      29       1       1      30      29       1       1
      30      29       1       1      30      29       1       1      30      29
       1       1      30      29       1       1      30      29       1       1
      30      29       1       1      30      29       1       1      30      29
       1       1      30      29       1       1      30      29       1       1
      30      29       1       1      30      29       1       1      30      29
       1       1      30      29       1       1      30      29       1       1
      30      29       1       1      30      29       1       1      30      29
       1       1      30      29       1       1      30      29       1       1
      30      29       1       1      30      29       1       1      30      29
       1       1      30      29       1       1      30      29       1       1
      30      29       1       1      30      29       1       1      30      29
       1       1      30      29       1       1      30      29       1       1
      30      29       1       1      30      29       1       1      30      29
       1       1      30      29       1       1      30      29       1       1
      30      29       1       1      30      29       1       1      30      29
       1       1      30      29       1       1      30      29       1       1
      30      29       1       1      30      29       1       1      30      29
       1       1      30      29       1       1      30      29       1       1
      30      29       1       1      30      29       1       1      30      29
       1       1      30      29       1       1      30      29       1       1
      30      29       1       1      30      29       1       1      30      29
       1       1      30      29       1       1      30      29       1       1
      30      29       1       1      30      29       1       1      30      29
       1       1      30      29       1       1      30      29       1       1
      30      29       1       1      30      29       1       1      30      29
       1       1      30      29       1       1      30      29       1       1
      30      29       1       1      30      29       1       1      30      29
       1       1      30      29       1       1      30      29       1       1
      30      29       1       1      30      29       1       1      30      29
       1       1      30      29       1       1      30      29       1       1
      30      29       1       1      30      29       1       1      30      29
       1       1      30      29       1       1      30      29       1       1
      30      29       1       1      30      29       1       1      30      29
       1       1      30      29       1       1      30      29       1       1
      30      29       1       1      30      29       1       1      30      29
       1       1      30      29       1       1      30      29       1       1
      30      29       1       1      30      29       1       1      30      29
       1       1      30      29       1       1      30      29       1       1
      30      29       1       1      30      29       1       1      30      29
       1       1      30      29       1       1      30      29       1       1
      30      29       1       1      30      29       1       1      30      29
       1       1      30      29       1       1      30      29       1       1
      30      29       1       1      30      29       1       1      30      29
       1       1      30      29       1       1      30      29       1       1
      30      29       1       1      30      29       1       1      30      29
       1       1      30      29       1       1      30      29       1       1
      30      29       1       1      30      29       1       1      30      29
       1       1      30      29       1       1      30      29       1       1
      30      29       1       1      30      29       1       1      30      29
       1       1      30      29       1       1      30      29       1       1
      30      29       1       1      30      29       1       1      30      29
       1       1      30      29       1       1      30      29       1       1
      30      29       1       1      30      29       1       1      30      29
       1       1      30      29       1       1      30      29       1       1
      30      29       1       1      30      29       1       1      30      29
       1       1      30      29       1       1      30      29       1       1
      30      29       1       1      30      29       1       1      30      29
       1       1      30      29       1       1      30      29       1       1
      30      29       1       1      30      29       1       1      30      29
       1       1      30      29       1       1      30      29       1       1
      30      29       1       1      30      29       1       1      30      29
       1       1      30      29       1       1      30      29       1       1
      30      29       1       1      30      29       1       1      30      29
       1       1      30      29       1       1      30      29       1       1
      30      29       1       1      30      29       1       1      30      29
       1       1      30      29       1       1      30      29       1       1
      30      29       1       1      30      29       1       1      30      29
       1       1      30      29       1       1      30      29       1       1
      30      29       1       1      30      29       1       1      30      29
       1       1      30      29       1       1      30      29       1       1
      30      29       1       1      30      29       1       1      30      29
       1       1      30      29       1       1      30      29       1       1
      30      29       1       1      30      29       1       1      30      29
       1       1      30      29       1       1      30      29       1       1
      30      29       1       1      30      29       1       1      30      29
       1       1      30      29       1       1      30      29       1       1
      30      29       1       1      30      29       1       1      30      29
       1       1      30      29       1       1      30      29       1       1
      30      29       1       1      30      29       1       1      30      29
       1       1      30      29       1       1      30      29       1       1
      30      29       1       1      30      29       1       1      30      29
       1       1      30      29       1       1      30      29       1       1
      30      29       1       1      30      29       1       1      30      29
       1       1      30      29       1       1      30      29       1       1
      30      29       1       1      30      29       1       1      30      29
       1       1      30      29       1       1      30      29       1       1
      30      29       1       1      30      29       1       1      30      29
       1       1      30      29       1       1      30      29       1       1
      30      29       1       1      30      29       1       1      30      29
       1       1      30      29       1       1      30      29       1       1
      30      29       1       1      30      29       1       1      30      29
       1       1      30      29       1       1      30      29       1       1
      30      29       1       1      30      29       1       1      30      29
       1       1      30      29       1       1      30      29       1       1
      30      29       1       1      30      29       1       1      30      29
       1       1      30      29       1       1      30      29       1       1
      30      29       1       1      30      29       1       1      30      29
       1       1      30      29       1       1      30      29       1       1
      30      29       1       1      30      29       1       1      30      29
       1       1      30      29       1       1      30      29       1       1
      30      29       1       1      30      29       1       1      30      29
       1       1      30      29       1       1      30      29       1       1
      30      29       1       1      30      29       1       1      30      29
       1       1      30      29       1       1      30      29       1       1
      30      29       1       1      30      29       1       1      30      29
       1       1      30      29       1       1      30      29       1       1
      30      29       1       1      30      29       1       1      30      29
       1       1      30      29       1       1      30      29       1       1
      30      29       1       1      30      29       1       1      30      29
       1       1      30      29       1       1      30      29       1       1
      30      29       1       1      30      29       1       1      30      29
       1       1      30      29       1       1      30      29       1       1
      30      29       1       1      30      29       1       1      30      29
       1       1      30      29       1       1      30      29       1       1
      30      29       1       1      30      29       1       1      30      29
       1       1      30      29       1       1      30      29       1       1
      30      29       1       1      30      29       1       1      30      29
       1       1      30      29       1       1      30      29       1       1
      30      29       1       1      30      29       1       1      30      29
       1       1      30      29       1       1      30      29       1       1
      30      29       1       1      30      29       1       1      30      29
       1       1      30      29       1       1      30      29       1       1
      30      29       1       1      30      29       1       1      30      29
       1       1      30      29       1       1      30      29       1       1
      30      29       1       1      30      29       1       1      30      29
       1       1      30      29       1       1      30      29       1       1
      30      29       1       1      30      29       1       1      30      29
       1       1      30      29       1       1      30      29       1       1
      30      29       1       1      30      29       1       1      30      29
       1       1      30      29       1       1      30      29       1       1
      30      29       1       1      30      29       1       1      30      29
       1       1      30      29       1       1      30      29       1       1
      30      29       1       1      30      29       1       1      30      29
       1       1      30      29       1       1      30      29       1       1
      30      29       1       1      30      29       1       1      30      29
       1       1      30      29       1       1      30      29       1       1
      30      29       1       1      30      29       1       1      30      29
       1       1      30      29       1       1      30      29       1       1
      30      29       1       1      30      29       1       1      30      29
       1       1      30      29       1       1      30      29       1       1
      30      29       1       1      30      29       1       1      30      29
       1       1      30      29       1       1      30      29       1       1
      30      29       1       1      30      29       1       1      30      29
       1       1      30      29       1       1      30      29       1       1
      30      29       1       1      30      29       1       1      30      29
       1       1      30      29       1       1      30      29       1       1
      30      29       1       1      30      29       1       1      30      29
       1       1      30      29       1       1      30      29       1       1
      30      29       1       1      30      29       1       1      30      29
       1       1      30      29       1       1      30      29       1       1
      30      29       1       1      30      29       1       1      30      29
       1       1      30      29       1       1      30      29       1       1
      30      29       1       1      30      29       1       1      30      29
       1       1      30      29       1       1      30      29       1       1
      30      29       1       1      30      29       1       1      30      29
       1       1      30      29       1       1      30      29       1       1
      30      29       1       1      30      29       1       1      30      29
       1       1      30      29       1       1      30      29       1       1
      30      29       1       1      30      29       1       1      30      29
       1       1      30      29       1       1      30      29       1       1
      30      29       1       1      30      29       1       1      30      29
       1       1      30      29       1       1      30      29       1       1
      30      29       1       1      30      29       1       1      30      29
       1       1      30      29       1       1      30      29       1       1
      30      29       1       1      30      29       1       1      30      29
       1       1      30      29       1       1      30      29       1       1
      30      29       1       1      30      29       1       1      30      29
       1       1      30      29       1       1      30      29       1       1
      30      29       1       1      30      29       1       1      30      29
       1       1      30      29       1       1      30      29       1       1
      30      29       1       1      30      29       1       1      30      29
       1       1      30      29       1       1      30      29       1       1
      30      29       1       1      30      29       1       1      30      29
       1       1      30      29       1       1      30      29       1       1
      30      29       1       1      30      29       1       1      30      29
       1       1      30      29       1       1      30      29       1       1
      30      29       1       1      30      29       1       1      30      29
       1       1      30      29       1       1      30      29       1       1
      30      29       1       1      30      29       1       1      30      29
       1       1      30      29       1       1      30      29       1       1
      30      29       1       1      30      29       1       1      30      29
       1       1      30      29       1       1      30      29       1       1
      30      29       1       1      30      29       1       1      30      29
       1       1      30      29       1       1      30      29       1       1
      30      29       1       1      30      29       1       1      30      29
       1       1      30      29       1       1      30      29       1       1
      30      29       1       1      30      29       1       1      30      29
       1       1      30      29       1       1      30      29       1       1
      30      29       1       1      30      29       1       1      30      29
       1       1      30      29       1       1      30      29       1       1
      30      29       1       1      30      29       1       1      30      29
       1       1      30      29       1       1      30      29       1       1
      30      29       1       1      30      29       1       1      30      29
       1       1      30      29       1       1      30      29       1       1
      30      29       1       1      30      29       1       1      30      29
       1       1      30      29       1       1      30      29       1       1
      30      29       1       1      30      29       1       1      30      29
       1       1      30      29       1       1      30      29       1       1
      30      29       1       1      30      29       1       1      30      29
       1       1      30      29       1       1      30      29       1       1
      30      29       1       1      30      29       1       1      30      29
       1       1      30      29       1       1      30      29       1       1
      30      29       1       1      30      29       1       1      30      29
       1       1      30      29       1       1      30      29       1       1
      30      29       1       1      30      29       1       1      30      29
       1       1      30      29       1       1      30      29       1       1
      30      29       1       1      30      29       1       1      30      29
       1       1      30      29       1       1      30      29       1       1
      30      29       1       1      30      29       1       1      30      29
       1       1      30      29       1       1      30      29       1       1
      30      29       1       1      30      29       1       1      30      29
       1       1      30      29       1       1      30      29       1       1
      30      29       1       1      30      29       1       1      30      29
       1       1      30      29       1       1      30      29       1       1
      30      29       1       1      30      29       1       1      30      29
       1       1      30      29       1       1      30      29       1       1
      30      29       1       1      30      29       1       1      30      29
       1       1      30      29       1       1      30      29       1       1
      30      29       1       1      30      29       1       1      30      29
       1       1      30      29       1       1      30      29       1       1
      30      29       1       1      30      29       1       1      30      29
       1       1      30      29       1       1      30      29       1       1
      30      29       1       1      30      29       1       1      30      29
       1       1      30      29       1       1      30      29       1       1
      30      29       1       1      30      29       1       1      30      29
       1       1      30      29       1       1      30      29       1       1
      30      29       1       1      30      29       1       1      30      29
       1       1      30      29       1       1      30      29       1       1
      30      29       1       1      30      29       1       1      30      29
       1       1      30      29       1       1      30      29       1       1
      30      29       1       1      30      29       1       1      30      29
       1       1      30      29       1       1      30      29       1       1
      30      29       1       1      30      29       1       1      30      29
       1       1      30      29       1       1      30      29       1       1
      30      29       1       1      30      29       1       1      30      29
       1       1      30      29       1       1      30      29       1       1
      30      29       1       1      30      29       1       1      30      29
       1       1      30      29       1       1      30      29       1       1
      30      29       1       1      30      29       1       1      30      29
       1       1      30      29       1       1      30      29       1       1
      30      29       1       1      30      29       1       1      30      29
       1       1      30      29       1       1      30      29       1       1
      30      29       1       1      30      29       1       1      30      29
       1       1      30      29       1       1      30      29       1       1
      30      29       1       1      30      29       1       1      30      29
       1       1      30      29       1       1      30      29       1       1
      30      29       1       1      30      29       1       1      30      29
       1       1      30      29       1       1      30      29       1       1
      30      29       1       1      30      29       1       1      30      29
       1       1      30      29       1       1      30      29       1       1
      30      29       1       1      30      29       1       1      30      29
       1       1      30      29       1       1      30      29       1       1
      30      29       1       1      30      29       1       1      30      29
       1       1      30      29       1       1      30      29       1       1
      30      29       1       1      30      29       1       1      30      29
       1       1      30      29       1       1      30      29       1       1
      30      29       1       1      30      29       1       1      30      29
       1       1      30      29       1       1      30      29       1       1
      30      29       1       1      30      29       1       1      30      29
       1       1      30      29       1       1      30      29       1       1
      30      29       1       1      30      29       1       1      30      29
       1       1      30      29       1       1      30      29       1       1
      30      29       1       1      30      29       1       1      30      29
       1       1      30      29       1       1      30      29       1       1
      30      29       1       1      30      29       1       1      30      29
       1       1      30      29       1       1      30      29       1       1
      30      29       1       1      30      29       1       1      30      29
       1       1      30      29       1       1      30      29       1       1
      30      29       1       1      30      29       1       1      30      29
       1       1      30      29       1       1      30      29       1       1
      30      29       1       1      30      29       1       1      30      29
       1       1      30      29       1       1      30      29       1       1
      30      29       1       1      30      29       1       1      30      29
       1       1      30      29       1       1      30      29       1       1
      30      29       1       1      30      29       1       1      30      29
       1       1      30      29       1       1      30      29       1       1
      30      29       1       1      30      29       1       1      30      29
       1       1      30      29       1       1      30      29       1       1
      30      29       1       1      30      29       1       1      30      29
       1       1      30      29       1       1      30      29       1       1
      30      29       1       1      30      29       1       1      30      29
       1       1      30      29       1       1      30      29       1       1
      30      29       1       1      30      29       1       1      30      29
       1       1      30      29       1       1      30      29       1       1
      30      29       1       1      30      29       1       1      30      29
       1       1      30      29       1       1      30      29       1       1
      30      29       1       1      30      29       1       1      30      29
       1       1      30      29       1       1      30      29       1       1
      30      29       1       1      30      29       1       1      30      29
       1       1      30      29       1       1      30      29       1       1
      30      29       1       1      30      29       1       1      30      29
       1       1      30      29       1       1      30      29       1       1
      30      29       1       1      30      29       1       1      30      29
       1       1      30      29       1       1      30      29       1       1
      30      29       1       1      30      29       1       1      30      29
       1       1      30      29       1       1      30      29       1       1
      30      29       1       1      30      29       1       1      30      29
       1       1      30      29       1       1      30      29       1       1
      30      29       1       1      30      29       1       1      30      29
       1       1      30      29       1       1      30      29       1       1
      30      29       1       1      30      29       1       1      30      29
       1       1      30      29       1       1      30      29       1       1
      30      29       1       1      30      29       1       1      30      29
       1       1      30      29       1       1      30      29       1       1
      30      29       1       1      30      29       1       1      30      29
       1       1      30      29       1       1      30      29       1       1
      30      29       1       1      30      29       1       1      30      29
       1       1      30      29       1       1      30      29       1       1
      30      29       1       1      30      29       1       1      30      29
       1       1      30      29       1       1      30      29       1       1
      30      29       1       1      30      29       1       1      30      29
       1       1      30      29       1       1      30      29       1       1
      30      29       1       1      30      29       1       1      30      29
       1       1      30      29       1       1      30      29       1       1
      30      29       1       1      30      29       1       1      30      29
       1       1      30      29       1       1      30      29       1       1
      30      29       1       1      30      29       1       1      30      29
       1       1      30      29       1       1      30      29       1       1
      30      29       1       1      30      29       1       1      30      29
       1       1      30      29       1       1      30      29       1       1
      30      29       1       1      30      29       1       1      30      29
       1       1      30      29       1       1      30      29       1       1
      30      29       1       1      30      29       1       1      30      29
       1       1      30      29       1       1      30      29       1       1
      30      29       1       1      30      29       1       1      30      29
       1       1      30      29       1       1      30      29       1       1
      30      29       1       1      30      29       1       1      30      29
       1       1      30      29       1       1      30      29       1       1
      30      29       1       1      30      29       1       1      30      29
       1       1      30      29       1       1      30      29       1       1
      30      29       1       1      30      29       1       1      30      29
       1       1      30      29       1       1      30      29       1       1
      30      29       1       1      30      29       1       1      30      29
       1       1      30      29       1       1      30      29       1       1
      30      29       1       1      30      29       1       1      30      29
       1       1      30      29       1       1      30      29       1       1
      30      29       1       1      30      29       1       1      30      29
       1       1      30      29       1       1      30      29       1       1
      30      29       1       1      30      29       1       1      30      29
       1       1      30      29       1       1      30      29       1       1
      30      29       1       1      30      29       1       1      30      29
       1       1      30      29       1       1      30      29       1       1
      30      29       1       1      30      29       1       1      30      29
       1       1      30      29       1       1      30      29       1       1
      30      29       1       1      30      29       1       1      30      29
       1       1      30      29       1       1      30      29       1       1
      30      29       1       1      30      29       1       1      30      29
       1       1      30      29       1       1      30      29       1       1
      30      29       1       1      30      29       1       1      30      29
       1       1      30      29       1       1      30      29       1       1
      30      29       1       1      30      29       1       1      30      29
       1       1      30      29       1       1      30      29       1       1
      30      29       1       1      30      29       1       1      30      29
       1       1      30      29       1       1      30      29       1       1
      30      29       1       1      30      29       1       1      30      29
       1       1      30      29       1       1      30      29       1       1
      30      29       1       1      30      29       1       1      30      29
       1       1      30      29       1       1      30      29       1       1
      30      29       1       1      30      29       1       1      30      29
       1       1      30      29       1       1      30      29       1       1
      30      29       1       1      30      29       1       1      30      29
       1       1      30      29       1       1      30      29       1       1
      30      29       1       1      30      29       1       1      30      29
       1       1      30      29       1       1      30      29       1       1
      30      29       1       1      30      29       1       1      30      29
       1       1      30      29       1       1      30      29       1       1
      30      29       1       1      30      29       1       1      30      29
       1       1      30      29       1       1      30      29       1       1
      30      29       1       1      30      29       1       1      30      29
       1       1      30      29       1       1      30      29       1       1
      30      29       1       1      30      29       1       1      30      29
       1       1      30      29       1       1      30      29       1       1
      30      29       1       1      30      29       1       1      30      29
       1       1      30      29       1       1      30      29       1       1
      30      29       1       1      30      29       1       1      30      29
       1       1      30      29       1       1      30      29       1       1
      30      29       1       1      30      29       1       1      30      29
       1       1      30      29       1       1      30      29       1       1
      30      29       1       1      30      29       1       1      30      29
       1       1      30      29       1       1      30      29       1       1
      30      29       1       1      30      29       1       1      30      29
       1       1      30      29       1       1      30      29       1       1
      30      29       1       1      30      29       1       1      30      29
       1       1      30      29       1       1      30      29       1       1
      30      29       1       1      30      29       1       1      30      29
       1       1      30      29       1       1      30      29       1       1
      30      29       1       1      30      29       1       1      30      29
       1       1      30      29       1       1      30      29       1       1
      30      29       1       1      30      29       1       1      30      29
       1       1      30      29       1       1      30      29       1       1
      30      29       1       1      30      29       1       1      30      29
       1       1      30      29       1       1      30      29       1       1
      30      29       1       1      30      29       1       1      30      29
       1       1      30      29       1       1      30      29       1       1
      30      29       1       1      30      29       1       1      30      29
       1       1      30      29       1       1      30      29       1       1
      30      29       1       1      30      29       1       1      30      29
       1       1      30      29       1       1      30      29       1       1
      30      29       1       1      30      29       1       1      30      29
       1       1      30      29       1       1      30      29       1       1
      30      29       1       1      30      29       1       1      30      29
       1       1      30      29       1       1      30      29       1       1
      30      29       1       1      30      29       1       1      30      29
       1       1      30      29       1       1      30      29       1       1
      30      29       1       1      30      29       1       1      30      29
       1       1      30      29       1       1      30      29       1       1
      30      29       1       1      30      29       1       1      30      29
       1       1      30      29       1       1      30      29       1       1
      30      29       1       1      30      29       1       1      30      29
       1       1      30      29       1       1      30      29       1       1
      30      29       1       1      30      29       1       1      30      29
       1       1      30      29       1       1      30      29       1       1
      30      29       1       1      30      29       1       1      30      29
       1       1      30      29       1       1      30      29       1       1
      30      29       1       1      30      29       1       1      30      29
       1       1      30      29       1       1      30      29       1       1
      30      29       1       1      30      29       1       1      30      29
       1       1      30      29       1       1      30      29       1       1
      30      29       1       1      30      29       1       1      30      29
       1       1      30      29       1       1      30      29       1       1
      30      29       1       1      30      29       1       1      30      29
       1       1      30      29       1       1      30      29       1       1
      30      29       1       1      30      29       1       1      30      29
       1       1      30      29       1       1      30      29       1       1
      30      29       1       1      30      29       1       1      30      29
       1       1      30      29       1       1      30      29       1       1
      30      29       1       1      30      29       1       1      30      29
       1       1      30      29       1       1      30      29       1       1
      30      29       1       1      30      29       1       1      30      29
       1       1      30      29       1       1      30      29       1       1
      30      29       1       1      30      29       1       1      30      29
       1       1      30      29       1       1      30      29       1       1
      30      29       1       1      30      29       1       1      30      29
       1       1      30      29       1       1      30      29       1       1
      30      29       1       1      30      29       1       1      30      29
       1       1      30      29       1       1      30      29       1       1
      30      29       1       1      30      29       1       1      30      29
       1       1      30      29       1       1      30      29       1       1
      30      29       1       1      30      29       1       1      30      29
       1       1      30      29       1       1      30      29       1       1
      30      29       1       1      30      29       1       1      30      29
       1       1      30      29       1       1      30      29       1       1
      30      29       1       1      30      29       1       1      30      29
       1       1      30      29       1       1      30      29       1       1
      30      29       1       1      30      29       1       1      30      29
       1       1      30      29       1       1      30      29       1       1
      30      29       1       1      30      29       1       1      30      29
       1       1      30      29       1       1      30      29       1       1
      30      29       1       1      30      29       1       1      30      29
       1       1      30      29       1       1      30      29       1       1
      30      29       1       1      30      29       1       1      30      29
       1       1      30      29       1       1      30      29       1       1
      30      29       1       1      30      29       1       1      30      29
       1       1      30      29       1       1      30      29       1       1
      30      29       1       1      30      29       1       1      30      29
       1       1      30      29       1       1      30      29       1       1
      30      29       1       1      30      29       1       1      30      29
       1       1      30      29       1       1      30      29       1       1
      30      29       1       1      30      29       1       1      30      29
       1       1      30      29       1       1      30      29       1       1
      30      29       1       1      30      29       1       1      30      29
       1       1      30      29       1       1      30      29       1       1
      30      29       1       1      30      29       1       1      30      29
       1       1      30      29       1       1      30      29       1       1
      30      29       1       1      30      29       1       1      30      29
       1       1      30      29       1       1      30      29       1       1
      30      29       1       1      30      29       1       1      30      29
       1       1      30      29       1       1      30      29       1       1
      30      29       1       1      30      29       1       1      30      29
       1       1      30      29       1       1      30      29       1       1
      30      29       1       1      30      29       1       1      30      29
       1       1      30      29       1       1      30      29       1       1
      30      29       1       1      30      29       1       1      30      29
       1       1      30      29       1       1      30      29       1       1
      30      29       1       1      30      29       1       1      30      29
       1       1      30      29       1       1      30      29       1       1
      30      29       1       1      30      29       1       1      30      29
       1       1      30      29       1       1      30      29       1       1
      30      29       1       1      30      29       1       1      30      29
       1       1      30      29       1       1      30      29       1       1
      30      29       1       1      30      29       1       1      30      29
       1       1      30      29       1       1      30      29       1       1
      30      29       1       1      30      29       1       1      30      29
       1       1      30      29       1       1      30      29       1       1
      30      29       1       1      30      29       1       1      30      29
       1       1      30      29       1       1      30      29       1       1
      30      29       1       1      30      29       1       1      30      29
       1       1      30      29       1       1      30      29       1       1
      30      29       1       1      30      29       1       1      30      29
       1       1      30      29       1       1      30      29       1       1
      30      29       1       1      30      29       1       1      30      29
       1       1      30      29       1       1      30      29       1       1
      30      29       1       1      30      29       1       1      30      29
       1       1      30      29       1       1      30      29       1       1
      30      29       1       1      30      29       1       1      30      29
       1       1      30      29       1       1      30      29       1       1
      30      29       1       1      30      29       1       1      30      29
       1       1      30      29       1       1      30      29       1       1
      30      29       1       1      30      29       1       1      30      29
       1       1      30      29       1       1      30      29       1       1
      30      29       1       1      30      29       1       1      30      29
       1       1      30      29       1       1      30      29       1       1
      30      29       1       1      30      29       1       1      30      29
       1       1      30      29       1       1      30      29       1       1
      30      29       1       1      30      29       1       1      30      29
       1       1      30      29       1       1      30      29       1       1
      30      29       1       1      30      29       1       1      30      29
       1       1      30      29       1       1      30      29       1       1
      30      29       1       1      30      29       1       1      30      29
       1       1      30      29       1       1      30      29       1       1
      30      29       1       1      30      29       1       1      30      29
       1       1      30      29       1       1      30      29       1       1
      30      29       1       1      30      29       1       1      30      29
       1       1      30      29       1       1      30      29       1       1
      30      29       1       1      30      29       1       1      30      29
       1       1      30      29       1       1      30      29       1       1
      30      29       1       1      30      29       1       1      30      29
       1       1      30      29       1       1      30      29       1       1
      30      29       1       1      30      29       1       1      30      29
       1       1      30      29       1       1      30      29       1       1
      30      29       1       1      30      29       1       1      30      29
       1       1      30      29       1       1      30      29       1       1
      30      29       1       1      30      29       1       1      30      29
       1       1      30      29       1       1      30      29       1       1
      30      29       1       1      30      29       1       1      30      29
       1       1      30      29       1       1      30      29       1       1
      30      29       1       1      30      29       1       1      30      29
       1       1      30      29       1       1      30      29       1       1
      30      29       1       1      30      29       1       1      30      29
       1       1      30      29       1       1      30      29       1       1
      30      29       1       1      30      29       1       1      30      29
       1       1      30      29       1       1      30      29       1       1
      30      29       1       1      30      29       1       1      30      29
       1       1      30      29       1       1      30      29       1       1
      30      29       1       1      30      29       1       1      30      29
       1       1      30      29       1       1      30      29       1       1
      30      29       1       1      30      29       1       1      30      29
       1       1      30      29       1       1      30      29       1       1
      30      29       1       1      30      29       1       1      30      29
       1       1      30      29       1       1      30      29       1       1
      30      29       1       1      30      29       1       1      30      29
       1       1      30      29       1       1      30      29       1       1
      30      29       1       1      30      29       1       1      30      29
       1       1      30      29       1       1      30      29       1       1
      30      29       1       1      30      29       1       1      30      29
       1       1      30      29       1       1      30      29       1       1
      30      29       1       1      30      29       1       1      30      29
       1       1      30      29       1       1      30      29       1       1
      30      29       1       1      30      29       1       1      30      29
       1       1      30      29       1       1      30      29       1       1
      30      29       1       1      30      29       1       1      30      29
       1       1      30      29       1       1      30      29       1       1
      30      29       1       1      30      29       1       1      30      29
       1       1      30      29       1       1      30      29       1       1
      30      29       1       1      30      29       1       1      30      29
       1       1      30      29       1       1      30      29       1       1
      30      29       1       1      30      29       1       1      30      29
       1       1      30      29       1       1      30      29       1       1
      30      29       1       1      30      29       1       1      30      29
       1       1      30      29       1       1      30      29       1       1
      30      29       1       1      30      29       1       1      30      29
       1       1      30      29       1       1      30      29       1       1
      30      29       1       1      30      29       1       1      30      29
       1       1      30      29       1       1      30      29       1       1
      30      29       1       1      30      29       1       1      30      29
       1       1      30      29       1       1      30      29       1       1
      30      29       1       1      30      29       1       1      30      29
       1       1      30      29       1       1      30      29       1       1
      30      29       1       1      30      29       1       1      30      29
       1       1      30      29       1       1      30      29       1       1
      30      29       1       1      30      29       1       1      30      29
       1       1      30      29       1       1      30      29       1       1
      30      29       1       1      30      29       1       1      30      29
       1       1      30      29       1       1      30      29       1       1
      30      29       1       1      30      29       1       1      30      29
       1       1      30      29       1       1      30      29       1       1
      30      29       1       1      30      29       1       1      30      29
       1       1      30      29       1       1      30      29       1       1
      30      29       1       1      30      29       1       1      30      29
       1       1      30      29       1       1      30      29       1       1
      30      29       1       1      30      29       1       1      30      29
       1       1      30      29       1       1      30      29       1       1
      30      29       1       1      30      29       1       1      30      29
       1       1      30      29       1       1      30      29       1       1
      30      29       1       1      30      29       1       1      30      29
       1       1      30      29       1       1      30      29       1       1
      30      29       1       1      30      29       1       1      30      29
       1       1      30      29       1       1      30      29       1       1
      30      29       1       1      30      29       1       1      30      29
       1       1      30      29       1       1      30      29       1       1
      30      29       1       1      30      29       1       1      30      29
       1       1      30      29       1       1      30      29       1       1
      30      29       1       1      30      29       1       1      30      29
       1       1      30      29       1       1      30      29       1       1
      30      29       1       1      30      29       1       1      30      29
       1       1      30      29       1       1      30      29       1       1
      30      29       1       1      30      29       1       1      30      29
       1       1      30      29       1       1      30      29       1       1
      30      29       1       1      30      29       1       1      30      29
       1       1      30      29       1       1      30      29       1       1
      30      29       1       1      30      29       1       1      30      29
       1       1      30      29       1       1      30      29       1       1
      30      29       1       1      30      29       1       1      30      29
       1       1      30      29       1       1      30      29       1       1
      30      29       1       1      30      29       1       1      30      29
       1       1      30      29       1       1      30      29       1       1
      30      29       1       1      30      29       1       1      30      29
       1       1      30      29       1       1      30      29       1       1
      30      29       1       1      30      29       1       1      30      29
       1       1      30      29       1       1      30      29       1       1
      30      29       1       1      30      29       1       1      30      29
       1       1      30      29       1       1      30      29       1       1
      30      29       1       1      30      29       1       1      30      29
       1       1      30      29       1       1      30      29       1       1
      30      29       1       1      30      29       1       1      30      29
       1       1      30      29       1       1      30      29       1       1
      30      29       1       1      30      29       1       1      30      29
       1       1      30      29       1       1      30      29       1       1
      30      29       1       1      30      29       1       1      30      29
       1       1      30      29       1       1      30      29       1       1
      30      29       1       1      30      29       1       1      30      29
       1       1      30      29       1       1      30      29       1       1
      30      29       1       1      30      29       1       1      30      29
       1       1      30      29       1       1      30      29       1       1
      30      29       1       1      30      29       1       1      30      29
       1       1      30      29       1       1      30      29       1       1
      30      29       1       1      30      29       1       1      30      29
       1       1      30      29       1       1      30      29       1       1
      30      29       1       1      30      29       1       1      30      29
       1       1      30      29       1       1      30      29       1       1
      30      29       1       1      30      29       1       1      30      29
       1       1      30      29       1       1      30      29       1       1
      30      29       1       1      30      29       1       1      30      29
       1       1      30      29       1       1      30      29       1       1
      30      29       1       1      30      29       1       1      30      29
       1       1      30      29       1       1      30      29       1       1
      30      29       1       1      30      29       1       1      30      29
       1       1      30      29       1       1      30      29       1       1
      30      29       1       1      30      29       1       1      30      29
       1       1      30      29       1       1      30      29       1       1
      30      29       1       1      30      29       1       1      30      29
       1       1      30      29       1       1      30      29       1       1
      30      29       1       1      30      29       1       1      30      29
       1       1      30      29       1       1      30      29       1       1
      30      29       1       1      30      29       1       1      30      29
       1       1      30      29       1       1      30      29       1       1
      30      29       1       1      30      29       1       1      30      29
       1       1      30      29       1       1      30      29       1       1
      30      29       1       1      30      29       1       1      30      29
       1       1      30      29       1       1      30      29       1       1
      30      29       1       1      30      29       1       1      30      29
       1       1      30      29       1       1      30      29       1       1
      30      29       1       1      30      29       1       1      30      29
       1       1      30      29       1       1      30      29       1       1
      30      29       1       1      30      29       1       1      30      29
       1       1      30      29       1       1      30      29       1       1
      30      29       1       1      30      29       1       1      30      29
       1       1      30      29       1       1      30      29       1       1
      30      29       1       1      30      29       1       1      30      29
       1       1      30      29       1       1      30      29       1       1
      30      29       1       1      30      29       1       1      30      29
       1       1      30      29       1       1      30      29       1       1
      30      29       1       1      30      29       1       1      30      29
       1       1      30      29       1       1      30      29       1       1
      30      29       1       1      30      29       1       1      30      29
       1       1      30      29       1       1      30      29       1       1
      30      29       1       1      30      29       1       1      30      29
       1       1      30      29       1       1      30      29       1       1
      30      29       1       1      30      29       1       1      30      29
       1       1      30      29       1       1      30      29       1       1
      30      29       1       1      30      29       1       1      30      29
       1       1      30      29       1       1      30      29       1       1
      30      29       1       1      30      29       1       1      30      29
       1       1      30      29       1       1      30      29       1       1
      30      29       1       1      30      29       1       1      30      29
       1       1      30      29       1       1      30      29       1       1
      30      29       1       1      30      29       1       1      30      29
       1       1      30      29       1       1      30      29       1       1
      30      29       1       1      30      29       1       1      30      29
       1       1      30      29       1       1      30      29       1       1
      30      29       1       1      30      29       1       1      30      29
       1       1      30      29       1       1      30      29       1       1
      30      29       1       1      30      29       1       1      30      29
       1       1      30      29       1       1      30      29       1       1
      30      29       1       1      30      29       1       1      30      29
       1       1      30      29       1       1      30      29       1       1
      30      29       1       1      30      29       1       1      30      29
       1       1      30      29       1       1      30      29       1       1
      30      29       1       1      30      29       1       1      30      29
       1       1      30      29       1       1      30      29       1       1
      30      29       1       1      30      29       1       1      30      29
       1       1      30      29       1       1      30      29       1       1
      30      29       1       1      30      29       1       1      30      29
       1       1      30      29       1       1      30      29       1       1
      30      29       1       1      30      29       1       1      30      29
       1       1      30      29       1       1      30      29       1       1
      30      29       1       1      30      29       1       1      30      29
       1       1      30      29       1       1      30      29       1       1
      30      29       1       1      30      29       1       1      30      29
       1       1      30      29       1       1      30      29       1       1
      30      29       1       1      30      29       1       1      30      29
       1       1      30      29       1       1      30      29       1       1
      30      29       1       1      30      29       1       1      30      29
       1       1      30      29       1       1      30      29       1       1
      30      29       1       1      30      29       1       1      30      29
       1       1      30      29       1       1      30      29       1       1
      30      29       1       1      30      29       1       1      30      29
       1       1      30      29       1       1      30      29       1       1
      30      29       1       1      30      29       1       1      30      29
       1       1      30      29       1       1      30      29       1       1
      30      29       1       1      30      29       1       1      30      29
       1       1      30      29       1       1      30      29       1       1
      30      29       1       1      30      29       1       1      30      29
       1       1      30      29       1       1      30      29       1       1
      30      29       1       1      30      29       1       1      30      29
       1       1      30      29       1       1      30      29       1       1
      30      29       1       1      30      29       1       1      30      29
       1       1      30      29       1       1      30      29       1       1
      30      29       1       1      30      29       1       1      30      29
       1       1      30      29       1       1      30      29       1       1
      30      29       1       1      30      29       1       1      30      29
       1       1      30      29       1       1      30      29       1       1
      30      29       1       1      30      29       1       1      30      29
       1       1      30      29       1       1      30      29       1       1
      30      29       1       1      30      29       1       1      30      29
       1       1      30      29       1       1      30      29       1       1
      30      29       1       1      30      29       1       1      30      29
       1       1      30      29       1       1      30      29       1       1
      30      29       1       1      30      29       1       1      30      29
       1       1      30      29       1       1      30      29       1       1
      30      29       1       1      30      29       1       1      30      29
       1       1      30      29       1       1      30      29       1       1
      30      29       1       1      30      29       1       1      30      29
       1       1      30      29       1       1      30      29       1       1
      30      29       1       1      30      29       1       1      30      29
       1       1      30      29       1       1      30      29       1       1
      30      29       1       1      30      29       1       1      30      29
       1       1      30      29       1       1      30      29       1       1
      30      29       1       1      30      29       1       1      30      29
       1       1      30      29       1       1      30      29       1       1
      30      29       1       1      30      29       1       1      30      29
       1       1      30      29       1       1      30      29       1       1
      30      29       1       1      30      29       1       1      30      29
       1       1      30      29       1       1      30      29       1       1
      30      29       1       1      30      29       1       1      30      29
       1       1      30      29       1       1      30      29       1       1
      30      29       1       1      30      29       1       1      30      29
       1       1      30      29       1       1      30      29       1       1
      30      29       1       1      30      29       1       1      30      29
       1       1      30      29       1       1      30      29       1       1
      30      29       1       1      30      29       1       1      30      29
       1       1      30      29       1       1      30      29       1       1
      30      29       1       1      30      29       1       1      30      29
       1       1      30      29       1       1      30      29       1       1
      30      29       1       1      30      29       1       1      30      29
       1       1      30      29       1       1      30      29       1       1
      30      29       1       1      30      29       1       1      30      29
       1       1      30      29       1       1      30      29       1       1
      30      29       1       1      30      29       1       1      30      29
       1       1      30      29       1       1      30      29       1       1
      30      29       1       1      30      29       1       1      30      29
       1       1      30      29       1       1      30      29       1       1
      30      29       1       1      30      29       1       1      30      29
       1       1      30      29       1       1      30      29       1       1
      30      29       1       1      30      29       1       1      30      29
       1       1      30      29       1       1      30      29       1       1
      30      29       1       1      30      29       1       1      30      29
       1       1      30      29       1       1      30      29       1       1
      30      29       1       1      30      29       1       1      30      29
       1       1      30      29       1       1      30      29       1       1
      30      29       1       1      30      29       1       1      30      29
       1       1      30      29       1       1      30      29       1       1
      30      29       1       1      30      29       1       1      30      29
       1       1      30      29       1       1      30      29       1       1
      30      29       1       1      30      29       1       1      30      29
       1       1      30      29       1       1      30      29       1       1
      30      29       1       1      30      29       1       1      30      29
       1       1      30      29       1       1      30      29       1       1
      30      29       1       1      30      29       1       1      30      29
       1       1      30      29       1       1      30      29       1       1
      30      29       1       1      30      29       1       1      30      29
       1       1      30      29       1       1      30      29       1       1
      30      29       1       1      30      29       1       1      30      29
       1       1      30      29       1       1      30      29       1       1
      30      29       1       1      30      29       1       1      30      29
       1       1      30      29       1       1      30      29       1       1
      30      29       1       1      30      29       1       1      30      29
       1       1      30      29       1       1      30      29       1       1
      30      29       1       1      30      29       1       1      30      29
       1       1      30      29       1       1      30      29       1       1
      30      29       1       1      30      29       1       1      30      29
       1       1      30      29       1       1      30      29       1       1
      30      29       1       1      30      29       1       1      30      29
       1       1      30      29       1       1      30      29       1       1
      30      29       1       1      30      29       1       1      30      29
       1       1      30      29       1       1      30      29       1       1
      30      29       1       1      30      29       1       1      30      29
       1       1      30      29       1       1      30      29       1       1
      30      29       1       1      30      29       1       1      30      29
       1       1      30      29       1       1      30      29       1       1
      30      29       1       1      30      29       1       1      30      29
       1       1      30      29       1       1      30      29       1       1
      30      29       1       1      30      29       1       1      30      29
       1       1      30      29       1       1      30      29       1       1
      30      29       1       1      30      29       1       1      30      29
       1       1      30      29       1       1      30      29       1       1
      30      29       1       1      30      29       1       1      30      29
       1       1      30      29       1       1      30      29       1       1
      30      29       1       1      30      29       1       1      30      29
       1       1      30      29       1       1      30      29       1       1
      30      29       1       1      30      29       1       1      30      29
       1       1      30      29       1       1      30      29       1       1
      30      29       1       1      30      29       1       1      30      29
       1       1      30      29       1       1      30      29       1       1
      30      29       1       1      30      29       1       1      30      29
       1       1      30      29       1       1      30      29       1       1
      30      29       1       1      30      29       1       1      30      29
       1       1      30      29       1       1      30      29       1       1
      30      29       1       1      30      29       1       1      30      29
       1       1      30      29       1       1      30      29       1       1
      30      29       1       1      30      29       1       1      30      29
       1       1      30      29       1       1      30      29       1       1
      30      29       1       1      30      29       1       1      30      29
       1       1      30      29       1       1      30      29       1       1
      30      29       1       1      30      29       1       1      30      29
       1       1      30      29       1       1      30      29       1       1
      30      29       1       1      30      29       1       1      30      29
       1       1      30      29       1       1      30      29       1       1
      30      29       1       1      30      29       1       1      30      29
       1       1      30      29       1       1      30      29       1       1
      30      29       1       1      30      29       1       1      30      29
       1       1      30      29       1       1      30      29       1       1
      30      29       1       1      30      29       1       1      30      29
       1       1      30      29       1       1      30      29       1       1
      30      29       1       1      30      29       1       1      30      29
       1       1      30      29       1       1      30      29       1       1
      30      29       1       1      30      29       1       1      30      29
       1       1      30      29       1       1      30      29       1       1
      30      29       1       1      30      29       1       1      30      29
       1       1      30      29       1       1      30      29       1       1
      30      29       1       1      30      29       1       1      30      29
       1       1      30      29       1       1      30      29       1       1
      30      29       1       1      30      29       1       1      30      29
       1       1      30      29       1       1      30      29       1       1
      30      29       1       1      30      29       1       1      30      29
       1       1      30      29       1       1      30      29       1       1
      30      29       1       1      30      29       1       1      30      29
       1       1      30      29       1       1      30      29       1       1
      30      29       1       1      30      29       1       1      30      29
       1       1      30      29       1       1      30      29       1       1
      30      29       1       1      30      29       1       1      30      29
       1       1      30      29       1       1      30      29       1       1
      30      29       1       1      30      29       1       1      30      29
       1       1      30      29       1       1      30      29       1       1
      30      29       1       1      30      29       1       1      30      29
       1       1      30      29       1       1      30      29       1       1
      30      29       1       1      30      29       1       1      30      29
       1       1      30      29       1       1      30      29       1       1
      30      29       1       1      30      29       1       1      30      29
       1       1      30      29       1       1      30      29       1       1
      30      29       1       1      30      29       1       1      30      29
       1       1      30      29       1       1      30      29       1       1
      30      29       1       1      30      29       1       1      30      29
       1       1      30      29       1       1      30      29       1       1
      30      29       1       1      30      29       1       1      30      29
       1       1      30      29       1       1      30      29       1       1
      30      29       1       1      30      29       1       1      30      29
       1       1      30      29       1       1      30      29       1       1
      30      29       1       1      30      29       1       1      30      29
       1       1      30      29       1       1      30      29       1       1
      30      29       1       1      30      29       1       1      30      29
       1       1      30      29       1       1      30      29       1       1
      30      29       1       1      30      29       1       1      30      29
       1       1      30      29       1       1      30      29       1       1
      30      29       1       1      30      29       1       1      30      29
       1       1      30      29       1       1      30      29       1       1
      30      29       1       1      30      29       1       1      30      29
       1       1      30      29       1       1      30      29       1       1
      30      29       1       1      30      29       1       1      30      29
       1       1      30      29       1       1      30      29       1       1
      30      29       1       1      30      29       1       1      30      29
       1       1      30      29       1       1      30      29       1       1
      30      29       1       1      30      29       1       1      30      29
       1       1      30      29       1       1      30      29       1       1
      30      29       1       1      30      29       1       1      30      29
       1       1      30      29       1       1      30      29       1       1
      30      29       1       1      30      29       1       1      30      29
       1       1      30      29       1       1      30      29       1       1
      30      29       1       1      30      29       1       1      30      29
       1       1      30      29       1       1      30      29       1       1
      30      29       1       1      30      29       1       1      30      29
       1       1      30      29       1       1      30      29       1       1
      30      29       1       1      30      29       1       1      30      29
       1       1      30      29       1       1      30      29       1       1
      30      29       1       1      30      29       1       1      30      29
       1       1      30      29       1       1      30      29       1       1
      30      29       1       1      30      29       1       1      30      29
       1       1      30      29       1       1      30      29       1       1
      30      29       1       1      30      29       1       1      30      29
       1       1      30      29       1       1      30      29       1       1
      30      29       1       1      30      29       1       1      30      29
       1       1      30      29       1       1      30      29       1       1
      30      29       1       1      30      29       1       1      30      29
       1       1      30      29       1       1      30      29       1       1
      30      29       1       1      30      29       1       1      30      29
       1       1      30      29       1       1      30      29       1       1
      30      29       1       1      30      29       1       1      30      29
       1       1      30      29       1       1      30      29       1       1
      30      29       1       1      30      29       1       1      30      29
       1       1      30      29       1       1      30      29       1       1
      30      29       1       1      30      29       1       1      30      29
       1       1      30      29       1       1      30      29       1       1
      30      29       1       1      30      29       1       1      30      29
       1       1      30      29       1       1      30      29       1       1
      30      29       1       1      30      29       1       1      30      29
       1       1      30      29       1       1      30      29       1       1
      30      29       1       1      30      29       1       1      30      29
       1       1      30      29       1       1      30      29       1       1
      30      29       1       1      30      29       1       1      30      29
       1       1      30      29       1       1      30      29       1       1
      30      29       1       1      30      29       1       1      30      29
       1       1      30      29       1       1      30      29       1       1
      30      29       1       1      30      29       1       1      30      29
       1       1      30      29       1       1      30      29       1       1
      30      29       1       1      30      29       1       1      30      29
       1       1      30      29       1       1      30      29       1       1
      30      29       1       1      30      29       1       1      30      29
       1       1      30      29       1       1      30      29       1       1
      30      29       1       1      30      29       1       1      30      29
       1       1      30      29       1       1      30      29       1       1
      30      29       1       1      30      29       1       1      30      29
       1       1      30      29       1       1      30      29       1       1
      30      29       1       1      30      29       1       1      30      29
       1       1      30      29       1       1      30      29       1       1
      30      29       1       1      30      29       1       1      30      29
       1       1      30      29       1       1      30      29       1       1
      30      29       1       1      30      29       1       1      30      29
       1       1      30      29       1       1      30      29       1       1
      30      29       1       1      30      29       1       1      30      29
       1       1      30      29       1       1      30      29       1       1
      30      29       1       1      30      29       1       1      30      29
       1       1      30      29       1       1      30      29       1       1
      30      29       1       1      30      29       1       1      30      29
       1       1      30      29       1       1      30      29       1       1
      30      29       1       1      30      29       1       1      30      29
       1       1      30      29       1       1      30      29       1       1
      30      29       1       1      30      29       1       1      30      29
       1       1      30      29       1       1      30      29       1       1
      30      29       1       1      30      29       1       1      30      29
       1       1      30      29       1       1      30      29       1       1
      30      29       1       1      30      29       1       1      30      29
       1       1      30      29       1       1      30      29       1       1
      30      29       1       1      30      29       1       1      30      29
       1       1      30      29       1       1      30      29       1       1
      30      29       1       1      30      29       1       1      30      29
       1       1      30      29       1       1      30      29       1       1
      30      29       1       1      30      29       1       1      30      29
       1       1      30      29       1       1      30      29       1       1
      30      29       1       1      30      29       1       1      30      29
       1       1      30      29       1       1      30      29       1       1
      30      29       1       1      30      29       1       1      30      29
       1       1      30      29       1       1      30      29       1       1
      30      29       1       1      30      29       1       1      30      29
       1       1      30      29       1       1      30      29       1       1
      30      29       1       1      30      29       1       1      30      29
       1       1      30      29       1       1      30      29       1       1
      30      29       1       1      30      29       1       1      30      29
       1       1      30      29       1       1      30      29       1       1
      30      29       1       1      30      29       1       1      30      29
       1       1      30      29       1       1      30      29       1       1
      30      29       1       1      30      29       1       1      30      29
       1       1      30      29       1       1      30      29       1       1
      30      29       1       1      30      29       1       1      30      29
       1       1      30      29       1       1      30      29       1       1
      30      29       1       1      30      29       1       1      30      29
       1       1      30      29       1       1      30      29       1       1
      30      29       1       1      30      29       1       1      30      29
       1       1      30      29       1       1      30      29       1       1
      30      29       1       1      30      29       1       1      30      29
       1       1      30      29       1       1      30      29       1       1
      30      29       1       1      30      29       1       1      30      29
       1       1      30      29       1       1      30      29       1       1
      30      29       1       1      30      29       1       1      30      29
       1       1      30      29       1       1      30      29       1       1
      30      29       1       1      30      29       1       1      30      29
       1       1      30      29       1       1      30      29       1       1
      30      29       1       1      30      29       1       1      30      29
       1       1      30      29       1       1      30      29       1       1
      30      29       1       1      30      29       1       1      30      29
       1       1      30      29       1       1      30      29       1       1
      30      29       1       1      30      29       1       1      30      29
       1       1      30      29       1       1      30      29       1       1
      30      29       1       1      30      29       1       1      30      29
       1       1      30      29       1       1      30      29       1       1
      30      29       1       1      30      29       1       1      30      29
       1       1      30      29       1       1      30      29       1       1
      30      29       1       1      30      29       1       1      30      29
       1       1      30      29       1       1      30      29       1       1
      30      29       1       1      30      29       1       1      30      29
       1       1      30      29       1       1      30      29       1       1
      30      29       1       1      30      29       1       1      30      29
       1       1      30      29       1       1      30      29       1       1
      30      29       1       1      30      29       1       1      30      29
       1       1      30      29       1       1      30      29       1       1
      30      29       1       1      30      29       1       1      30      29
       1       1      30      29       1       1      30      29       1       1
      30      29       1       1      30      29       1       1      30      29
       1       1      30      29       1       1      30      29       1       1
      30      29       1       1      30      29       1       1      30      29
       1       1      30      29       1       1      30      29       1       1
      30      29       1       1      30      29       1       1      30      29
       1       1      30      29       1       1      30      29       1       1
      30      29       1       1      30      29       1       1      30      29
       1       1      30      29       1       1      30      29       1       1
      30      29       1       1      30      29       1       1      30      29
       1       1      30      29       1       1      30      29       1       1
      30      29       1       1      30      29       1       1      30      29
       1       1      30      29       1       1      30      29       1       1
      30      29       1       1      30      29       1       1      30      29
       1       1      30      29       1       1      30      29       1       1
      30      29       1       1      30      29       1       1      30      29
       1       1      30      29       1       1      30      29       1       1
      30      29       1       1      30      29       1       1      30      29
       1       1      30      29       1       1      30      29       1       1
      30      29       1       1      30      29       1       1      30      29
       1       1      30      29       1       1      30      29       1       1
      30      29       1       1      30      29       1       1      30      29
       1       1      30      29       1       1      30      29       1       1
      30      29       1       1      30      29       1       1      30      29
       1       1      30      29       1       1      30      29       1       1
      30      29       1       1      30      29       1       1      30      29
       1       1      30      29       1       1      30      29       1       1
      30      29       1       1      30      29       1       1      30      29
       1       1      30      29       1       1      30      29       1       1
      30      29       1       1      30      29       1       1      30      29
       1       1      30      29       1       1      30      29       1       1
      30      29       1       1      30      29       1       1      30      29
       1       1      30      29       1       1      30      29       1       1
      30      29       1       1      30      29       1       1      30      29
       1       1      30      29       1       1      30      29       1       1
      30      29       1       1      30      29       1       1      30      29
       1       1      30      29       1       1      30      29       1       1
      30      29       1       1      30      29       1       1      30      29
       1       1      30      29       1       1      30      29       1       1
      30      29       1       1      30      29       1       1      30      29
       1       1      30      29       1       1      30      29       1       1
      30      29       1       1      30      29       1       1      30      29
       1       1      30      29       1       1      30      29       1       1
      30      29       1       1      30      29       1       1      30      29
       1       1      30      29       1       1      30      29       1       1
      30      29       1       1      30      29       1       1      30      29
       1       1      30      29       1       1      30      29       1       1
      30      29       1       1      30      29       1       1      30      29
       1       1      30      29       1       1      30      29       1       1
      30      29       1       1      30      29       1       1      30      29
       1       1      30      29       1       1      30      29       1       1
      30      29       1       1      30      29       1       1      30      29
       1       1      30      29       1       1      30      29       1       1
      30      29       1       1      30      29       1       1      30      29
       1       1      30      29       1       1      30      29       1       1
      30      29       1       1      30      29       1       1      30      29
       1       1      30      29       1       1      30      29       1       1
      30      29       1       1      30      29       1       1      30      29
       1       1      30      29       1       1      30      29       1       1
      30      29       1       1      30      29       1       1      30      29
       1       1      30      29       1       1      30      29       1       1
      30      29       1       1      30      29       1       1      30      29
       1       1      30      29       1       1      30      29       1       1
      30      29       1       1      30      29       1       1      30      29
       1       1      30      29       1       1      30      29       1       1
      30      29       1       1      30      29       1       1      30      29
       1       1      30      29       1       1      30      29       1       1
      30      29       1       1      30      29       1       1      30      29
       1       1      30      29       1       1      30      29       1       1
      30      29       1       1      30      29       1       1      30      29
       1       1      30      29       1       1      30      29       1       1
      30      29       1       1      30      29       1       1      30      29
       1       1      30      29       1       1      30      29       1       1
      30      29       1       1      30      29       1       1      30      29
       1       1      30      29       1       1      30      29       1       1
      30      29       1       1      30      29       1       1      30      29
       1       1      30      29       1       1      30      29       1       1
      30      29       1       1      30      29       1       1      30      29
       1       1      30      29       1       1      30      29       1       1
      30      29       1       1      30      29       1       1      30      29
       1       1      30      29       1       1      30      29       1       1
      30      29       1       1      30      29       1       1      30      29
       1       1      30      29       1       1      30      29       1       1
      30      29       1       1      30      29       1       1      30      29
       1       1      30      29       1       1      30      29       1       1
      30      29       1       1      30      29       1       1      30      29
       1       1      30      29       1       1      30      29       1       1
      30      29       1       1      30      29       1       1      30      29
       1       1      30      29       1       1      30      29       1       1
      30      29       1       1      30      29       1       1      30      29
       1       1      30      29       1       1      30      29       1       1
      30      29       1       1      30      29       1       1      30      29
       1       1      30      29       1       1      30      29       1       1
      30      29       1       1      30      29       1       1      30      29
       1       1      30      29       1       1      30      29       1       1
      30      29       1       1      30      29       1       1      30      29
       1       1      30      29       1       1      30      29       1       1
      30      29       1       1      30      29       1       1      30      29
       1       1      30      29       1       1      30      29       1       1
      30      29       1       1      30      29       1       1      30      29
       1       1      30      29       1       1      30      29       1       1
      30      29       1       1      30      29       1       1      30      29
       1       1      30      29       1       1      30      29       1       1
      30      29       1       1      30      29       1       1      30      29
       1       1      30      29       1       1      30      29       1       1
      30      29       1       1      30      29       1       1      30      29
       1       1      30      29       1       1      30      29       1       1
      30      29       1       1      30      29       1       1      30      29
       1       1      30      29       1       1      30      29       1       1
      30      29       1       1      30      29       1       1      30      29
       1       1      30      29       1       1      30      29       1       1
      30      29       1       1      30      29       1       1      30      29
       1       1      30      29       1       1      30      29       1       1
      30      29       1       1      30      29       1       1      30      29
       1       1      30      29       1       1      30      29       1       1
      30      29       1       1      30      29       1       1      30      29
       1       1      30      29       1       1      30      29       1       1
      30      29       1       1      30      29       1       1      30      29
       1       1      30      29       1       1      30      29       1       1
      30      29       1       1      30      29       1       1      30      29
       1       1      30      29       1       1      30      29       1       1
      30      29       1       1      30      29       1       1      30      29
       1       1      30      29       1       1      30      29       1       1
      30      29       1       1      30      29       1       1      30      29
       1       1      30      29       1       1      30      29       1       1
      30      29       1       1      30      29       1       1      30      29
       1       1      30      29       1       1      30      29       1       1
      30      29       1       1      30      29       1       1      30      29
       1       1      30      29       1       1      30      29       1       1
      30      29       1       1      30      29       1       1      30      29
       1       1      30      29       1       1      30      29       1       1
      30      29       1       1      30      29       1       1      30      29
       1       1      30      29       1       1      30      29       1       1
      30      29       1       1      30      29       1       1      30      29
       1       1      30      29       1       1      30      29       1       1
      30      29       1       1      30      29       1       1      30      29
       1       1      30      29       1       1      30      29       1       1
      30      29       1       1      30      29       1       1      30      29
       1       1      30      29       1       1      30      29       1       1
      30      29       1       1      30      29       1       1      30      29
       1       1      30      29       1       1      30      29       1       1
      30      29       1       1      30      29       1       1      30      29
       1       1      30      29       1       1      30      29       1       1
      30      29       1       1      30      29       1       1      30      29
       1       1      30      29       1       1      30      29       1       1
      30      29       1       1      30      29       1       1      30      29
       1       1      30      29       1       1      30      29       1       1
      30      29       1       1      30      29       1       1      30      29
       1       1      30      29       1       1      30      29       1       1
      30      29       1       1      30      29       1       1      30      29
       1       1      30      29       1       1      30      29       1       1
      30      29       1       1      30      29       1       1      30      29
       1       1      30      29       1       1      30      29       1       1
      30      29       1       1      30      29       1       1      30      29
       1       1      30      29       1       1      30      29       1       1
      30      29       1       1      30      29       1       1      30      29
       1       1      30      29       1       1      30      29       1       1
      30      29       1       1      30      29       1       1      30      29
       1       1      30      29       1       1      30      29       1       1
      30      29       1       1      30      29       1       1      30      29
       1       1      30      29       1       1      30      29       1       1
      30      29       1       1      30      29       1       1      30      29
       1       1      30      29       1       1      30      29       1       1
      30      29       1       1      30      29       1       1      30      29
       1       1      30      29       1       1      30      29       1       1
      30      29       1       1      30      29       1       1      30      29
       1       1      30      29       1       1      30      29       1       1
      30      29       1       1      30      29       1       1      30      29
       1       1      30      29       1       1      30      29       1       1
      30      29       1       1      30      29       1       1      30      29
       1       1      30      29       1       1      30      29       1       1
      30      29       1       1      30      29       1       1      30      29
       1       1      30      29       1       1      30      29       1       1
      30      29       1       1      30      29       1       1      30      29
       1       1      30      29       1       1      30      29       1       1
      30      29       1       1      30      29       1       1      30      29
       1       1      30      29       1       1      30      29       1       1
      30      29       1       1      30      29       1       1      30      29
       1       1      30      29       1       1      30      29       1       1
      30      29       1       1      30      29       1       1      30      29
       1       1      30      29       1       1      30      29       1       1
      30      29       1       1      30      29       1       1      30      29
       1       1      30      29       1       1      30      29       1       1
      30      29       1       1      30      29       1       1      30      29
       1       1      30      29       1       1      30      29       1       1
      30      29       1       1      30      29       1       1      30      29
       1       1      30      29       1       1      30      29       1       1
      30      29       1       1      30      29       1       1      30      29
       1       1      30      29       1       1      30      29       1       1
      30      29       1       1      30      29       1       1      30      29
       1       1      30      29       1       1      30      29       1       1
      30      29       1       1      30      29       1       1      30      29
       1       1      30      29       1       1      30      29       1       1
      30      29       1       1      30      29       1       1      30      29
       1       1      30      29       1       1      30      29       1       1
      30      29       1       1      30      29       1       1      30      29
       1       1      30      29       1       1      30      29       1       1
      30      29       1       1      30      29       1       1      30      29
       1       1      30      29       1       1      30      29       1       1
      30      29       1       1      30      29       1       1      30      29
       1       1      30      29       1       1      30      29       1       1
      30      29       1       1      30      29       1       1      30      29
       1       1      30      29       1       1      30      29       1       1
      30      29       1       1      30      29       1       1      30      29
       1       1      30      29       1       1      30      29       1       1
      30      29       1       1      30      29       1       1      30      29
       1       1      30      29       1       1      30      29       1       1
      30      29       1       1      30      29       1       1      30      29
       1       1      30      29       1       1      30      29       1       1
      30      29       1       1      30      29       1       1      30      29
       1       1      30      29       1       1      30      29       1       1
      30      29       1       1      30      29       1       1      30      29
       1       1      30      29       1       1      30      29       1       1
      30      29       1       1      30      29       1       1      30      29
       1       1      30      29       1       1      30      29       1       1
      30      29       1       1      30      29       1       1      30      29
       1       1      30      29       1       1      30      29       1       1
      30      29       1       1      30      29       1       1      30      29
       1       1      30      29       1       1      30      29       1       1
      30      29       1       1      30      29       1       1      30      29
       1       1      30      29       1       1      30      29       1       1
      30      29       1       1      30      29       1       1      30      29
       1       1      30      29       1       1      30      29       1       1
      30      29       1       1      30      29       1       1      30      29
       1       1      30      29       1       1      30      29       1       1
      30      29       1       1      30      29       1       1      30      29
       1       1      30      29       1       1      30      29       1       1
      30      29       1       1      30      29       1       1      30      29
       1       1      30      29       1       1      30      29       1       1
      30      29       1       1      30      29       1       1      30      29
       1       1      30      29       1       1      30      29       1       1
      30      29       1       1      30      29       1       1      30      29
       1       1      30      29       1       1      30      29       1       1
      30      29       1       1      30      29       1       1      30      29
       1       1      30      29       1       1      30      29       1       1
      30      29       1       1      30      29       1       1      30      29
       1       1      30      29       1       1      30      29       1       1
      30      29       1       1      30      29       1       1      30      29
       1       1      30      29       1       1      30      29       1       1
      30      29       1       1      30      29       1       1      30      29
       1       1      30      29       1       1      30      29       1       1
      30      29       1       1      30      29       1       1      30      29
       1       1      30      29       1       1      30      29       1       1
      30      29       1       1      30      29       1       1      30      29
       1       1      30      29       1       1      30      29       1       1
      30      29       1       1      30      29       1       1      30      29
       1       1      30      29       1       1      30      29       1       1
      30      29       1       1      30      29       1       1      30      29
       1       1      30      29       1       1      30      29       1       1
      30      29       1       1      30      29       1       1      30      29
       1       1      30      29       1       1      30      29       1       1
      30      29       1       1      30      29       1       1      30      29
       1       1      30      29       1       1      30      29       1       1
      30      29       1       1      30      29       1       1      30      29
       1       1      30      29       1       1      30      29       1       1
      30      29       1       1      30      29       1       1      30      29
       1       1      30      29       1       1      30      29       1       1
      30      29       1       1      30      29       1       1      30      29
       1       1      30      29       1       1      30      29       1       1
      30      29       1       1      30      29       1       1      30      29
       1       1      30      29       1       1      30      29       1       1
      30      29       1       1      30      29       1       1      30      29
       1       1      30      29       1       1      30      29       1       1
      30      29       1       1      30      29       1       1      30      29
       1       1      30      29       1       1      30      29       1       1
      30      29       1       1      30      29       1       1      30      29
       1       1      30      29       1       1      30      29       1       1
      30      29       1       1      30      29       1       1      30      29
       1       1      30      29       1       1      30      29       1       1
      30      29       1       1      30      29       1       1      30      29
       1       1      30      29       1       1      30      29       1       1
      30      29       1       1      30      29       1       1      30      29
       1       1      30      29       1       1      30      29       1       1
      30      29       1       1      30      29       1       1      30      29
       1       1      30      29       1       1      30      29       1       1
      30      29       1       1      30      29       1       1      30      29
       1       1      30      29       1       1      30      29       1       1
      30      29       1       1      30      29       1       1      30      29
       1       1      30      29       1       1      30      29       1       1
      30      29       1       1      30      29       1       1      30      29
       1       1      30      29       1       1      30      29       1       1
      30      29       1       1      30      29       1       1      30      29
       1       1      30      29       1       1      30      29       1       1
      30      29       1       1      30      29       1       1      30      29
       1       1      30      29       1       1      30      29       1       1
      30      29       1       1      30      29       1       1      30      29
       1       1      30      29       1       1      30      29       1       1
      30      29       1       1      30      29       1       1      30      29
       1       1      30      29       1       1      30      29       1       1
      30      29       1       1      30      29       1       1      30      29
       1       1      30      29       1       1      30      29       1       1
      30      29       1       1      30      29       1       1      30      29
       1       1      30      29       1       1      30      29       1       1
      30      29       1       1      30      29       1       1      30      29
       1       1      30      29       1       1      30      29       1       1
      30      29       1       1      30      29       1       1      30      29
       1       1      30      29       1       1      30      29       1       1
      30      29       1       1      30      29       1       1      30      29
       1       1      30      29       1       1      30      29       1       1
      30      29       1       1      30      29       1       1      30      29
       1       1      30      29       1       1      30      29       1       1
      30      29       1       1      30      29       1       1      30      29
       1       1      30      29       1       1      30      29       1       1
      30      29       1       1      30      29       1       1      30      29
       1       1      30      29       1       1      30      29       1       1
      30      29       1       1      30      29       1       1      30      29
       1       1      30      29       1       1      30      29       1       1
      30      29       1       1      30      29       1       1      30      29
       1       1      30      29       1       1      30      29       1       1
      30      29       1       1      30      29       1       1      30      29
       1       1      30      29       1       1      30      29       1       1
      30      29       1       1      30      29       1       1      30      29
       1       1      30      29       1       1      30      29       1       1
      30      29       1       1      30      29       1       1      30      29
       1       1      30      29       1       1      30      29       1       1
      30      29       1       1      30      29       1       1      30      29
       1       1      30      29       1       1      30      29       1       1
      30      29       1       1      30      29       1       1      30      29
       1       1      30      29       1       1      30      29       1       1
      30      29       1       1      30      29       1       1      30      29
       1       1      30      29       1       1      30      29       1       1
      30      29       1       1      30      29       1       1      30      29
       1       1      30      29       1       1      30      29       1       1
      30      29       1       1      30      29       1       1      30      29
       1       1      30      29       1       1      30      29       1       1
      30      29       1       1      30      29       1       1      30      29
       1       1      30      29       1       1      30      29       1       1
      30      29       1       1      30      29       1       1      30      29
       1       1      30      29       1       1      30      29       1       1
      30      29       1       1      30      29       1       1      30      29
       1       1      30      29       1       1      30      29       1       1
      30      29       1       1      30      29       1       1      30      29
       1       1      30      29       1       1      30      29       1       1
      30      29       1       1      30      29       1       1      30      29
       1       1      30      29       1       1      30      29       1       1
      30      29       1       1      30      29       1       1      30      29
       1       1      30      29       1       1      30      29       1       1
      30      29       1       1      30      29       1       1      30      29
       1       1      30      29       1       1      30      29       1       1
      30      29       1       1      30      29       1       1      30      29
       1       1      30      29       1       1      30      29       1       1
      30      29       1       1      30      29       1       1      30      29
       1       1      30      29       1       1      30      29       1       1
      30      29       1       1      30      29       1       1      30      29
       1       1      30      29       1       1      30      29       1       1
      30      29       1       1      30      29       1       1      30      29
       1       1      30      29       1       1      30      29       1       1
      30      29       1       1      30      29       1       1      30      29
       1       1      30      29       1       1      30      29       1       1
      30      29       1       1      30      29       1       1      30      29
       1       1      30      29       1       1      30      29       1       1
      30      29       1       1      30      29       1       1      30      29
       1       1      30      29       1       1      30      29       1       1
      30      29       1       1      30      29       1       1      30      29
       1       1      30      29       1       1      30      29       1       1
      30      29       1       1      30      29       1       1      30      29
       1       1      30      29       1       1      30      29       1       1
      30      29       1       1      30      29       1       1      30      29
       1       1      30      29       1       1      30      29       1       1
      30      29       1       1      30      29       1       1      30      29
       1       1      30      29       1       1      30      29       1       1
      30      29       1       1      30      29       1       1      30      29
       1       1      30      29       1       1      30      29       1       1
      30      29       1       1      30      29       1       1      30      29
       1       1      30      29       1       1      30      29       1       1
      30      29       1       1      30      29       1       1      30      29
       1       1      30      29       1       1      30      29       1       1
      30      29       1       1      30      29       1       1      30      29
       1       1      30      29       1       1      30      29       1       1
      30      29       1       1      30      29       1       1      30      29
       1       1      30      29       1       1      30      29       1       1
      30      29       1       1      30      29       1       1      30      29
       1       1      30      29       1       1      30      29       1       1
      30      29       1       1      30      29       1       1      30      29
       1       1      30      29       1       1      30      29       1       1
      30      29       1       1      30      29       1       1      30      29
       1       1      30      29       1       1      30      29       1       1
      30      29       1       1      30      29       1       1      30      29
       1       1      30      29       1       1      30      29       1       1
      30      29       1       1      30      29       1       1      30      29
       1       1      30      29       1       1      30      29       1       1
      30      29       1       1      30      29       1       1      30      29
       1       1      30      29       1       1      30      29       1       1
      30      29       1       1      30      29       1       1      30      29
       1       1      30      29       1       1      30      29       1       1
      30      29       1       1      30      29       1       1      30      29
       1       1      30      29       1       1      30      29       1       1
      30      29       1       1      30      29       1       1      30      29
       1       1      30      29       1       1      30      29       1       1
      30      29       1       1      30      29       1       1      30      29
       1       1      30      29       1       1      30      29       1       1
      30      29       1       1      30      29       1       1      30      29
       1       1      30      29       1       1      30      29       1       1
      30      29       1       1      30      29       1       1      30      29
       1       1      30      29       1       1      30      29       1       1
      30      29       1       1      30      29       1       1      30      29
       1       1      30      29       1       1      30      29       1       1
      30      29       1       1      30      29       1       1      30      29
       1       1      30      29       1       1      30      29       1       1
      30      29       1       1      30      29       1       1      30      29
       1       1      30      29       1       1      30      29       1       1
      30      29       1       1      30      29       1       1      30      29
       1       1      30      29       1       1      30      29       1       1
      30      29       1       1      30      29       1       1      30      29
       1       1      30      29       1       1      30      29       1       1
      30      29       1       1      30      29       1       1      30      29
       1       1      30      29       1       1      30      29       1       1
      30      29       1       1      30      29       1       1      30      29
       1       1      30      29       1       1      30      29       1       1
      30      29       1       1      30      29       1       1      30      29
       1       1      30      29       1       1      30      29       1       1
      30      29       1       1      30      29       1       1      30      29
       1       1      30      29       1       1      30      29       1       1
      30      29       1       1      30      29       1       1      30      29
       1       1      30      29       1       1      30      29       1       1
      30      29       1       1      30      29       1       1      30      29
       1       1      30      29       1       1      30      29       1       1
      30      29       1       1      30      29       1       1      30      29
       1       1      30      29       1       1      30      29       1       1
      30      29       1       1      30      29       1       1      30      29
       1       1      30      29       1       1      30      29       1       1
      30      29       1       1      30      29       1       1      30      29
       1       1      30      29       1       1      30      29       1       1
      30      29       1       1      30      29       1       1      30      29
       1       1      30      29       1       1      30      29       1       1
      30      29       1       1      30      29       1       1      30      29
       1       1      30      29       1       1      30      29       1       1
      30      29       1       1      30      29       1       1      30      29
       1       1      30      29       1       1      30      29       1       1
      30      29       1       1      30      29       1       1      30      29
       1       1      30      29       1       1      30      29       1       1
      30      29       1       1      30      29       1       1      30      29
       1       1      30      29       1       1      30      29       1       1
      30      29       1       1      30      29       1       1      30      29
       1       1      30      29       1       1      30      29       1       1
      30      29       1       1      30      29       1       1      30      29
       1       1      30      29       1       1      30      29       1       1
      30      29       1       1      30      29       1       1      30      29
       1       1      30      29       1       1      30      29       1       1
      30      29       1       1      30      29       1       1      30      29
       1       1      30      29       1       1      30      29       1       1
      30      29       1       1      30      29       1       1      30      29
       1       1      30      29       1       1      30      29       1       1
      30      29       1       1      30      29       1       1      30      29
       1       1      30      29       1       1      30      29       1       1
      30      29       1       1      30      29       1       1      30      29
       1       1      30      29       1       1      30      29       1       1
      30      29       1       1      30      29       1       1      30      29
       1       1      30      29       1       1      30      29       1       1
      30      29       1       1      30      29       1       1      30      29
       1       1      30      29       1       1      30      29       1       1
      30      29       1       1      30      29       1       1      30      29
       1       1      30      29       1       1      30      29       1       1
      30      29       1       1      30      29       1       1      30      29
       1       1      30      29       1       1      30      29       1       1
      30      29       1       1      30      29       1       1      30      29
       1       1      30      29       1       1      30      29       1       1
      30      29       1       1      30      29       1       1      30      29
       1       1      30      29       1       1      30      29       1       1
      30      29       1       1      30      29       1       1      30      29
       1       1      30      29       1       1      30      29       1       1
      30      29       1       1      30      29       1       1      30      29
       1       1      30      29       1       1      30      29       1       1
      30      29       1       1      30      29       1       1      30      29
       1       1      30      29       1       1      30      29       1       1
      30      29       1       1      30      29       1       1      30      29
       1       1      30      29       1       1      30      29       1       1
      30      29       1       1      30      29       1       1      30      29
       1       1      30      29       1       1      30      29       1       1
      30      29       1       1      30      29       1       1      30      29
       1       1      30      29       1       1      30      29       1       1
      30      29       1       1      30      29       1       1      30      29
       1       1      30      29       1       1      30      29       1       1
      30      29       1       1      30      29       1       1      30      29
       1       1      30      29       1       1      30      29       1       1
      30      29       1       1      30      29       1       1      30      29
       1       1      30      29       1       1      30      29       1       1
      30      29       1       1      30      29       1       1      30      29
       1       1      30      29       1       1      30      29       1       1
      30      29       1       1      30      29       1       1      30      29
       1       1      30      29       1       1      30      29       1       1
      30      29       1       1      30      29       1       1      30      29
       1       1      30      29       1       1      30      29       1       1
      30      29       1       1      30      29       1       1      30      29
       1       1      30      29       1       1      30      29       1       1
      30      29       1       1      30      29       1       1      30      29
       1       1      30      29       1       1      30      29       1       1
      30      29       1       1      30      29       1       1      30      29
       1       1      30      29       1       1      30      29       1       1
      30      29       1       1      30      29       1       1      30      29
       1       1      30      29       1       1      30      29       1       1
      30      29       1       1      30      29       1       1      30      29
       1       1      30      29       1       1      30      29       1       1
      30      29       1       1      30      29       1       1      30      29
       1       1      30      29       1       1      30      29       1       1
      30      29       1       1      30      29       1       1      30      29
       1       1      30      29       1       1      30      29       1       1
      30      29       1       1      30      29       1       1      30      29
       1       1      30      29       1       1      30      29       1       1
      30      29       1       1      30      29       1       1      30      29
       1       1      30      29       1       1      30      29       1       1
      30      29       1       1      30      29       1       1      30      29
       1       1      30      29       1       1      30      29       1       1
      30      29       1       1      30      29       1       1      30      29
       1       1      30      29       1       1      30      29       1       1
      30      29       1       1      30      29       1       1      30      29
       1       1      30      29       1       1      30      29       1       1
      30      29       1       1      30      29       1       1      30      29
       1       1      30      29       1       1      30      29       1       1
      30      29       1       1      30      29       1       1      30      29
       1       1      30      29       1       1      30      29       1       1
      30      29       1       1      30      29       1       1      30      29
       1       1      30      29       1       1      30      29       1       1
      30      29       1       1      30      29       1       1      30      29
       1       1      30      29       1       1      30      29       1       1
      30      29       1       1      30      29       1       1      30      29
       1       1      30      29       1       1      30      29       1       1
      30      29       1       1      30      29       1       1      30      29
       1       1      30      29       1       1      30      29       1       1
      30      29       1       1      30      29       1       1      30      29
       1       1      30      29       1       1      30      29       1       1
      30      29       1       1      30      29       1       1      30      29
       1       1      30      29       1       1      30      29       1       1
      30      29       1       1      30      29       1       1      30      29
       1       1      30      29       1       1      30      29       1       1
      30      29       1       1      30      29       1       1      30      29
       1       1      30      29       1       1      30      29       1       1
      30      29       1       1      30      29       1       1      30      29
       1       1      30      29       1       1      30      29       1       1
      30      29       1       1      30      29       1       1      30      29
       1       1      30      29       1       1      30      29       1       1
      30      29       1       1      30      29       1       1      30      29
       1       1      30      29       1       1      30      29       1       1
      30      29       1       1      30      29       1       1      30      29
       1       1      30      29       1       1      30      29       1       1
      30      29       1       1      30      29       1       1      30      29
       1       1      30      29       1       1      30      29       1       1
      30      29       1       1      30      29       1       1      30      29
       1       1      30      29       1       1      30      29       1       1
      30      29       1       1      30      29       1       1      30      29
       1       1      30      29       1       1      30      29       1       1
      30      29       1       1      30      29       1       1      30      29
       1       1      30      29       1       1      30      29       1       1
      30      29       1       1      30      29       1       1      30      29
       1       1      30      29       1       1      30      29       1       1
      30      29       1       1      30      29       1       1      30      29
       1       1      30      29       1       1      30      29       1       1
      30      29       1       1      30      29       1       1      30      29
       1       1      30      29       1       1      30      29       1       1
      30      29       1       1      30      29       1       1      30      29
       1       1      30      29       1       1      30      29       1       1
      30      29       1       1      30      29       1       1      30      29
       1       1      30      29       1       1      30      29       1       1
      30      29       1       1      30      29       1       1      30      29
       1       1      30      29       1       1      30      29       1       1
      30      29       1       1      30      29       1       1      30      29
       1       1      30      29       1       1      30      29       1       1
      30      29       1       1      30      29       1       1      30      29
       1       1      30      29       1       1      30      29       1       1
      30      29       1       1      30      29       1       1      30      29
       1       1      30      29       1       1      30      29       1       1
      30      29       1       1      30      29       1       1      30      29
       1       1      30      29       1       1      30      29       1       1
      30      29       1       1      30      29       1       1      30      29
       1       1      30      29       1       1      30      29       1       1
      30      29       1       1      30      29       1       1      30      29
       1       1      30      29       1       1      30      29       1       1
      30      29       1       1      30      29       1       1      30      29
       1       1      30      29       1       1      30      29       1       1
      30      29       1       1      30      29       1       1      30      29
       1       1      30      29       1       1      30      29       1       1
      30      29       1       1      30      29       1       1      30      29
       1       1      30      29       1       1      30      29       1       1
      30      29       1       1      30      29       1       1      30      29
       1       1      30      29       1       1      30      29       1       1
      30      29       1       1      30      29       1       1      30      29
       1       1      30      29       1       1      30      29       1       1
      30      29       1       1      30      29       1       1      30      29
       1       1      30      29       1       1      30      29       1       1
      30      29       1       1      30      29       1       1      30      29
       1       1      30      29       1       1      30      29       1       1
      30      29       1       1      30      29       1       1      30      29
       1       1      30      29       1       1      30      29       1       1
      30      29       1       1      30      29       1       1      30      29
       1       1      30      29       1       1      30      29       1       1
      30      29       1       1      30      29       1       1      30      29
       1       1      30      29       1       1      30      29       1       1
      30      29       1       1      30      29       1       1      30      29
       1       1      30      29       1       1      30      29       1       1
      30      29       1       1      30      29       1       1      30      29
       1       1      30      29       1       1      30      29       1       1
      30      29       1       1      30      29       1       1      30      29
       1       1      30      29       1       1      30      29       1       1
      30      29       1       1      30      29       1       1      30      29
       1       1      30      29       1       1      30      29       1       1
      30      29       1       1      30      29       1       1      30      29
       1       1      30      29       1       1      30      29       1       1
      30      29       1       1      30      29       1       1      30      29
       1       1      30      29       1       1      30      29       1       1
      30      29       1       1      30      29       1       1      30      29
       1       1      30      29       1       1      30      29       1       1
      30      29       1       1      30      29       1       1      30      29
       1       1      30      29       1       1      30      29       1       1
      30      29       1       1      30      29       1       1      30      29
       1       1      30      29       1       1      30      29       1       1
      30      29       1       1      30      29       1       1      30      29
       1       1      30      29       1       1      30      29       1       1
      30      29       1       1      30      29       1       1      30      29
       1       1      30      29       1       1      30      29       1       1
      30      29       1       1      30      29       1       1      30      29
       1       1      30      29       1       1      30      29       1       1
      30      29       1       1      30      29       1       1      30      29
       1       1      30      29       1       1      30      29       1       1
      30      29       1       1      30      29       1       1      30      29
       1       1      30      29       1       1      30      29       1       1
      30      29       1       1      30      29       1       1      30      29
       1       1      30      29       1       1      30      29       1       1
      30      29       1       1      30      29       1       1      30      29
       1       1      30      29       1       1      30      29       1       1
      30      29       1       1      30      29       1       1      30      29
       1       1      30      29       1       1      30      29       1       1
      30      29       1       1      30      29       1       1      30      29
       1       1      30      29       1       1      30      29       1       1
      30      29       1       1      30      29       1       1      30      29
       1       1      30      29       1       1      30      29       1       1
      30      29       1       1      30      29       1       1      30      29
       1       1      30      29       1       1      30      29       1       1
      30      29       1       1      30      29       1       1      30      29
       1       1      30      29       1       1      30      29       1       1
      30      29       1       1      30      29       1       1      30      29
       1       1      30      29       1       1      30      29       1       1
      30      29       1       1      30      29       1       1      30      29
       1       1      30      29       1       1      30      29       1       1
      30      29       1       1      30      29       1       1      30      29
       1       1      30      29       1       1      30      29       1       1
      30      29       1       1      30      29       1       1      30      29
       1       1      30      29       1       1      30      29       1       1
      30      29       1       1      30      29       1       1      30      29
       1       1      30      29       1       1      30      29       1       1
      30      29       1       1      30      29       1       1      30      29
       1       1      30      29       1       1      30      29       1       1
      30      29       1       1      30      29       1       1      30      29
       1       1      30      29       1       1      30      29       1       1
      30      29       1       1      30      29       1       1      30      29
       1       1      30      29       1       1      30      29       1       1
      30      29       1       1      30      29       1       1      30      29
       1       1      30      29       1       1      30      29       1       1
      30      29       1       1      30      29       1       1      30      29
       1       1      30      29       1       1      30      29       1       1
      30      29       1       1      30      29       1       1      30      29
       1       1      30      29       1       1      30      29       1       1
      30      29       1       1      30      29       1       1      30      29
       1       1      30      29       1       1      30      29       1       1
      30      29       1       1      30      29       1       1      30      29
       1       1      30      29       1       1      30      29       1       1
      30      29       1       1      30      29       1       1      30      29
       1       1      30      29       1       1      30      29       1       1
      30      29       1       1      30      29       1       1      30      29
       1       1      30      29       1       1      30      29       1       1
      30      29       1       1      30      29       1       1      30      29
       1       1      30      29       1       1      30      29       1       1
      30      29       1       1      30      29       1       1      30      29
       1       1      30      29       1       1      30      29       1       1
      30      29       1       1      30      29       1       1      30      29
       1       1      30      29       1       1      30      29       1       1
      30      29       1       1      30      29       1       1      30      29
       1       1      30      29       1       1      30      29       1       1
      30      29       1       1      30      29       1       1      30      29
       1       1      30      29       1       1      30      29       1       1
      30      29       1       1      30      29       1       1      30      29
       1       1      30      29       1       1      30      29       1       1
      30      29       1       1      30      29       1       1      30      29
       1       1      30      29       1       1      30      29       1       1
      30      29       1       1      30      29       1       1      30      29
       1       1      30      29       1       1      30      29       1       1
      30      29       1       1      30      29       1       1      30      29
       1       1      30      29       1       1      30      29       1       1
      30      29       1       1      30      29       1       1      30      29
       1       1      30      29       1       1      30      29       1       1
      30      29       1       1      30      29       1       1      30      29
       1       1      30      29       1       1      30      29       1       1
      30      29       1       1      30      29       1       1      30      29
       1       1      30      29       1       1      30      29       1       1
      30      29       1       1      30      29       1       1      30      29
       1       1      30      29       1       1      30      29       1       1
      30      29       1       1      30      29       1       1      30      29
       1       1      30      29       1       1      30      29       1       1
      30      29       1       1      30      29       1       1      30      29
       1       1      30      29       1       1      30      29       1       1
      30      29       1       1      30      29       1       1      30      29
       1       1      30      29       1       1      30      29       1       1
      30      29       1       1      30      29       1       1      30      29
       1       1      30      29       1       1      30      29       1       1
      30      29       1       1      30      29       1       1      30      29
       1       1      30      29       1       1      30      29       1       1
      30      29       1       1      30      29       1       1      30      29
       1       1      30      29       1       1      30      29       1       1
      30      29       1       1      30      29       1       1      30      29
       1       1      30      29       1       1      30      29       1       1
      30      29       1       1      30      29       1       1      30      29
       1       1      30      29       1       1      30      29       1       1
      30      29       1       1      30      29       1       1      30      29
       1       1      30      29       1       1      30      29       1       1
      30      29       1       1      30      29       1       1      30      29
       1       1      30      29       1       1      30      29       1       1
      30      29       1       1      30      29       1       1      30      29
       1       1      30      29       1       1      30      29       1       1
      30      29       1       1      30      29       1       1      30      29
       1       1      30      29       1       1      30      29       1       1
      30      29       1       1      30      29       1       1      30      29
       1       1      30      29       1       1      30      29       1       1
      30      29       1       1      30      29       1       1      30      29
       1       1      30      29       1       1      30      29       1       1
      30      29       1       1      30      29       1       1      30      29
       1       1      30      29       1       1      30      29       1       1
      30      29       1       1      30      29       1       1      30      29
       1       1      30      29       1       1      30      29       1       1
      30      29       1       1      30      29       1       1      30      29
       1       1      30      29       1       1      30      29       1       1
      30      29       1       1      30      29       1       1      30      29
       1       1      30      29       1       1      30      29       1       1
      30      29       1       1      30      29       1       1      30      29
       1       1      30      29       1       1      30      29       1       1
      30      29       1       1      30      29       1       1      30      29
       1       1      30      29       1       1      30      29       1       1
      30      29       1       1      30      29       1       1      30      29
       1       1      30      29       1       1      30      29       1       1
      30      29       1       1      30      29       1       1      30      29
       1       1      30      29       1       1      30      29       1       1
      30      29       1       1      30      29       1       1      30      29
       1       1      30      29       1       1      30      29       1       1
      30      29       1       1      30      29       1       1      30      29
       1       1      30      29       1       1      30      29       1       1
      30      29       1       1      30      29       1       1      30      29
       1       1      30      29       1       1      30      29       1       1
      30      29       1       1      30      29       1       1      30      29
       1       1      30      29       1       1      30      29       1       1
      30      29       1       1      30      29       1       1      30      29
       1       1      30      29       1       1      30      29       1       1
      30      29       1       1      30      29       1       1      30      29
       1       1      30      29       1       1      30      29       1       1
      30      29       1       1      30      29       1       1      30      29
       1       1      30      29       1       1      30      29       1       1
      30      29       1       1      30      29       1       1      30      29
       1       1      30      29       1       1      30      29       1       1
      30      29       1       1      30      29       1       1      30      29
       1       1      30      29       1       1      30      29       1       1
      30      29       1       1      30      29       1       1      30      29
       1       1      30      29       1       1      30      29       1       1
      30      29       1       1      30      29       1       1      30      29
       1       1      30      29       1       1      30      29       1       1
      30      29       1       1      30      29       1       1      30      29
       1       1      30      29       1       1      30      29       1       1
      30      29       1       1      30      29       1       1      30      29
       1       1      30      29       1       1      30      29       1       1
      30      29       1       1      30      29       1       1      30      29
       1       1      30      29       1       1      30      29       1       1
      30      29       1       1      30      29       1       1      30      29
       1       1      30      29       1       1      30      29       1       1
      30      29       1       1      30      29       1       1      30      29
       1       1      30      29       1       1      30      29       1       1
      30      29       1       1      30      29       1       1      30      29
       1       1      30      29       1       1      30      29       1       1
      30      29       1       1      30      29       1       1      30      29
       1       1      30      29       1       1      30      29       1       1
      30      29       1       1      30      29       1       1      30      29
       1       1      30      29       1       1      30      29       1       1
      30      29       1       1      30      29       1       1      30      29
       1       1      30      29       1       1      30      29       1       1
      30      29       1       1      30      29       1       1      30      29
       1       1      30      29       1       1      30      29       1       1
      30      29       1       1      30      29       1       1      30      29
       1       1      30      29       1       1      30      29       1       1
      30      29       1       1      30      29       1       1      30      29
       1       1      30      29       1       1      30      29       1       1
      30      29       1       1      30      29       1       1      30      29
       1       1      30      29       1       1      30      29       1       1
      30      29       1       1      30      29       1       1      30      29
       1       1      30      29       1       1      30      29       1       1
      30      29       1       1      30      29       1       1      30      29
       1       1      30      29       1       1      30      29       1       1
      30      29       1       1      30      29       1       1      30      29
       1       1      30      29       1       1      30      29       1       1
      30      29       1       1      30      29       1       1      30      29
       1       1      30      29       1       1      30      29       1       1
      30      29       1       1      30      29       1       1      30      29
       1       1      30      29       1       1      30      29       1       1
      30      29       1       1      30      29       1       1      30      29
       1       1      30      29       1       1      30      29       1       1
      30      29       1       1      30      29       1       1      30      29
       1       1      30      29       1       1      30      29       1       1
      30      29       1       1      30      29       1       1      30      29
       1       1      30      29       1       1      30      29       1       1
      30      29       1       1      30      29       1       1      30      29
       1       1      30      29       1       1      30      29       1       1
      30      29       1       1      30      29       1       1      30      29
       1       1      30      29       1       1      30      29       1       1
      30      29       1       1      30      29       1       1      30      29
       1       1      30      29       1       1      30      29       1       1
      30      29       1       1      30      29       1       1      30      29
       1       1      30      29       1       1      30      29       1       1
      30      29       1       1      30      29       1       1      30      29
       1       1      30      29       1       1      30      29       1       1
      30      29       1       1      30      29       1       1      30      29
       1       1      30      29       1       1      30      29       1       1
      30      29       1       1      30      29       1       1      30      29
       1       1      30      29       1       1      30      29       1       1
      30      29       1       1      30      29       1       1      30      29
       1       1      30      29       1       1      30      29       1       1
      30      29       1       1      30      29       1       1      30      29
       1       1      30      29       1       1      30      29       1       1
      30      29       1       1      30      29       1       1      30      29
       1       1      30      29       1       1      30      29       1       1
      30      29       1       1      30      29       1       1      30      29
       1       1      30      29       1       1      30      29       1       1
      30      29       1       1      30      29       1       1      30      29
       1       1      30      29       1       1      30      29       1       1
      30      29       1       1      30      29       1       1      30      29
       1       1      30      29       1       1      30      29       1       1
      30      29       1       1      30      29       1       1      30      29
       1       1      30      29       1       1      30      29       1       1
      30      29       1       1      30      29       1       1      30      29
       1       1      30      29       1       1      30      29       1       1
      30      29       1       1      30      29       1       1      30      29
       1       1      30      29       1       1      30      29       1       1
      30      29       1       1      30      29       1       1      30      29
       1       1      30      29       1       1      30      29       1       1
      30      29       1       1      30      29       1       1      30      29
       1       1      30      29       1       1      30      29       1       1
      30      29       1       1      30      29       1       1      30      29
       1       1      30      29       1       1      30      29       1       1
      30      29       1       1      30      29       1       1      30      29
       1       1      30      29       1       1      30      29       1       1
      30      29       1       1      30      29       1       1      30      29
       1       1      30      29       1       1      30      29       1       1
      30      29       1       1      30      29       1       1      30      29
       1       1      30      29       1       1      30      29       1       1
      30      29       1       1      30      29       1       1      30      29
       1       1      30      29       1       1      30      29       1       1
      30      29       1       1      30      29       1       1      30      29
       1       1      30      29       1       1      30      29       1       1
      30      29       1       1      30      29       1       1      30      29
       1       1      30      29       1       1      30      29       1       1
      30      29       1       1      30      29       1       1      30      29
       1       1      30      29       1       1      30      29       1       1
      30      29       1       1      30      29       1       1      30      29
       1       1      30      29       1       1      30      29       1       1
      30      29       1       1      30      29       1       1      30      29
       1       1      30      29       1       1      30      29       1       1
      30      29       1       1      30      29       1       1      30      29
       1       1      30      29       1       1      30      29       1       1
      30      29       1       1      30      29       1       1      30      29
       1       1      30      29       1       1      30      29       1       1
      30      29       1       1      30      29       1       1      30      29
       1       1      30      29       1       1      30      29       1       1
      30      29       1       1      30      29       1       1      30      29
       1       1      30      29       1       1      30      29       1       1
      30      29       1       1      30      29       1       1      30      29
       1       1      30      29       1       1      30      29       1       1
      30      29       1       1      30      29       1       1      30      29
       1       1      30      29       1       1      30      29       1       1
      30      29       1       1      30      29       1       1      30      29
       1       1      30      29       1       1      30      29       1       1
      30      29       1       1      30      29       1       1      30      29
       1       1      30      29       1       1      30      29       1       1
      30      29       1       1      30      29       1       1      30      29
       1       1      30      29       1       1      30      29       1       1
      30      29       1       1      30      29       1       1      30      29
       1       1      30      29       1       1      30      29       1       1
      30      29       1       1      30      29       1       1      30      29
       1       1      30      29       1       1      30      29       1       1
      30      29       1       1      30      29       1       1      30      29
       1       1      30      29       1       1      30      29       1       1
      30      29       1       1      30      29       1       1      30      29
       1       1      30      29       1       1      30      29       1       1
      30      29       1       1      30      29       1       1      30      29
       1       1      30      29       1       1      30      29       1       1
      30      29       1       1      30      29       1       1      30      29
       1       1      30      29       1       1      30      29       1       1
      30      29       1       1      30      29       1       1      30      29
       1       1      30      29       1       1      30      29       1       1
      30      29       1       1      30      29       1       1      30      29
       1       1      30      29       1       1      30      29       1       1
      30      29       1       1      30      29       1       1      30      29
       1       1      30      29       1       1      30      29       1       1
      30      29       1       1      30      29       1       1      30      29
       1       1      30      29       1       1      30      29       1       1
      30      29       1       1      30      29       1       1      30      29
       1       1      30      29       1       1      30      29       1       1
      30      29       1       1      30      29       1       1      30      29
       1       1      30      29       1       1      30      29       1       1
      30      29       1       1      30      29       1       1      30      29
       1       1      30      29       1       1      30      29       1       1
      30      29       1       1      30      29       1       1      30      29
       1       1      30      29       1       1      30      29       1       1
      30      29       1       1      30      29       1       1      30      29
       1       1      30      29       1       1      30      29       1       1
      30      29       1       1      30      29       1       1      30      29
       1       1      30      29       1       1      30      29       1       1
      30      29       1       1      30      29       1       1      30      29
       1       1      30      29       1       1      30      29       1       1
      30      29       1       1      30      29       1       1      30      29
       1       1      30      29       1       1      30      29       1       1
      30      29       1       1      30      29       1       1      30      29
       1       1      30      29       1       1      30      29       1       1
      30      29       1       1      30      29       1       1      30      29
       1       1      30      29       1       1      30      29       1       1
      30      29       1       1      30      29       1       1      30      29
       1       1      30      29       1       1      30      29       1       1
      30      29       1       1      30      29       1       1      30      29
       1       1      30      29       1       1      30      29       1       1
      30      29       1       1      30      29       1       1      30      29
       1       1      30      29       1       1      30      29       1       1
      30      29       1       1      30      29       1       1      30      29
       1       1      30      29       1       1      30      29       1       1
      30      29       1       1      30      29       1       1      30      29
       1       1      30      29       1       1      30      29       1       1
      30      29       1       1      30      29       1       1      30      29
       1       1      30      29       1       1      30      29       1       1
      30      29       1       1      30      29       1       1      30      29
       1       1      30      29       1       1      30      29       1       1
      30      29       1       1      30      29       1       1      30      29
       1       1      30      29       1       1      30      29       1       1
      30      29       1       1      30      29       1       1      30      29
       1       1      30      29       1       1      30      29       1       1
      30      29       1       1      30      29       1       1      30      29
       1       1      30      29       1       1      30      29       1       1
      30      29       1       1      30      29       1       1      30      29
       1       1      30      29       1       1      30      29       1       1
      30      29       1       1      30      29       1       1      30      29
       1       1      30      29       1       1      30      29       1       1
      30      29       1       1      30      29       1       1      30      29
       1       1      30      29       1       1      30      29       1       1
      30      29       1       1      30      29       1       1      30      29
       1       1      30      29       1       1      30      29       1       1
      30      29       1       1      30      29       1       1      30      29
       1       1      30      29       1       1      30      29       1       1
      30      29       1       1      30      29       1       1      30      29
       1       1      30      29       1       1      30      29       1       1
      30      29       1       1      30      29       1       1      30      29
       1       1      30      29       1       1      30      29       1       1
      30      29       1       1      30      29       1       1      30      29
       1       1      30      29       1       1      30      29       1       1
      30      29       1       1      30      29       1       1      30      29
       1       1      30      29       1       1      30      29       1       1
      30      29       1       1      30      29       1       1      30      29
       1       1      30      29       1       1      30      29       1       1
      30      29       1       1      30      29       1       1      30      29
       1       1      30      29       1       1      30      29       1       1
      30      29       1       1      30      29       1       1      30      29
       1       1      30      29       1       1      30      29       1       1
      30      29       1       1      30      29       1       1      30      29
       1       1      30      29       1       1      30      29       1       1
      30      29       1       1      30      29       1       1      30      29
       1       1      30      29       1       1      30      29       1       1
      30      29       1       1      30      29       1       1      30      29
       1       1      30      29       1       1      30      29       1       1
      30      29       1       1      30      29       1       1      30      29
       1       1      30      29       1       1      30      29       1       1
      30      29       1       1      30      29       1       1      30      29
       1       1      30      29       1       1      30      29       1       1
      30      29       1       1      30      29       1       1      30      29
       1       1      30      29       1       1      30      29       1       1
      30      29       1       1      30      29       1       1      30      29
       1       1      30      29       1       1      30      29       1       1
      30      29       1       1      30      29       1       1      30      29
       1       1      30      29       1       1      30      29       1       1
      30      29       1       1      30      29       1       1      30      29
       1       1      30      29       1       1      30      29       1       1
      30      29       1       1      30      29       1       1      30      29
       1       1      30      29       1       1      30      29       1       1
      30      29       1       1      30      29       1       1      30      29
       1       1      30      29       1       1      30      29       1       1
      30      29       1       1      30      29       1       1      30      29
       1       1      30      29       1       1      30      29       1       1
      30      29       1       1      30      29       1       1      30      29
       1       1      30      29       1       1      30      29       1       1
      30      29       1       1      30      29       1       1      30      29
       1       1      30      29       1       1      30      29       1       1
      30      29       1       1      30      29       1       1      30      29
       1       1      30      29       1       1      30      29       1       1
      30      29       1       1      30      29       1       1      30      29
       1       1      30      29       1       1      30      29       1       1
      30      29       1       1      30      29       1       1      30      29
       1       1      30      29       1       1      30      29       1       1
      30      29       1       1      30      29       1       1      30      29
       1       1      30      29       1       1      30      29       1       1
      30      29       1       1      30      29       1       1      30      29
       1       1      30      29       1       1      30      29       1       1
      30      29       1       1      30      29       1       1      30      29
       1       1      30      29       1       1      30      29       1       1
      30      29       1       1      30      29       1       1      30      29
       1       1      30      29       1       1      30      29       1       1
      30      29       1       1      30      29       1       1      30      29
       1       1      30      29       1       1      30      29       1       1
      30      29       1       1      30      29       1       1      30      29
       1       1      30      29       1       1      30      29       1       1
      30      29       1       1      30      29       1       1      30      29
       1       1      30      29       1       1      30      29       1       1
      30      29       1       1      30      29       1       1      30      29
       1       1      30      29       1       1      30      29       1       1
      30      29       1       1      30      29       1       1      30      29
       1       1      30      29       1       1      30      29       1       1
      30      29       1       1      30      29       1       1      30      29
       1       1      30      29       1       1      30      29       1       1
      30      29       1       1      30      29       1       1      30      29
       1       1      30      29       1       1      30      29       1       1
      30      29       1       1      30      29       1       1      30      29
       1       1      30      29       1       1      30      29       1       1
      30      29       1       1      30      29       1       1      30      29
       1       1      30      29       1       1      30      29       1       1
      30      29       1       1      30      29       1       1      30      29
       1       1      30      29       1       1      30      29       1       1
      30      29       1       1      30      29       1       1      30      29
       1       1      30      29       1       1      30      29       1       1
      30      29       1       1      30      29       1       1      30      29
       1       1      30      29       1       1      30      29       1       1
      30      29       1       1      30      29       1       1      30      29
       1       1      30      29       1       1      30      29       1       1
      30      29       1       1      30      29       1       1      30      29
       1       1      30      29       1       1      30      29       1       1
      30      29       1       1      30      29       1       1      30      29
       1       1      30      29       1       1      30      29       1       1
      30      29       1       1      30      29       1       1      30      29
       1       1      30      29       1       1      30      29       1       1
      30      29       1       1      30      29       1       1      30      29
       1       1      30      29       1       1      30      29       1       1
      30      29       1       1      30      29       1       1      30      29
       1       1      30      29       1       1      30      29       1       1
      30      29       1       1      30      29       1       1      30      29
       1       1      30      29       1       1      30      29       1       1
      30      29       1       1      30      29       1       1      30      29
       1       1      30      29       1       1      30      29       1       1
      30      29       1       1      30      29       1       1      30      29
       1       1      30      29       1       1      30      29       1       1
      30      29       1       1      30      29       1       1      30      29
       1       1      30      29       1       1      30      29       1       1
      30      29       1       1      30      29       1       1      30      29
       1       1      30      29       1       1      30      29       1       1
      30      29       1       1      30      29       1       1      30      29
       1       1      30      29       1       1      30      29       1       1
      30      29       1       1      30      29       1       1      30      29
       1       1      30      29       1       1      30      29       1       1
      30      29       1       1      30      29       1       1      30      29
       1       1      30      29       1       1      30      29       1       1
      30      29       1       1      30      29       1       1      30      29
       1       1      30      29       1       1      30      29       1       1
      30      29       1       1      30      29       1       1      30      29
       1       1      30      29       1       1      30      29       1       1
      30      29       1       1      30      29       1       1      30      29
       1       1      30      29       1       1      30      29       1       1
      30      29       1       1      30      29       1       1      30      29
       1       1      30      29       1       1      30      29       1       1
      30      29       1       1      30      29       1       1      30      29
       1       1      30      29       1       1      30      29       1       1
      30      29       1       1      30      29       1       1      30      29
       1       1      30      29       1       1      30      29       1       1
      30      29       1       1      30      29       1       1      30      29
       1       1      30      29       1       1      30      29       1       1
      30      29       1       1      30      29       1       1      30      29
       1       1      30      29       1       1      30      29       1       1
      30      29       1       1      30      29       1       1      30      29
       1       1      30      29       1       1      30      29       1       1
      30      29       1       1      30      29       1       1      30      29
       1       1      30      29       1       1      30      29       1       1
      30      29       1       1      30      29       1       1      30      29
       1       1      30      29       1       1      30      29       1       1
      30      29       1       1      30      29       1       1      30      29
       1       1      30      29       1       1      30      29       1       1
      30      29       1       1      30      29       1       1      30      29
       1       1      30      29       1       1      30      29       1       1
      30      29       1       1      30      29       1       1      30      29
       1       1      30      29       1       1      30      29       1       1
      30      29       1       1      30      29       1       1      30      29
       1       1      30      29       1       1      30      29       1       1
      30      29       1       1      30      29       1       1      30      29
       1       1      30      29       1       1      30      29       1       1
      30      29       1       1      30      29       1       1      30      29
       1       1      30      29       1       1      30      29       1       1
      30      29       1       1      30      29       1       1      30      29
       1       1      30      29       1       1      30      29       1       1
      30      29       1       1      30      29       1       1      30      29
       1       1      30      29       1       1      30      29       1       1
      30      29       1       1      30      29       1       1      30      29
       1       1      30      29       1       1      30      29       1       1
      30      29       1       1      30      29       1       1      30      29
       1       1      30      29       1       1      30      29       1       1
      30      29       1       1      30      29       1       1      30      29
       1       1      30      29       1       1      30      29       1       1
      30      29       1       1      30      29       1       1      30      29
       1       1      30      29       1       1      30      29       1       1
      30      29       1       1      30      29       1       1      30      29
       1       1      30      29       1       1      30      29       1       1
      30      29       1       1      30      29       1       1      30      29
       1       1      30      29       1       1      30      29       1       1
      30      29       1       1      30      29       1       1      30      29
       1       1      30      29       1       1      30      29       1       1
      30      29       1       1      30      29       1       1      30      29
       1       1      30      29       1       1      30      29       1       1
      30      29       1       1      30      29       1       1      30      29
       1       1      30      29       1       1      30      29       1       1
      30      29       1       1      30      29       1       1      30      29
       1       1      30      29       1       1      30      29       1       1
      30      29       1       1      30      29       1       1      30      29
       1       1      30      29       1       1      30      29       1       1
      30      29       1       1      30      29       1       1      30      29
       1       1      30      29       1       1      30      29       1       1
      30      29       1       1      30      29       1       1      30      29
       1       1      30      29       1       1      30      29       1       1
      30      29       1       1      30      29       1       1      30      29
       1       1      30      29       1       1      30      29       1       1
      30      29       1       1      30      29       1       1      30      29
       1       1      30      29       1       1      30      29       1       1
      30      29       1       1      30      29       1       1      30      29
       1       1      30      29       1       1      30      29       1       1
      30      29       1       1      30      29       1       1      30      29
       1       1      30      29       1       1      30      29       1       1
      30      29       1       1      30      29       1       1      30      29
       1       1      30      29       1       1      30      29       1       1
      30      29       1       1      30      29       1       1      30      29
       1       1      30      29       1       1      30      29       1       1
      30      29       1       1      30      29       1       1      30      29
       1       1      30      29       1       1      30      29       1       1
      30      29       1       1      30      29       1       1      30      29
       1       1      30      29       1       1      30      29       1       1
      30      29       1       1      30      29       1       1      30      29
       1       1      30      29       1       1      30      29       1       1
      30      29       1       1      30      29       1       1      30      29
       1       1      30      29       1       1      30      29       1       1
      30      29       1       1      30      29       1       1      30      29
       1       1      30      29       1       1      30      29       1       1
      30      29       1       1      30      29       1       1      30      29
       1       1      30      29       1       1      30      29       1       1
      30      29       1       1      30      29       1       1      30      29
       1       1      30      29       1       1      30      29       1       1
      30      29       1       1      30      29       1       1      30      29
       1       1      30      29       1       1      30      29       1       1
      30      29       1       1      30      29       1       1      30      29
       1       1      30      29       1       1      30      29       1       1
      30      29       1       1      30      29       1       1      30      29
       1       1      30      29       1       1      30      29       1       1
      30      29       1       1      30      29       1       1      30      29
       1       1      30      29       1       1      30      29       1       1
      30      29       1       1      30      29       1       1      30      29
       1       1      30      29       1       1      30      29       1       1
      30      29       1       1      30      29       1       1      30      29
       1       1      30      29       1       1      30      29       1       1
      30      29       1       1      30      29       1       1      30      29
       1       1      30      29       1       1      30      29       1       1
      30      29       1       1      30      29       1       1      30      29
       1       1      30      29       1       1      30      29       1       1
      30      29       1       1      30      29       1       1      30      29
       1       1      30      29       1       1      30      29       1       1
      30      29       1       1      30      29       1       1      30      29
       1       1      30      29       1       1      30      29       1       1
      30      29       1       1      30      29       1       1      30      29
       1       1      30      29       1       1      30      29       1       1
      30      29       1       1      30      29       1       1      30      29
       1       1      30      29       1       1      30      29       1       1
      30      29       1       1      30      29       1       1      30      29
       1       1      30      29       1       1      30      29       1       1
      30      29       1       1      30      29       1       1      30      29
       1       1      30      29       1       1      30      29       1       1
      30      29       1       1      30      29       1       1      30      29
       1       1      30      29       1       1      30      29       1       1
      30      29       1       1      30      29       1       1      30      29
       1       1      30      29       1       1      30      29       1       1
      30      29       1       1      30      29       1       1      30      29
       1       1      30      29       1       1      30      29       1       1
      30      29       1       1      30      29       1       1      30      29
       1       1      30      29       1       1      30      29       1       1
      30      29       1       1      30      29       1       1      30      29
       1       1      30      29       1       1      30      29       1       1
      30      29       1       1      30      29       1       1      30      29
       1       1      30      29       1       1      30      29       1       1
      30      29       1       1      30      29       1       1      30      29
       1       1      30      29       1       1      30      29       1       1
      30      29       1       1      30      29       1       1      30      29
       1       1      30      29       1       1      30      29       1       1
      30      29       1       1      30      29       1       1      30      29
       1       1      30      29       1       1      30      29       1       1
      30      29       1       1      30      29       1       1      30      29
       1       1      30      29       1       1      30      29       1       1
      30      29       1       1      30      29       1       1      30      29
       1       1      30      29       1       1      30      29       1       1
      30      29       1       1      30      29       1       1      30      29
       1       1      30      29       1       1      30      29       1       1
      30      29       1       1      30      29       1       1      30      29
       1       1      30      29       1       1      30      29       1       1
      30      29       1       1      30      29       1       1      30      29
       1       1      30      29       1       1      30      29       1       1
      30      29       1       1      30      29       1       1      30      29
       1       1      30      29       1       1      30      29       1       1
      30      29       1       1      30      29       1       1      30      29
       1       1      30      29       1       1      30      29       1       1
      30      29       1       1      30      29       1       1      30      29
       1       1      30      29       1       1      30      29       1       1
      30      29       1       1      30      29       1       1      30      29
       1       1      30      29       1       1      30      29       1       1
      30      29       1       1      30      29       1       1      30      29
       1       1      30      29       1       1      30      29       1       1
      30      29       1       1      30      29       1       1      30      29
       1       1      30      29       1       1      30      29       1       1
      30      29       1       1      30      29       1       1      30      29
       1       1      30      29       1       1      30      29       1       1
      30      29       1       1      30      29       1       1      30      29
       1       1      30      29       1       1      30      29       1       1
      30      29       1       1      30      29       1       1      30      29
       1       1      30      29       1       1      30      29       1       1
      30      29       1       1      30      29       1       1      30      29
       1       1      30      29       1       1      30      29       1       1
      30      29       1       1      30      29       1       1      30      29
       1       1      30      29       1       1      30      29       1       1
      30      29       1       1      30      29       1       1      30      29
       1       1      30      29       1       1      30      29       1       1
      30      29       1       1      30      29       1       1      30      29
       1       1      30      29       1       1      30      29       1       1
      30      29       1       1      30      29       1       1      30      29
       1       1      30      29       1       1      30      29       1       1
      30      29       1       1      30      29       1       1      30      29
       1       1      30      29       1       1      30      29       1       1
      30      29       1       1      30      29       1       1      30      29
       1       1      30      29       1       1      30      29       1       1
      30      29       1       1      30      29       1       1      30      29
       1       1      30      29       1       1      30      29       1       1
      30      29       1       1      30      29       1       1      30      29
       1       1      30      29       1       1      30      29       1       1
      30      29       1       1      30      29       1       1      30      29
       1       1      30      29       1       1      30      29       1       1
      30      29       1       1      30      29       1       1      30      29
       1       1      30      29       1       1      30      29       1       1
      30      29       1       1      30      29       1       1      30      29
       1       1      30      29       1       1      30      29       1       1
      30      29       1       1      30      29       1       1      30      29
       1       1      30      29       1       1      30      29       1       1
      30      29       1       1      30      29       1       1      30      29
       1       1      30      29       1       1      30      29       1       1
      30      29       1       1      30      29       1       1      30      29
       1       1      30      29       1       1      30      29       1       1
      30      29       1       1      30      29       1       1      30      29
       1       1      30      29       1       1      30      29       1       1
      30      29       1       1      30      29       1       1      30      29
       1       1      30      29       1       1      30      29       1       1
      30      29       1       1      30      29       1       1      30      29
       1       1      30      29       1       1      30      29       1       1
      30      29       1       1      30      29       1       1      30      29
       1       1      30      29       1       1      30      29       1       1
      30      29       1       1      30      29       1       1      30      29
       1       1      30      29       1       1      30      29       1       1
      30      29       1       1      30      29       1       1      30      29
       1       1      30      29       1       1      30      29       1       1
      30      29       1       1      30      29       1       1      30      29
       1       1      30      29       1       1      30      29       1       1
      30      29       1       1      30      29       1       1      30      29
       1       1      30      29       1       1      30      29       1       1
      30      29       1       1      30      29       1       1      30      29
       1       1      30      29       1       1      30      29       1       1
      30      29       1       1      30      29       1       1      30      29
       1       1      30      29       1       1      30      29       1       1
      30      29       1       1      30      29       1       1      30      29
       1       1      30      29       1       1      30      29       1       1
      30      29       1       1      30      29       1       1      30      29
       1       1      30      29       1       1      30      29       1       1
      30      29       1       1      30      29       1       1      30      29
       1       1      30      29       1       1      30      29       1       1
      30      29       1       1      30      29       1       1      30      29
       1       1      30      29       1       1      30      29       1       1
      30      29       1       1      30      29       1       1      30      29
       1       1      30      29       1       1      30      29       1       1
      30      29       1       1      30      29       1       1      30      29
       1       1      30      29       1       1      30      29       1       1
      30      29       1       1      30      29       1       1      30      29
       1       1      30      29       1       1      30      29       1       1
      30      29       1       1      30      29       1       1      30      29
       1       1      30      29       1       1      30      29       1       1
      30      29       1       1      30      29       1       1      30      29
       1       1      30      29       1       1      30      29       1       1
      30      29       1       1      30      29       1       1      30      29
       1       1      30      29       1       1      30      29       1       1
      30      29       1       1      30      29       1       1      30      29
       1       1      30      29       1       1      30      29       1       1
      30      29       1       1      30      29       1       1      30      29
       1       1      30      29       1       1      30      29       1       1
      30      29       1       1      30      29       1       1      30      29
       1       1      30      29       1       1      30      29       1       1
      30      29       1       1      30      29       1       1      30      29
       1       1      30      29       1       1      30      29       1       1
      30      29       1       1      30      29       1       1      30      29
       1       1      30      29       1       1      30      29       1       1
      30      29       1       1      30      29       1       1      30      29
       1       1      30      29       1       1      30      29       1       1
      30      29       1       1      30      29       1       1      30      29
       1       1      30      29       1       1      30      29       1       1
      30      29       1       1      30      29       1       1      30      29
       1       1      30      29       1       1      30      29       1       1
      30      29       1       1      30      29       1       1      30      29
       1       1      30      29       1       1      30      29       1       1
      30      29       1       1      30      29       1       1      30      29
       1       1      30      29       1       1      30      29       1       1
      30      29       1       1      30      29       1       1      30      29
       1       1      30      29       1       1      30      29       1       1
      30      29       1       1      30      29       1       1      30      29
       1       1      30      29       1       1      30      29       1       1
      30      29       1       1      30      29       1       1      30      29
       1       1      30      29       1       1      30      29       1       1
      30      29       1       1      30      29       1       1      30      29
       1       1      30      29       1       1      30      29       1       1
      30      29       1       1      30      29       1       1      30      29
       1       1      30      29       1       1      30      29       1       1
      30      29       1       1      30      29       1       1      30      29
       1       1      30      29       1       1      30      29       1       1
      30      29       1       1      30      29       1       1      30      29
       1       1      30      29       1       1      30      29       1       1
      30      29       1       1      30      29       1       1      30      29
       1       1      30      29       1       1      30      29       1       1
      30      29       1       1      30      29       1       1      30      29
       1       1      30      29       1       1      30      29       1       1
      30      29       1       1      30      29       1       1      30      29
       1       1      30      29       1       1      30      29       1       1
      30      29       1       1      30      29       1       1      30      29
       1       1      30      29       1       1      30      29       1       1
      30      29       1       1      30      29       1       1      30      29
       1       1      30      29       1       1      30      29       1       1
      30      29       1       1      30      29       1       1      30      29
       1       1      30      29       1       1      30      29       1       1
      30      29       1       1      30      29       1       1      30      29
       1       1      30      29       1       1      30      29       1       1
      30      29       1       1      30      29       1       1      30      29
       1       1      30      29       1       1      30      29       1       1
      30      29       1       1      30      29       1       1      30      29
       1       1      30      29       1       1      30      29       1       1
      30      29       1       1      30      29       1       1      30      29
       1       1      30      29       1       1      30      29       1       1
      30      29       1       1      30      29       1       1      30      29
       1       1      30      29       1       1      30      29       1       1
      30      29       1       1      30      29       1       1      30      29
       1       1      30      29       1       1      30      29       1       1
      30      29       1       1      30      29       1       1      30      29
       1       1      30      29       1       1      30      29       1       1
      30      29       1       1      30      29       1       1      30      29
       1       1      30      29       1       1      30      29       1       1
      30      29       1       1      30      29       1       1      30      29
       1       1      30      29       1       1      30      29       1       1
      30      29       1       1      30      29       1       1      30      29
       1       1      30      29       1       1      30      29       1       1
      30      29       1       1      30      29       1       1      30      29
       1       1      30      29       1       1      30      29       1       1
      30      29       1       1      30      29       1       1      30      29
       1       1      30      29       1       1      30      29       1       1
      30      29       1       1      30      29       1       1      30      29
       1       1      30      29       1       1      30      29       1       1
      30      29       1       1      30      29       1       1      30      29
       1       1      30      29       1       1      30      29       1       1
      30      29       1       1      30      29       1       1      30      29
       1       1      30      29       1       1      30      29       1       1
      30      29       1       1      30      29       1       1      30      29
       1       1      30      29       1       1      30      29       1       1
      30      29       1       1      30      29       1       1      30      29
       1       1      30      29       1       1      30      29       1       1
      30      29       1       1      30      29       1       1      30      29
       1       1      30      29       1       1      30      29       1       1
      30      29       1       1      30      29       1       1      30      29
       1       1      30      29       1       1      30      29       1       1
      30      29       1       1      30      29       1       1      30      29
       1       1      30      29       1       1      30      29       1       1
      30      29       1       1      30      29       1       1      30      29
       1       1      30      29       1       1      30      29       1       1
      30      29       1       1      30      29       1       1      30      29
       1       1      30      29       1       1      30      29       1       1
      30      29       1       1      30      29       1       1      30      29
       1       1      30      29       1       1      30      29       1       1
      30      29       1       1      30      29       1       1      30      29
       1       1      30      29       1       1      30      29       1       1
      30      29       1       1      30      29       1       1      30      29
       1       1      30      29       1       1      30      29       1       1
      30      29       1       1      30      29       1       1      30      29
       1       1      30      29       1       1      30      29       1       1
      30      29       1       1      30      29       1       1      30      29
       1       1      30      29       1       1      30      29       1       1
      30      29       1       1      30      29       1       1      30      29
       1       1      30      29       1       1      30      29       1       1
      30      29       1       1      30      29       1       1      30      29
       1       1      30      29       1       1      30      29       1       1
      30      29       1       1      30      29       1       1      30      29
       1       1      30      29       1       1      30      29       1       1
      30      29       1       1      30      29       1       1      30      29
       1       1      30      29       1       1      30      29       1       1
      30      29       1       1      30      29       1       1      30      29
       1       1      30      29       1       1      30      29       1       1
      30      29       1       1      30      29       1       1      30      29
       1       1      30      29       1       1      30      29       1       1
      30      29       1       1      30      29       1       1      30      29
       1       1      30      29       1       1      30      29       1       1
      30      29       1       1      30      29       1       1      30      29
       1       1      30      29       1       1      30      29       1       1
      30      29       1       1      30      29       1       1      30      29
       1       1      30      29       1       1      30      29       1       1
      30      29       1       1      30      29       1       1      30      29
       1       1      30      29       1       1      30      29       1       1
      30      29       1       1      30      29       1       1      30      29
       1       1      30      29       1       1      30      29       1       1
      30      29       1       1      30      29       1       1      30      29
       1       1      30      29       1       1      30      29       1       1
      30      29       1       1      30      29       1       1      30      29
       1       1      30      29       1       1      30      29       1       1
      30      29       1       1      30      29       1       1      30      29
       1       1      30      29       1       1      30      29       1       1
      30      29       1       1      30      29       1       1      30      29
       1       1      30      29       1       1      30      29       1       1
      30      29       1       1      30      29       1       1      30      29
       1       1      30      29       1       1      30      29       1       1
      30      29       1       1      30      29       1       1      30      29
       1       1      30      29       1       1      30      29       1       1
      30      29       1       1      30      29       1       1      30      29
       1       1      30      29       1       1      30      29       1       1
      30      29       1       1      30      29       1       1      30      29
       1       1      30      29       1       1      30      29       1       1
      30      29       1       1      30      29       1       1      30      29
       1       1      30      29       1       1      30      29       1       1
      30      29       1       1      30      29       1       1      30      29
       1       1      30      29       1       1      30      29       1       1
      30      29       1       1      30      29       1       1      30      29
       1       1      30      29       1       1      30      29       1       1
      30      29       1       1      30      29       1       1      30      29
       1       1      30      29       1       1      30      29       1       1
      30      29       1       1      30      29       1       1      30      29
       1       1      30      29       1       1      30      29       1       1
      30      29       1       1      30      29       1       1      30      29
       1       1      30      29       1       1      30      29       1       1
      30      29       1       1      30      29       1       1      30      29
       1       1      30      29       1       1      30      29       1       1
      30      29       1       1      30      29       1       1      30      29
       1       1      30      29       1       1      30      29       1       1
      30      29       1       1      30      29       1       1      30      29
       1       1      30      29       1       1      30      29       1       1
      30      29       1       1      30      29       1       1      30      29
       1       1      30      29       1       1      30      29       1       1
      30      29       1       1      30      29       1       1      30      29
       1       1      30      29       1       1      30      29       1       1
      30      29       1       1      30      29       1       1      30      29
       1       1      30      29       1       1      30      29       1       1
      30      29       1       1      30      29       1       1      30      29
       1       1      30      29       1       1      30      29       1       1
      30      29       1       1      30      29       1       1      30      29
       1       1      30      29       1       1      30      29       1       1
      30      29       1       1      30      29       1       1      30      29
       1       1      30      29       1       1      30      29       1       1
      30      29       1       1      30      29       1       1      30      29
       1       1      30      29       1       1      30      29       1       1
      30      29       1       1      30      29       1       1      30      29
       1       1      30      29       1       1      30      29       1       1
      30      29       1       1      30      29       1       1      30      29
       1       1      30      29       1       1      30      29       1       1
      30      29       1       1      30      29       1       1      30      29
       1       1      30      29       1       1      30      29       1       1
      30      29       1       1      30      29       1       1      30      29
       1       1      30      29       1       1      30      29       1       1
      30      29       1       1      30      29       1       1      30      29
       1       1      30      29       1       1      30      29       1       1
      30      29       1       1      30      29       1       1      30      29
       1       1      30      29       1       1      30      29       1       1
      30      29       1       1      30      29       1       1      30      29
       1       1      30      29       1       1      30      29       1       1
      30      29       1       1      30      29       1       1      30      29
       1       1      30      29       1       1      30      29       1       1
      30      29       1       1      30      29       1       1      30      29
       1       1      30      29       1       1      30      29       1       1
      30      29       1       1      30      29       1       1      30      29
       1       1      30      29       1       1      30      29       1       1
      30      29       1       1      30      29       1       1      30      29
       1       1      30      29       1       1      30      29       1       1
      30      29       1       1      30      29       1       1      30      29
       1       1      30      29       1       1      30      29       1       1
      30      29       1       1      30      29       1       1      30      29
       1       1      30      29       1       1      30      29       1       1
      30      29       1       1      30      29       1       1      30      29
       1       1      30      29       1       1      30      29       1       1
      30      29       1       1      30      29       1       1      30      29
       1       1      30      29       1       1      30      29       1       1
      30      29       1       1      30      29       1       1      30      29
       1       1      30      29       1       1      30      29       1       1
      30      29       1       1      30      29       1       1      30      29
       1       1      30      29       1       1      30      29       1       1
      30      29       1       1      30      29       1       1      30      29
       1       1      30      29       1       1      30      29       1       1
      30      29       1       1      30      29       1       1      30      29
       1       1      30      29       1       1      30      29       1       1
      30      29       1       1      30      29       1       1      30      29
       1       1      30      29       1       1      30      29       1       1
      30      29       1       1      30      29       1       1      30      29
       1       1      30      29       1       1      30      29       1       1
      30      29       1       1      30      29       1       1      30      29
       1       1      30      29       1       1      30      29       1       1
      30      29       1       1      30      29       1       1      30      29
       1       1      30      29       1       1      30      29       1       1
      30      29       1       1      30      29       1       1      30      29
       1       1      30      29       1       1      30      29       1       1
      30      29       1       1      30      29       1       1      30      29
       1       1      30      29       1       1      30      29       1       1
      30      29       1       1      30      29       1       1      30      29
       1       1      30      29       1       1      30      29       1       1
      30      29       1       1      30      29       1       1      30      29
       1       1      30      29       1       1      30      29       1       1
      30      29       1       1      30      29       1       1      30      29
       1       1      30      29       1       1      30      29       1       1
      30      29       1       1      30      29       1       1      30      29
       1       1      30      29       1       1      30      29       1       1
      30      29       1       1      30      29       1       1      30      29
       1       1      30      29       1       1      30      29       1       1
      30      29       1       1      30      29       1       1      30      29
       1       1      30      29       1       1      30      29       1       1
      30      29       1       1      30      29       1       1      30      29
       1       1      30      29       1       1      30      29       1       1
      30      29       1       1      30      29       1       1      30      29
       1       1      30      29       1       1      30      29       1       1
      30      29       1       1      30      29       1       1      30      29
       1       1      30      29       1       1      30      29       1       1
      30      29       1       1      30      29       1       1      30      29
       1       1      30      29       1       1      30      29       1       1
      30      29       1       1      30      29       1       1      30      29
       1       1      30      29       1       1      30      29       1       1
      30      29       1       1      30      29       1       1      30      29
       1       1      30      29       1       1      30      29       1       1
      30      29       1       1      30      29       1       1      30      29
       1       1      30      29       1       1      30      29       1       1
      30      29       1       1      30      29       1       1      30      29
       1       1      30      29       1       1      30      29       1       1
      30      29       1       1      30      29       1       1      30      29
       1       1      30      29       1       1      30      29       1       1
      30      29       1       1      30      29       1       1      30      29
       1       1      30      29       1       1      30      29       1       1
      30      29       1       1      30      29       1       1      30      29
       1       1      30      29       1       1      30      29       1       1
      30      29       1       1      30      29       1       1      30      29
       1       1      30      29       1       1      30      29       1       1
      30      29       1       1      30      29       1       1      30      29
       1       1      30      29       1       1      30      29       1       1
      30      29       1       1      30      29       1       1      30      29
       1       1      30      29       1       1      30      29       1       1
      30      29       1       1      30      29       1       1      30      29
       1       1      30      29       1       1      30      29       1       1
      30      29       1       1      30      29       1       1      30      29
       1       1      30      29       1       1      30      29       1       1
      30      29       1       1      30      29       1       1      30      29
       1       1      30      29       1       1      30      29       1       1
      30      29       1       1      30      29       1       1      30      29
       1       1      30      29       1       1      30      29       1       1
      30      29       1       1      30      29       1       1      30      29
       1       1      30      29       1       1      30      29       1       1
      30      29       1       1      30      29       1       1      30      29
       1       1      30      29       1       1      30      29       1       1
      30      29       1       1      30      29       1       1      30      29
       1       1      30      29       1       1      30      29       1       1
      30      29       1       1      30      29       1       1      30      29
       1       1      30      29       1       1      30      29       1       1
      30      29       1       1      30      29       1       1      30      29
       1       1      30      29       1       1      30      29       1       1
      30      29       1       1      30      29       1       1      30      29
       1       1      30      29       1       1      30      29       1       1
      30      29       1       1      30      29       1       1      30      29
       1       1      30      29       1       1      30      29       1       1
      30      29       1       1      30      29       1       1      30      29
       1       1      30      29       1       1      30      29       1       1
      30      29       1       1      30      29       1       1      30      29
       1       1      30      29       1       1      30      29       1       1
      30      29       1       1      30      29       1       1      30      29
       1       1      30      29       1       1      30      29       1       1
      30      29       1       1      30      29       1       1      30      29
       1       1      30      29       1       1      30      29       1       1
      30      29       1       1      30      29       1       1      30      29
       1       1      30      29       1       1      30      29       1       1
      30      29       1       1      30      29       1       1      30      29
       1       1      30      29       1       1      30      29       1       1
      30      29       1       1      30      29       1       1      30      29
       1       1      30      29       1       1      30      29       1       1
      30      29       1       1      30      29       1       1      30      29
       1       1      30      29       1       1      30      29       1       1
      30      29       1       1      30      29       1       1      30      29
       1       1      30      29       1       1      30      29       1       1
      30      29       1       1      30      29       1       1      30      29
       1       1      30      29       1       1      30      29       1       1
      30      29       1       1      30      29       1       1      30      29
       1       1      30      29       1       1      30      29       1       1
      30      29       1       1      30      29       1       1      30      29
       1       1      30      29       1       1      30      29       1       1
      30      29       1       1      30      29       1       1      30      29
       1       1      30      29       1       1      30      29       1       1
      30      29       1       1      30      29       1       1      30      29
       1       1      30      29       1       1      30      29       1       1
      30      29       1       1      30      29       1       1      30      29
       1       1      30      29       1       1      30      29       1       1
      30      29       1       1      30      29       1       1      30      29
       1       1      30      29       1       1      30      29       1       1
      30      29       1       1      30      29       1       1      30      29
       1       1      30      29       1       1      30      29       1       1
      30      29       1       1      30      29       1       1      30      29
       1       1      30      29       1       1      30      29       1       1
      30      29       1       1      30      29       1       1      30      29
       1       1      30      29       1       1      30      29       1       1
      30      29       1       1      30      29       1       1      30      29
       1       1      30      29       1       1      30      29       1       1
      30      29       1       1      30      29       1       1      30      29
       1       1      30      29       1       1      30      29       1       1
      30      29       1       1      30      29       1       1      30      29
       1       1      30      29       1       1      30      29       1       1
      30      29       1       1      30      29       1       1      30      29
       1       1      30      29       1       1      30      29       1       1
      30      29       1       1      30      29       1       1      30      29
       1       1      30      29       1       1      30      29       1       1
      30      29       1       1      30      29       1       1      30      29
       1       1      30      29       1       1      30      29       1       1
      30      29       1       1      30      29       1       1      30      29
       1       1      30      29       1       1      30      29       1       1
      30      29       1       1      30      29       1       1      30      29
       1       1      30      29       1       1      30      29       1       1
      30      29       1       1      30      29       1       1      30      29
       1       1      30      29       1       1      30      29       1       1
      30      29       1       1      30      29       1       1      30      29
       1       1      30      29       1       1      30      29       1       1
      30      29       1       1      30      29       1       1      30      29
       1       1      30      29       1       1      30      29       1       1
      30      29       1       1      30      29       1       1      30      29
       1       1      30      29       1       1      30      29       1       1
      30      29       1       1      30      29       1       1      30      29
       1       1      30      29       1       1      30      29       1       1
      30      29       1       1      30      29       1       1      30      29
       1       1      30      29       1       1      30      29       1       1
      30      29       1       1      30      29       1       1      30      29
       1       1      30      29       1       1      30      29       1       1
      30      29       1       1      30      29       1       1      30      29
       1       1      30      29       1       1      30      29       1       1
      30      29       1       1      30      29       1       1      30      29
       1       1      30      29       1       1      30      29       1       1
      30      29       1       1      30      29       1       1      30      29
       1       1      30      29       1       1      30      29       1       1
      30      29       1       1      30      29       1       1      30      29
       1       1      30      29       1       1      30      29       1       1
      30      29       1       1      30      29       1       1      30      29
       1       1      30      29       1       1      30      29       1       1
      30      29       1       1      30      29       1       1      30      29
       1       1      30      29       1       1      30      29       1       1
      30      29       1       1      30      29       1       1      30      29
       1       1      30      29       1       1      30      29       1       1
      30      29       1       1      30      29       1       1      30      29
       1       1      30      29       1       1      30      29       1       1
      30      29       1       1      30      29       1       1      30      29
       1       1      30      29       1       1      30      29       1       1
      30      29       1       1      30      29       1       1      30      29
       1       1      30      29       1       1      30      29       1       1
      30      29       1       1      30      29       1       1      30      29
       1       1      30      29       1       1      30      29       1       1
      30      29       1       1      30      29       1       1      30      29
       1       1      30      29       1       1      30      29       1       1
      30      29       1       1      30      29       1       1      30      29
       1       1      30      29       1       1      30      29       1       1
      30      29       1       1      30      29       1       1      30      29
       1       1      30      29       1       1      30      29       1       1
      30      29       1       1      30      29       1       1      30      29
       1       1      30      29       1       1      30      29       1       1
      30      29       1       1      30      29       1       1      30      29
       1       1      30      29       1       1      30      29       1       1
      30      29       1       1      30      29       1       1      30      29
       1       1      30      29       1       1      30      29       1       1
      30      29       1       1      30      29       1       1      30      29
       1       1      30      29       1       1      30      29       1       1
      30      29       1       1      30      29       1       1      30      29
       1       1      30      29       1       1      30      29       1       1
      30      29       1       1      30      29       1       1      30      29
       1       1      30      29       1       1      30      29       1       1
      30      29       1       1      30      29       1       1      30      29
       1       1      30      29       1       1      30      29       1       1
      30      29       1       1      30      29       1       1      30      29
       1       1      30      29       1       1      30      29       1       1
      30      29       1       1      30      29       1       1      30      29
       1       1      30      29       1       1      30      29       1       1
      30      29       1       1      30      29       1       1      30      29
       1       1      30      29       1       1      30      29       1       1
      30      29       1       1      30      29       1       1      30      29
       1       1      30      29       1       1      30      29       1       1
      30      29       1       1      30      29       1       1      30      29
       1       1      30      29       1       1      30      29       1       1
      30      29       1       1      30      29       1       1      30      29
       1       1      30      29       1       1      30      29       1       1
      30      29       1       1      30      29       1       1      30      29
       1       1      30      29       1       1      30      29       1       1
      30      29       1       1      30      29       1       1      30      29
       1       1      30      29       1       1      30      29       1       1
      30      29       1       1      30      29       1       1      30      29
       1       1      30      29       1       1      30      29       1       1
      30      29       1       1      30      29       1       1      30      29
       1       1      30      29       1       1      30      29       1       1
      30      29       1       1      30      29       1       1      30      29
       1       1      30      29       1       1      30      29       1       1
      30      29       1       1      30      29       1       1      30      29
       1       1      30      29       1       1      30      29       1       1
      30      29       1       1      30      29       1       1      30      29
       1       1      30      29       1       1      30      29       1       1
      30      29       1       1      30      29       1       1      30      29
       1       1      30      29       1       1      30      29       1       1
      30      29       1       1      30      29       1       1      30      29
       1       1      30      29       1       1      30      29       1       1
      30      29       1       1      30      29       1       1      30      29
       1       1      30      29       1       1      30      29       1       1
      30      29       1       1      30      29       1       1      30      29
       1       1      30      29       1       1      30      29       1       1
      30      29       1       1      30      29       1       1      30      29
       1       1      30      29       1       1      30      29       1       1
      30      29       1       1      30      29       1       1      30      29
       1       1      30      29       1       1      30      29       1       1
      30      29       1       1      30      29       1       1      30      29
       1       1      30      29       1       1      30      29       1       1
      30      29       1       1      30      29       1       1      30      29
       1       1      30      29       1       1      30      29       1       1
      30      29       1       1      30      29       1       1      30      29
       1       1      30      29       1       1      30      29       1       1
      30      29       1       1      30      29       1       1      30      29
       1       1      30      29       1       1      30      29       1       1
      30      29       1       1      30      29       1       1      30      29
       1       1      30      29       1       1      30      29       1       1
      30      29       1       1      30      29       1       1      30      29
       1       1      30      29       1       1      30      29       1       1
      30      29       1       1      30      29       1       1      30      29
       1       1      30      29       1       1      30      29       1       1
      30      29       1       1      30      29       1       1      30      29
       1       1      30      29       1       1      30      29       1       1
      30      29       1       1      30      29       1       1      30      29
       1       1      30      29       1       1      30      29       1       1
      30      29       1       1      30      29       1       1      30      29
       1       1      30      29       1       1      30      29       1       1
      30      29       1       1      30      29       1       1      30      29
       1       1      30      29       1       1      30      29       1       1
      30      29       1       1      30      29       1       1      30      29
       1       1      30      29       1       1      30      29       1       1
      30      29       1       1      30      29       1       1      30      29
       1       1      30      29       1       1      30      29       1       1
      30      29       1       1      30      29       1       1      30      29
       1       1      30      29       1       1      30      29       1       1
      30      29       1       1      30      29       1       1      30      29
       1       1      30      29       1       1      30      29       1       1
      30      29       1       1      30      29       1       1      30      29
       1       1      30      29       1       1      30      29       1       1
      30      29       1       1      30      29       1       1      30      29
       1       1      30      29       1       1      30      29       1       1
      30      29       1       1      30      29       1       1      30      29
       1       1      30      29       1       1      30      29       1       1
      30      29       1       1      30      29       1       1      30      29
       1       1      30      29       1       1      30      29       1       1
      30      29       1       1      30      29       1       1      30      29
       1       1      30      29       1       1      30      29       1       1
      30      29       1       1      30      29       1       1      30      29
       1       1      30      29       1       1      30      29       1       1
      30      29       1       1      30      29       1       1      30      29
       1       1      30      29       1       1      30      29       1       1
      30      29       1       1      30      29       1       1      30      29
       1       1      30      29       1       1      30      29       1       1
      30      29       1       1      30      29       1       1      30      29
       1       1      30      29       1       1      30      29       1       1
      30      29       1       1      30      29       1       1      30      29
       1       1      30      29       1       1      30      29       1       1
      30      29       1       1      30      29       1       1      30      29
       1       1      30      29       1       1      30      29       1       1
      30      29       1       1      30      29       1       1      30      29
       1       1      30      29       1       1      30      29       1       1
      30      29       1       1      30      29       1       1      30      29
       1       1      30      29       1       1      30      29       1       1
      30      29       1       1      30      29       1       1      30      29
       1       1      30      29       1       1      30      29       1       1
      30      29       1       1      30      29       1       1      30      29
       1       1      30      29       1       1      30      29       1       1
      30      29       1       1      30      29       1       1      30      29
       1       1      30      29       1       1      30      29       1       1
      30      29       1       1      30      29       1       1      30      29
       1       1      30      29       1       1      30      29       1       1
      30      29       1       1      30      29       1       1      30      29
       1       1      30      29       1       1      30      29       1       1
      30      29       1       1      30      29       1       1      30      29
       1       1      30      29       1       1      30      29       1       1
      30      29       1       1      30      29       1       1      30      29
       1       1      30      29       1       1      30      29       1       1
      30      29       1       1      30      29       1       1      30      29
       1       1      30      29       1       1      30      29       1       1
      30      29       1       1      30      29       1       1      30      29
       1       1      30      29       1       1      30      29       1       1
      30      29       1       1      30      29       1       1      30      29
       1       1      30      29       1       1      30      29       1       1
      30      29       1       1      30      29       1       1      30      29
       1       1      30      29       1       1      30      29       1       1
      30      29       1       1      30      29       1       1      30      29
       1       1      30      29       1       1      30      29       1       1
      30      29       1       1      30      29       1       1      30      29
       1       1      30      29       1       1      30      29       1       1
      30      29       1       1      30      29       1       1      30      29
       1       1      30      29       1       1      30      29       1       1
      30      29       1       1      30      29       1       1      30      29
       1       1      30      29       1       1      30      29       1       1
      30      29       1       1      30      29       1       1      30      29
       1       1      30      29       1       1      30      29       1       1
      30      29       1       1      30      29       1       1      30      29
       1       1      30      29       1       1      30      29       1       1
      30      29       1       1      30      29       1       1      30      29
       1       1      30      29       1       1      30      29       1       1
      30      29       1       1      30      29       1       1      30      29
       1       1      30      29       1       1      30      29       1       1
      30      29       1       1      30      29       1       1      30
%FLAG NUMBER_EXCLUDED_ATOMS                                                     
%FORMAT(10I8)                                                                   
       5       7      10       5       4      12       6      11      15       7
      12       7       3       6       7       7       4       7       3       5
       4       2       1       1       1      10       5       5       3       2
       1       5       7       3       2       7      10       5       4      12
       6      11      15       7      12       7       3       6       7       7
       4       7       3       5       4       2       1       1       1      10
       5       5       3       2       1       5       7       3       2       7
      10       5       4      12       6      11      15       7      12       7
       3       6       8       8       5       2       1       4       3       2
       1       1      10       5       5       3       2       1       5       7
       3       2       7      10       5       4      12       6      11      15
       7      13       9       4       6       3       5       3       3       2
       2       1      10       5       5       3       2       1       5       7
       3       2       7      10       5       4      12       6      11      15
       7      12       9       4       7       3       6       4       2       1
       2       2       1      10       5       5       3       2       1       5
       7       3       2       7      10       5       4      12       6      11
      15       7      12       7       3       6       8       8       5       2
       1       4       3       2       1       1      10       5       5       3
       2       1       5       7       3       2       7      10       5       4
      12       6      11      15       7      13       9       4       6       3
       5       3       3       2       2       1      10       5       5       3
       2       1       5       7       3       2       7      10       5       4
      12       6      11      15       7      12       7       3       6       8
       8       5       2       1       4       3       2       1       1      10
       5       5       3       2       1       5       7       3       2       7
      10       5       4      12       6      11      15       7      13       9
       4       6       3       5       3       3       2       2       1      10
       5       5       3       2       1       5       7       3       2       7
      10       5       4      12       6      11      15       7      12       7
       3       6       8       8       5       2       1       4       3       2
       1       1      10       5       5       3       2       1       5       7
       3       2       7      10       5       4      12       6      11      15
       7      12       7       3       6       8       8       5       2       1
       4       3       2       1       1      10       5       5       3       2
       1       5       7       3       2       7      10       5       4      12
       6      11      15       7      13       9       4       6       3       5
       3       3       2       2       1      10       5       5       3       2
       1       5       7       3       2       7      10       5       4      12
       6      11      15       7      12       9       4       7       3       6
       4       2       1       2       2       1      10       5       5       3
       2       1       5       7       3       2       7      10       5       4
      12       6      11      15       7      12       7       3       6       7
       7       4       7       3       5       4       2       1       1       1
      10       5       5       3       2       1       5       7       3       2
       7      10       5       4      12       6      11      15       7      12
       9       4       7       3       6       4       2       1       2       2
       1      10       5       5       3       2       1       5       7       3
       2       7      10       5       4      12       6      11      15       7
      12       7       3       6       7       7       4       7       3       5
       4       2       1       1       1      10       5       5       3       2
       1       5       7       3       2       7      10       5       4      12
       6      11      15       7      13       9       4       6       3       5
       3       3       2       2       1      10       5       5       3       2
       1       5       7       3       2       7      10       5       4      12
       6      11      15       7      12       7       3       6       7       7
       4       7       3       5       4       2       1       1       1      10
       5       5       3       2       1       5       7       3       2       7
      10       5       4      12       6      11      15       7      12       7
       3       6       7       7       4       7       3       5       4       2
       1       1       1      10       5       5       3       2       1       5
       7       3       2       7      10       5       4      12       6      11
      15       7      12       7       3       6       8       8       5       2
       1       4       3       2       1       1      10       5       5       3
       2       1       5       7       3       2       7      10       5       4
      12       6      11      15       7      13       9       4       6       3
       5       3       3       2       2       1      10       5       5       3
       2       1       5       7       3       2       7      10       5       4
      12       6      11      15       7      12       7       3       6       8
       8       5       2       1       4       3       2       1       1      10
       5       5       3       2       1       5       7       3       2       7
      10       5       4      12       6      11      15       7      13       9
       4       6       3       5       3       3       2       2       1      10
       5       5       3       2       1       5       7       3       2       7
      10       5       4      12       6      11      15       7      12       7
       3       6       7       7       4       7       3       5       4       2
       1       1       1      10       5       5       3       2       1       5
       7       3       2       7      10       5       4      12       6      11
      15       7      12       7       3       6       7       7       4       7
       3       5       4       2       1       1       1      10       5       5
       3       2       1       5       7       3       2       7      10       5
       4      12       6      11      15       7      12       9       4       7
       3       6       4       2       1       2       2       1      10       5
       5       3       2       1       5       7       3       2       7      10
       5       4      12       6      11      15       7      12       7       3
       6       8       8       5       2       1       4       3       2       1
       1      10       5       5       3       2       1       5       7       3
       2       7      10       5       4      12       6      11      15       7
      12       9       4       7       3       6       4       2       1       2
       2       1      10       5       5       3       2       1       5       7
       3       2       7      10       5       4      12       6      11      15
       7      12       7       3       6       7       7       4       7       3
       5       4       2       1       1       1      10       5       5       3
       2       1       5       7       3       2       7      10       5       4
      12       6      11      15       7      12       9       4       7       3
       6       4       2       1       2       2       1      10       5       5
       3       2       1       5       7       3       2       7      10       5
       4      12       6      11      15       7      12       7       3       6
       8       8       5       2       1       4       3       2       1       1
      10       5       5       3       2       1       5       7       3       2
       7      10       5       4      12       6      11      15       7      12
       7       3       6       8       8       5       2       1       4       3
       2       1       1      10       5       5       3       2       1       5
       7       3       2       7      10       5       4      12       6      11
      15       7      12       7       3       6       7       7       4       7
       3       5       4       2       1       1       1      10       5       5
       3       2       1       5       7       3       2       7      10       5
       4      12       6      11      15       7      13       9       4       6
       3       5       3       3       2       2       1      10       5       5
       3       2       1       5       7       3       2       7      10       5
       4      12       6      11      15       7      13       9       4       6
       3       5       3       3       2       2       1      10       5       5
       3       2       1       5       7       3       2       7      10       5
       4      12       6      11      15       7      13       9       4       6
       3       5       3       3       2       2       1      10       5       5
       3       2       1       5       7       3       2       7      10       5
       4      12       6      11      15       7      12       9       4       7
       3       6       4       2       1       2       2       1      10       5
       5       3       2       1       5       7       3       2       7      10
       5       4      12       6      11      15       7      13       9       4
       6       3       5       3       3       2       2       1      10       5
       5       3       2       1       5       7       3       2       7      10
       5       4      12       6      11      15       7      12       7       3
       6       8       8       5       2       1       4       3       2       1
       1      10       5       5       3       2       1       5       7       3
       2       7      10       5       4      12       6      11      15       7
      12       9       4       7       3       6       4       2       1       2
       2       1      10       5       5       3       2       1       5       7
       3       2       7      10       5       4      12       6      11      15
       7      12       9       4       7       3       6       4       2       1
       2       2       1      10       5       5       3       2       1       5
       7       3       2       7      10       5       4      12       6      11
      15       7      12       7       3       6       7       7       4       7
       3       5       4       2       1       1       1      10       5       5
       3       2       1       5       7       3       2       7      10       5
       4      12       6      11      15       7      12       7       3       6
       7       7       4       7       3       5       4       2       1       1
       1      10       5       5       3       2       1       5       7       3
       2       7      10       5       4      12       6      11      15       7
      12       7       3       6       7       7       4       7       3       5
       4       2       1       1       1      10       5       5       3       2
       1       5       7       3       2       7      10       5       4      12
       6      11      15       7      12       9       4       7       3       6
       4       2       1       2       2       1      10       5       5       3
       2       1       5       7       3       2       7      10       5       4
      12       6      11      15       7      12       7       3       6       8
       8       5       2       1       4       3       2       1       1      10
       5       5       3       2       1       5       7       3       2       7
      10       5       4      12       6      11      15       7      12       9
       4       7       3       6       4       2       1       2       2       1
      10       5       5       3       2       1       5       7       3       2
       7      10       5       4      12       6      11      15       7      12
       9       4       7       3       6       4       2       1       2       2
       1      10       5       5       3       2       1       5       7       3
       2       7      10       5       4      12       6      11      15       7
      12       7       3       6       7       7       4       7       3       5
       4       2       1       1       1      10       5       5       3       2
       1       5       7       3       2       7      10       5       4      12
       6      11      15       7      13       9       4       6       3       5
       3       3       2       2       1      10       5       5       3       2
       1       5       7       3       2       7      10       5       4      12
       6      11      15       7      12       7       3       6       8       8
       5       2       1       4       3       2       1       1      10       5
       5       3       2       1       5       7       3       2       7      10
       5       4      12       6      11      15       7      12       7       3
       6       8       8       5       2       1       4       3       2       1
       1      10       5       5       3       2       1       5       7       3
       2       7      10       5       4      12       6      11      15       7
      12       7       3       6       8       8       5       2       1       4
       3       2       1       1      10       5       5       3       2       1
       5       7       3       2       7      10       5       4      12       6
      11      15       7      13       9       4       6       3       5       3
       3       2       2       1      10       5       5       3       2       1
       5       7       3       2       7      10       5       4      12       6
      11      15       7      12       7       3       6       7       7       4
       7       3       5       4       2       1       1       1      10       5
       5       3       2       1       5       7       3       2       7      10
       5       4      12       6      11      15       7      13       9       4
       6       3       5       3       3       2       2       1      10       5
       5       3       2       1       5       7       3       2       7      10
       5       4      12       6      11      15       7      12       9       4
       7       3       6       4       2       1       2       2       1      10
       5       5       3       2       1       5       7       3       2       7
      10       5       4      12       6      11      15       7      12       9
       4       7       3       6       4       2       1       2       2       1
      10       5       5       3       2       1       5       7       3       2
       7      10       5       4      12       6      11      15       7      12
       7       3       6       7       7       4       7       3       5       4
       2       1       1       1      10       5       5       3       2       1
       5       7       3       2       7      10       5       4      12       6
      11      15       7      12       7       3       6       8       8       5
       2       1       4       3       2       1       1      10       5       5
       3       2       1       5       7       3       2       7      10       5
       4      12       6      11      15       7      12       9       4       7
       3       6       4       2       1       2       2       1      10       5
       5       3       2       1       5       7       3       2       7      10
       5       4      12       6      11      15       7      13       9       4
       6       3       5       3       3       2       2       1      10       5
       5       3       2       1       5       7       3       2       7      10
       5       4      12       6      11      15       7      12       7       3
       6       8       8       5       2       1       4       3       2       1
       1      10       5       5       3       2       1       5       7       3
       2       7      10       5       4      12       6      11      15       7
      13       9       4       6       3       5       3       3       2       2
       1      10       5       5       3       2       1       5       7       3
       2       7      10       5       4      12       6      11      15       7
      12       7       3       6       7       7       4       7       3       5
       4       2       1       1       1      10       5       5       3       2
       1       5       7       3       2       7      10       5       4      12
       6      11      15       7      12       7       3       6       7       7
       4       7       3       5       4       2       1       1       1      10
       5       5       3       2       1       5       7       3       2       7
      10       5       4      12       6      11      15       7      13       9
       4       6       3       5       3       3       2       2       1      10
       5       5       3       2       1       5       7       3       2       7
      10       5       4      12       6      11      15       7      12       9
       4       7       3       6       4       2       1       2       2       1
       7       5       5       3       2       1       1       1       1       1
       1       1       1       1       1       1       1       1       1       1
       1       1       1       1       1       1       1       1       1       1
       1       1       1       1       1       1       1       1       1       1
       1       1       1       1       1       1       1       1       1       1
       1       1       1       1       1       1       1       1       1       1
       1       1       1       1       1       1       1       1       1       1
       1       1       1       1       1       1       1       1       1       1
       1       1       1       1       1       1       1       1       1       1
       1       1       1       1       1       1       1       1       1       1
       1       1       1       1       1       1       1       1       1       1
       1       1       1       1       1       1       1       1       1       1
       1       1       1       1       1       1       1       1       1       1
       1       1       1       1       1       1       1       1       1       7
      10       9       9       9       8      10      11      10       7       7
       5       6       8       6       6       4       3       2       1       1
       1       1       1       1       1       1       1       1       1       3
       2       1       1       3       2       1       1       3       2       1
       1       3       2       1       1       3       2       1       1       3
       2       1       1       3       2       1       1       3       2       1
       1       3       2       1       1       3       2       1       1       3
       2       1       1       3       2       1       1       3       2       1
       1       3       2       1       1       3       2       1       1       3
       2       1       1       3       2       1       1       3       2       1
       1       3       2       1       1       3       2       1       1       3
       2       1       1       3       2       1       1       3       2       1
       1       3       2       1       1       3       2       1       1       3
       2       1       1       3       2       1       1       3       2       1
       1       3       2       1       1       3       2       1       1       3
       2       1       1       3       2       1       1       3       2       1
       1       3       2       1       1       3       2       1       1       3
       2       1       1       3       2       1       1       3       2       1
       1       3       2       1       1       3       2       1       1       3
       2       1       1       3       2       1       1       3       2       1
       1       3       2       1       1       3       2       1       1       3
       2       1       1       3       2       1       1       3       2       1
       1       3       2       1       1       3       2       1       1       3
       2       1       1       3       2       1       1       3       2       1
       1       3       2       1       1       3       2       1       1       3
       2       1       1       3       2       1       1       3       2       1
       1       3       2       1       1       3       2       1       1       3
       2       1       1       3       2       1       1       3       2       1
       1       3       2       1       1       3       2       1       1       3
       2       1       1       3       2       1       1       3       2       1
       1       3       2       1       1       3       2       1       1       3
       2       1       1       3       2       1       1       3       2       1
       1       3       2       1       1       3       2       1       1       3
       2       1       1       3       2       1       1       3       2       1
       1       3       2       1       1       3       2       1       1       3
       2       1       1       3       2       1       1       3       2       1
       1       3       2       1       1       3       2       1       1       3
       2       1       1       3       2       1       1       3       2       1
       1       3       2       1       1       3       2       1       1       3
       2       1       1       3       2       1       1       3       2       1
       1       3       2       1       1       3       2       1       1       3
       2       1       1       3       2       1       1       3       2       1
       1       3       2       1       1       3       2       1       1       3
       2       1       1       3       2       1       1       3       2       1
       1       3       2       1       1       3       2       1       1       3
       2       1       1       3       2       1       1       3       2       1
       1       3       2       1       1       3       2       1       1       3
       2       1       1       3       2       1       1       3       2       1
       1       3       2       1       1       3       2       1       1       3
       2       1       1       3       2       1       1       3       2       1
       1       3       2       1       1       3       2       1       1       3
       2       1       1       3       2       1       1       3       2       1
       1       3       2       1       1       3       2       1       1       3
       2       1       1       3       2       1       1       3       2       1
       1       3       2       1       1       3       2       1       1       3
       2       1       1       3       2       1       1       3       2       1
       1       3       2       1       1       3       2       1       1       3
       2       1       1       3       2       1       1       3       2       1
       1       3       2       1       1       3       2       1       1       3
       2       1       1       3       2       1       1       3       2       1
       1       3       2       1       1       3       2       1       1       3
       2       1       1       3       2       1       1       3       2       1
       1       3       2       1       1       3       2       1       1       3
       2       1       1       3       2       1       1       3       2       1
       1       3       2       1       1       3       2       1       1       3
       2       1       1       3       2       1       1       3       2       1
       1       3       2       1       1       3       2       1       1       3
       2       1       1       3       2       1       1       3       2       1
       1       3       2       1       1       3       2       1       1       3
       2       1       1       3       2       1       1       3       2       1
       1       3       2       1       1       3       2       1       1       3
       2       1       1       3       2       1       1       3       2       1
       1       3       2       1       1       3       2       1       1       3
       2       1       1       3       2       1       1       3       2       1
       1       3       2       1       1       3       2       1       1       3
       2       1       1       3       2       1       1       3       2       1
       1       3       2       1       1       3       2       1       1       3
       2       1       1       3       2       1       1       3       2       1
       1       3       2       1       1       3       2       1       1       3
       2       1       1       3       2       1       1       3       2       1
       1       3       2       1       1       3       2       1       1       3
       2       1       1       3       2       1       1       3       2       1
       1       3       2       1       1       3       2       1       1       3
       2       1       1       3       2       1       1       3       2       1
       1       3       2       1       1       3       2       1       1       3
       2       1       1       3       2       1       1       3       2       1
       1       3       2       1       1       3       2       1       1       3
       2       1       1       3       2       1       1       3       2       1
       1       3       2       1       1       3       2       1       1       3
       2       1       1       3       2       1       1       3       2       1
       1       3       2       1       1       3       2       1       1       3
       2       1       1       3       2       1       1       3       2       1
       1       3       2       1       1       3       2       1       1       3
       2       1       1       3       2       1       1       3       2       1
       1       3       2       1       1       3       2       1       1       3
       2       1       1       3       2       1       1       3       2       1
       1       3       2       1       1       3       2       1       1       3
       2       1       1       3       2       1       1       3       2       1
       1       3       2       1       1       3       2       1       1       3
       2       1       1       3       2       1       1       3       2       1
       1       3       2       1       1       3       2       1       1       3
       2       1       1       3       2       1       1       3       2       1
       1       3       2       1       1       3       2       1       1       3
       2       1       1       3       2       1       1       3       2       1
       1       3       2       1       1       3       2       1       1       3
       2       1       1       3       2       1       1       3       2       1
       1       3       2       1       1       3       2       1       1       3
       2       1       1       3       2       1       1       3       2       1
       1       3       2       1       1       3       2       1       1       3
       2       1       1       3       2       1       1       3       2       1
       1       3       2       1       1       3       2       1       1       3
       2       1       1       3       2       1       1       3       2       1
       1       3       2       1       1       3       2       1       1       3
       2       1       1       3       2       1       1       3       2       1
       1       3       2       1       1       3       2       1       1       3
       2       1       1       3       2       1       1       3       2       1
       1       3       2       1       1       3       2       1       1       3
       2       1       1       3       2       1       1       3       2       1
       1       3       2       1       1       3       2       1       1       3
       2       1       1       3       2       1       1       3       2       1
       1       3       2       1       1       3       2       1       1       3
       2       1       1       3       2       1       1       3       2       1
       1       3       2       1       1       3       2       1       1       3
       2       1       1       3       2       1       1       3       2       1
       1       3       2       1       1       3       2       1       1       3
       2       1       1       3       2       1       1       3       2       1
       1       3       2       1       1       3       2       1       1       3
       2       1       1       3       2       1       1       3       2       1
       1       3       2       1       1       3       2       1       1       3
       2       1       1       3       2       1       1       3       2       1
       1       3       2       1       1       3       2       1       1       3
       2       1       1       3       2       1       1       3       2       1
       1       3       2       1       1       3       2       1       1       3
       2       1       1       3       2       1       1       3       2       1
       1       3       2       1       1       3       2       1       1       3
       2       1       1       3       2       1       1       3       2       1
       1       3       2       1       1       3       2       1       1       3
       2       1       1       3       2       1       1       3       2       1
       1       3       2       1       1       3       2       1       1       3
       2       1       1       3       2       1       1       3       2       1
       1       3       2       1       1       3       2       1       1       3
       2       1       1       3       2       1       1       3       2       1
       1       3       2       1       1       3       2       1       1       3
       2       1       1       3       2       1       1       3       2       1
       1       3       2       1       1       3       2       1       1       3
       2       1       1       3       2       1       1       3       2       1
       1       3       2       1       1       3       2       1       1       3
       2       1       1       3       2       1       1       3       2       1
       1       3       2       1       1       3       2       1       1       3
       2       1       1       3       2       1       1       3       2       1
       1       3       2       1       1       3       2       1       1       3
       2       1       1       3       2       1       1       3       2       1
       1       3       2       1       1       3       2       1       1       3
       2       1       1       3       2       1       1       3       2       1
       1       3       2       1       1       3       2       1       1       3
       2       1       1       3       2       1       1       3       2       1
       1       3       2       1       1       3       2       1       1       3
       2       1       1       3       2       1       1       3       2       1
       1       3       2       1       1       3       2       1       1       3
       2       1       1       3       2       1       1       3       2       1
       1       3       2       1       1       3       2       1       1       3
       2       1       1       3       2       1       1       3       2       1
       1       3       2       1       1       3       2       1       1       3
       2       1       1       3       2       1       1       3       2       1
       1       3       2       1       1       3       2       1       1       3
       2       1       1       3       2       1       1       3       2       1
       1       3       2       1       1       3       2       1       1       3
       2       1       1       3       2       1       1       3       2       1
       1       3       2       1       1       3       2       1       1       3
       2       1       1       3       2       1       1       3       2       1
       1       3       2       1       1       3       2       1       1       3
       2       1       1       3       2       1       1       3       2       1
       1       3       2       1       1       3       2       1       1       3
       2       1       1       3       2       1       1       3       2       1
       1       3       2       1       1       3       2       1       1       3
       2       1       1       3       2       1       1       3       2       1
       1       3       2       1       1       3       2       1       1       3
       2       1       1       3       2       1       1       3       2       1
       1       3       2       1       1       3       2       1       1       3
       2       1       1       3       2       1       1       3       2       1
       1       3       2       1       1       3       2       1       1       3
       2       1       1       3       2       1       1       3       2       1
       1       3       2       1       1       3       2       1       1       3
       2       1       1       3       2       1       1       3       2       1
       1       3       2       1       1       3       2       1       1       3
       2       1       1       3       2       1       1       3       2       1
       1       3       2       1       1       3       2       1       1       3
       2       1       1       3       2       1       1       3       2       1
       1       3       2       1       1       3       2       1       1       3
       2       1       1       3       2       1       1       3       2       1
       1       3       2       1       1       3       2       1       1       3
       2       1       1       3       2       1       1       3       2       1
       1       3       2       1       1       3       2       1       1       3
       2       1       1       3       2       1       1       3       2       1
       1       3       2       1       1       3       2       1       1       3
       2       1       1       3       2       1       1       3       2       1
       1       3       2       1       1       3       2       1       1       3
       2       1       1       3       2       1       1       3       2       1
       1       3       2       1       1       3       2       1       1       3
       2       1       1       3       2       1       1       3       2       1
       1       3       2       1       1       3       2       1       1       3
       2       1       1       3       2       1       1       3       2       1
       1       3       2       1       1       3       2       1       1       3
       2       1       1       3       2       1       1       3       2       1
       1       3       2       1       1       3       2       1       1       3
       2       1       1       3       2       1       1       3       2       1
       1       3       2       1       1       3       2       1       1       3
       2       1       1       3       2       1       1       3       2       1
       1       3       2       1       1       3       2       1       1       3
       2       1       1       3       2       1       1       3       2       1
       1       3       2       1       1       3       2       1       1       3
       2       1       1       3       2       1       1       3       2       1
       1       3       2       1       1       3       2       1       1       3
       2       1       1       3       2       1       1       3       2       1
       1       3       2       1       1       3       2       1       1       3
       2       1       1       3       2       1       1       3       2       1
       1       3       2       1       1       3       2       1       1       3
       2       1       1       3       2       1       1       3       2       1
       1       3       2       1       1       3       2       1       1       3
       2       1       1       3       2       1       1       3       2       1
       1       3       2       1       1       3       2       1       1       3
       2       1       1       3       2       1       1       3       2       1
       1       3       2       1       1       3       2       1       1       3
       2       1       1       3       2       1       1       3       2       1
       1       3       2       1       1       3       2       1       1       3
       2       1       1       3       2       1       1       3       2       1
       1       3       2       1       1       3       2       1       1       3
       2       1       1       3       2       1       1       3       2       1
       1       3       2       1       1       3       2       1       1       3
       2       1       1       3       2       1       1       3       2       1
       1       3       2       1       1       3       2       1       1       3
       2       1       1       3       2       1       1       3       2       1
       1       3       2       1       1       3       2       1       1       3
       2       1       1       3       2       1       1       3       2       1
       1       3       2       1       1       3       2       1       1       3
       2       1       1       3       2       1       1       3       2       1
       1       3       2       1       1       3       2       1       1       3
       2       1       1       3       2       1       1       3       2       1
       1       3       2       1       1       3       2       1       1       3
       2       1       1       3       2       1       1       3       2       1
       1       3       2       1       1       3       2       1       1       3
       2       1       1       3       2       1       1       3       2       1
       1       3       2       1       1       3       2       1       1       3
       2       1       1       3       2       1       1       3       2       1
       1       3       2       1       1       3       2       1       1       3
       2       1       1       3       2       1       1       3       2       1
       1       3       2       1       1       3       2       1       1       3
       2       1       1       3       2       1       1       3       2       1
       1       3       2       1       1       3       2       1       1       3
       2       1       1       3       2       1       1       3       2       1
       1       3       2       1       1       3       2       1       1       3
       2       1       1       3       2       1       1       3       2       1
       1       3       2       1       1       3       2       1       1       3
       2       1       1       3       2       1       1       3       2       1
       1       3       2       1       1       3       2       1       1       3
       2       1       1       3       2       1       1       3       2       1
       1       3       2       1       1       3       2       1       1       3
       2       1       1       3       2       1       1       3       2       1
       1       3       2       1       1       3       2       1       1       3
       2       1       1       3       2       1       1       3       2       1
       1       3       2       1       1       3       2       1       1       3
       2       1       1       3       2       1       1       3       2       1
       1       3       2       1       1       3       2       1       1       3
       2       1       1       3       2       1       1       3       2       1
       1       3       2       1       1       3       2       1       1       3
       2       1       1       3       2       1       1       3       2       1
       1       3       2       1       1       3       2       1       1       3
       2       1       1       3       2       1       1       3       2       1
       1       3       2       1       1       3       2       1       1       3
       2       1       1       3       2       1       1       3       2       1
       1       3       2       1       1       3       2       1       1       3
       2       1       1       3       2       1       1       3       2       1
       1       3       2       1       1       3       2       1       1       3
       2       1       1       3       2       1       1       3       2       1
       1       3       2       1       1       3       2       1       1       3
       2       1       1       3       2       1       1       3       2       1
       1       3       2       1       1       3       2       1       1       3
       2       1       1       3       2       1       1       3       2       1
       1       3       2       1       1       3       2       1       1       3
       2       1       1       3       2       1       1       3       2       1
       1       3       2       1       1       3       2       1       1       3
       2       1       1       3       2       1       1       3       2       1
       1       3       2       1       1       3       2       1       1       3
       2       1       1       3       2       1       1       3       2       1
       1       3       2       1       1       3       2       1       1       3
       2       1       1       3       2       1       1       3       2       1
       1       3       2       1       1       3       2       1       1       3
       2       1       1       3       2       1       1       3       2       1
       1       3       2       1       1       3       2       1       1       3
       2       1       1       3       2       1       1       3       2       1
       1       3       2       1       1       3       2       1       1       3
       2       1       1       3       2       1       1       3       2       1
       1       3       2       1       1       3       2       1       1       3
       2       1       1       3       2       1       1       3       2       1
       1       3       2       1       1       3       2       1       1       3
       2       1       1       3       2       1       1       3       2       1
       1       3       2       1       1       3       2       1       1       3
       2       1       1       3       2       1       1       3       2       1
       1       3       2       1       1       3       2       1       1       3
       2       1       1       3       2       1       1       3       2       1
       1       3       2       1       1       3       2       1       1       3
       2       1       1       3       2       1       1       3       2       1
       1       3       2       1       1       3       2       1       1       3
       2       1       1       3       2       1       1       3       2       1
       1       3       2       1       1       3       2       1       1       3
       2       1       1       3       2       1       1       3       2       1
       1       3       2       1       1       3       2       1       1       3
       2       1       1       3       2       1       1       3       2       1
       1       3       2       1       1       3       2       1       1       3
       2       1       1       3       2       1       1       3       2       1
       1       3       2       1       1       3       2       1       1       3
       2       1       1       3       2       1       1       3       2       1
       1       3       2       1       1       3       2       1       1       3
       2       1       1       3       2       1       1       3       2       1
       1       3       2       1       1       3       2       1       1       3
       2       1       1       3       2       1       1       3       2       1
       1       3       2       1       1       3       2       1       1       3
       2       1       1       3       2       1       1       3       2       1
       1       3       2       1       1       3       2       1       1       3
       2       1       1       3       2       1       1       3       2       1
       1       3       2       1       1       3       2       1       1       3
       2       1       1       3       2       1       1       3       2       1
       1       3       2       1       1       3       2       1       1       3
       2       1       1       3       2       1       1       3       2       1
       1       3       2       1       1       3       2       1       1       3
       2       1       1       3       2       1       1       3       2       1
       1       3       2       1       1       3       2       1       1       3
       2       1       1       3       2       1       1       3       2       1
       1       3       2       1       1       3       2       1       1       3
       2       1       1       3       2       1       1       3       2       1
       1       3       2       1       1       3       2       1       1       3
       2       1       1       3       2       1       1       3       2       1
       1       3       2       1       1       3       2       1       1       3
       2       1       1       3       2       1       1       3       2       1
       1       3       2       1       1       3       2       1       1       3
       2       1       1       3       2       1       1       3       2       1
       1       3       2       1       1       3       2       1       1       3
       2       1       1       3       2       1       1       3       2       1
       1       3       2       1       1       3       2       1       1       3
       2       1       1       3       2       1       1       3       2       1
       1       3       2       1       1       3       2       1       1       3
       2       1       1       3       2       1       1       3       2       1
       1       3       2       1       1       3       2       1       1       3
       2       1       1       3       2       1       1       3       2       1
       1       3       2       1       1       3       2       1       1       3
       2       1       1       3       2       1       1       3       2       1
       1       3       2       1       1       3       2       1       1       3
       2       1       1       3       2       1       1       3       2       1
       1       3       2       1       1       3       2       1       1       3
       2       1       1       3       2       1       1       3       2       1
       1       3       2       1       1       3       2       1       1       3
       2       1       1       3       2       1       1       3       2       1
       1       3       2       1       1       3       2       1       1       3
       2       1       1       3       2       1       1       3       2       1
       1       3       2       1       1       3       2       1       1       3
       2       1       1       3       2       1       1       3       2       1
       1       3       2       1       1       3       2       1       1       3
       2       1       1       3       2       1       1       3       2       1
       1       3       2       1       1       3       2       1       1       3
       2       1       1       3       2       1       1       3       2       1
       1       3       2       1       1       3       2       1       1       3
       2       1       1       3       2       1       1       3       2       1
       1       3       2       1       1       3       2       1       1       3
       2       1       1       3       2       1       1       3       2       1
       1       3       2       1       1       3       2       1       1       3
       2       1       1       3       2       1       1       3       2       1
       1       3       2       1       1       3       2       1       1       3
       2       1       1       3       2       1       1       3       2       1
       1       3       2       1       1       3       2       1       1       3
       2       1       1       3       2       1       1       3       2       1
       1       3       2       1       1       3       2       1       1       3
       2       1       1       3       2       1       1       3       2       1
       1       3       2       1       1       3       2       1       1       3
       2       1       1       3       2       1       1       3       2       1
       1       3       2       1       1       3       2       1       1       3
       2       1       1       3       2       1       1       3       2       1
       1       3       2       1       1       3       2       1       1       3
       2       1       1       3       2       1       1       3       2       1
       1       3       2       1       1       3       2       1       1       3
       2       1       1       3       2       1       1       3       2       1
       1       3       2       1       1       3       2       1       1       3
       2       1       1       3       2       1       1       3       2       1
       1       3       2       1       1       3       2       1       1       3
       2       1       1       3       2       1       1       3       2       1
       1       3       2       1       1       3       2       1       1       3
       2       1       1       3       2       1       1       3       2       1
       1       3       2       1       1       3       2       1       1       3
       2       1       1       3       2       1       1       3       2       1
       1       3       2       1       1       3       2       1       1       3
       2       1       1       3       2       1       1       3       2       1
       1       3       2       1       1       3       2       1       1       3
       2       1       1       3       2       1       1       3       2       1
       1       3       2       1       1       3       2       1       1       3
       2       1       1       3       2       1       1       3       2       1
       1       3       2       1       1       3       2       1       1       3
       2       1       1       3       2       1       1       3       2       1
       1       3       2       1       1       3       2       1       1       3
       2       1       1       3       2       1       1       3       2       1
       1       3       2       1       1       3       2       1       1       3
       2       1       1       3       2       1       1       3       2       1
       1       3       2       1       1       3       2       1       1       3
       2       1       1       3       2       1       1       3       2       1
       1       3       2       1       1       3       2       1       1       3
       2       1       1       3       2       1       1       3       2       1
       1       3       2       1       1       3       2       1       1       3
       2       1       1       3       2       1       1       3       2       1
       1       3       2       1       1       3       2       1       1       3
       2       1       1       3       2       1       1       3       2       1
       1       3       2       1       1       3       2       1       1       3
       2       1       1       3       2       1       1       3       2       1
       1       3       2       1       1       3       2       1       1       3
       2       1       1       3       2       1       1       3       2       1
       1       3       2       1       1       3       2       1       1       3
       2       1       1       3       2       1       1       3       2       1
       1       3       2       1       1       3       2       1       1       3
       2       1       1       3       2       1       1       3       2       1
       1       3       2       1       1       3       2       1       1       3
       2       1       1       3       2       1       1       3       2       1
       1       3       2       1       1       3       2       1       1       3
       2       1       1       3       2       1       1       3       2       1
       1       3       2       1       1       3       2       1       1       3
       2       1       1       3       2       1       1       3       2       1
       1       3       2       1       1       3       2       1       1       3
       2       1       1       3       2       1       1       3       2       1
       1       3       2       1       1       3       2       1       1       3
       2       1       1       3       2       1       1       3       2       1
       1       3       2       1       1       3       2       1       1       3
       2       1       1       3       2       1       1       3       2       1
       1       3       2       1       1       3       2       1       1       3
       2       1       1       3       2       1       1       3       2       1
       1       3       2       1       1       3       2       1       1       3
       2       1       1       3       2       1       1       3       2       1
       1       3       2       1       1       3       2       1       1       3
       2       1       1       3       2       1       1       3       2       1
       1       3       2       1       1       3       2       1       1       3
       2       1       1       3       2       1       1       3       2       1
       1       3       2       1       1       3       2       1       1       3
       2       1       1       3       2       1       1       3       2       1
       1       3       2       1       1       3       2       1       1       3
       2       1       1       3       2       1       1       3       2       1
       1       3       2       1       1       3       2       1       1       3
       2       1       1       3       2       1       1       3       2       1
       1       3       2       1       1       3       2       1       1       3
       2       1       1       3       2       1       1       3       2       1
       1       3       2       1       1       3       2       1       1       3
       2       1       1       3       2       1       1       3       2       1
       1       3       2       1       1       3       2       1       1       3
       2       1       1       3       2       1       1       3       2       1
       1       3       2       1       1       3       2       1       1       3
       2       1       1       3       2       1       1       3       2       1
       1       3       2       1       1       3       2       1       1       3
       2       1       1       3       2       1       1       3       2       1
       1       3       2       1       1       3       2       1       1       3
       2       1       1       3       2       1       1       3       2       1
       1       3       2       1       1       3       2       1       1       3
       2       1       1       3       2       1       1       3       2       1
       1       3       2       1       1       3       2       1       1       3
       2       1       1       3       2       1       1       3       2       1
       1       3       2       1       1       3       2       1       1       3
       2       1       1       3       2       1       1       3       2       1
       1       3       2       1       1       3       2       1       1       3
       2       1       1       3       2       1       1       3       2       1
       1       3       2       1       1       3       2       1       1       3
       2       1       1       3       2       1       1       3       2       1
       1       3       2       1       1       3       2       1       1       3
       2       1       1       3       2       1       1       3       2       1
       1       3       2       1       1       3       2       1       1       3
       2       1       1       3       2       1       1       3       2       1
       1       3       2       1       1       3       2       1       1       3
       2       1       1       3       2       1       1       3       2       1
       1       3       2       1       1       3       2       1       1       3
       2       1       1       3       2       1       1       3       2       1
       1       3       2       1       1       3       2       1       1       3
       2       1       1       3       2       1       1       3       2       1
       1       3       2       1       1       3       2       1       1       3
       2       1       1       3       2       1       1       3       2       1
       1       3       2       1       1       3       2       1       1       3
       2       1       1       3       2       1       1       3       2       1
       1       3       2       1       1       3       2       1       1       3
       2       1       1       3       2       1       1       3       2       1
       1       3       2       1       1       3       2       1       1       3
       2       1       1       3       2       1       1       3       2       1
       1       3       2       1       1       3       2       1       1       3
       2       1       1       3       2       1       1       3       2       1
       1       3       2       1       1       3       2       1       1       3
       2       1       1       3       2       1       1       3       2       1
       1       3       2       1       1       3       2       1       1       3
       2       1       1       3       2       1       1       3       2       1
       1       3       2       1       1       3       2       1       1       3
       2       1       1       3       2       1       1       3       2       1
       1       3       2       1       1       3       2       1       1       3
       2       1       1       3       2       1       1       3       2       1
       1       3       2       1       1       3       2       1       1       3
       2       1       1       3       2       1       1       3       2       1
       1       3       2       1       1       3       2       1       1       3
       2       1       1       3       2       1       1       3       2       1
       1       3       2       1       1       3       2       1       1       3
       2       1       1       3       2       1       1       3       2       1
       1       3       2       1       1       3       2       1       1       3
       2       1       1       3       2       1       1       3       2       1
       1       3       2       1       1       3       2       1       1       3
       2       1       1       3       2       1       1       3       2       1
       1       3       2       1       1       3       2       1       1       3
       2       1       1       3       2       1       1       3       2       1
       1       3       2       1       1       3       2       1       1       3
       2       1       1       3       2       1       1       3       2       1
       1       3       2       1       1       3       2       1       1       3
       2       1       1       3       2       1       1       3       2       1
       1       3       2       1       1       3       2       1       1       3
       2       1       1       3       2       1       1       3       2       1
       1       3       2       1       1       3       2       1       1       3
       2       1       1       3       2       1       1       3       2       1
       1       3       2       1       1       3       2       1       1       3
       2       1       1       3       2       1       1       3       2       1
       1       3       2       1       1       3       2       1       1       3
       2       1       1       3       2       1       1       3       2       1
       1       3       2       1       1       3       2       1       1       3
       2       1       1       3       2       1       1       3       2       1
       1       3       2       1       1       3       2       1       1       3
       2       1       1       3       2       1       1       3       2       1
       1       3       2       1       1       3       2       1       1       3
       2       1       1       3       2       1       1       3       2       1
       1       3       2       1       1       3       2       1       1       3
       2       1       1       3       2       1       1       3       2       1
       1       3       2       1       1       3       2       1       1       3
       2       1       1       3       2       1       1       3       2       1
       1       3       2       1       1       3       2       1       1       3
       2       1       1       3       2       1       1       3       2       1
       1       3       2       1       1       3       2       1       1       3
       2       1       1       3       2       1       1       3       2       1
       1       3       2       1       1       3       2       1       1       3
       2       1       1       3       2       1       1       3       2       1
       1       3       2       1       1       3       2       1       1       3
       2       1       1       3       2       1       1       3       2       1
       1       3       2       1       1       3       2       1       1       3
       2       1       1       3       2       1       1       3       2       1
       1       3       2       1       1       3       2       1       1       3
       2       1       1       3       2       1       1       3       2       1
       1       3       2       1       1       3       2       1       1       3
       2       1       1       3       2       1       1       3       2       1
       1       3       2       1       1       3       2       1       1       3
       2       1       1       3       2       1       1       3       2       1
       1       3       2       1       1       3       2       1       1       3
       2       1       1       3       2       1       1       3       2       1
       1       3       2       1       1       3       2       1       1       3
       2       1       1       3       2       1       1       3       2       1
       1       3       2       1       1       3       2       1       1       3
       2       1       1       3       2       1       1       3       2       1
       1       3       2       1       1       3       2       1       1       3
       2       1       1       3       2       1       1       3       2       1
       1       3       2       1       1       3       2       1       1       3
       2       1       1       3       2       1       1       3       2       1
       1       3       2       1       1       3       2       1       1       3
       2       1       1       3       2       1       1       3       2       1
       1       3       2       1       1       3       2       1       1       3
       2       1       1       3       2       1       1       3       2       1
       1       3       2       1       1       3       2       1       1       3
       2       1       1       3       2       1       1       3       2       1
       1       3       2       1       1       3       2       1       1       3
       2       1       1       3       2       1       1       3       2       1
       1       3       2       1       1       3       2       1       1       3
       2       1       1       3       2       1       1       3       2       1
       1       3       2       1       1       3       2       1       1       3
       2       1       1       3       2       1       1       3       2       1
       1       3       2       1       1       3       2       1       1       3
       2       1       1       3       2       1       1       3       2       1
       1       3       2       1       1       3       2       1       1       3
       2       1       1       3       2       1       1       3       2       1
       1       3       2       1       1       3       2       1       1       3
       2       1       1       3       2       1       1       3       2       1
       1       3       2       1       1       3       2       1       1       3
       2       1       1       3       2       1       1       3       2       1
       1       3       2       1       1       3       2       1       1       3
       2       1       1       3       2       1       1       3       2       1
       1       3       2       1       1       3       2       1       1       3
       2       1       1       3       2       1       1       3       2       1
       1       3       2       1       1       3       2       1       1       3
       2       1       1       3       2       1       1       3       2       1
       1       3       2       1       1       3       2       1       1       3
       2       1       1       3       2       1       1       3       2       1
       1       3       2       1       1       3       2       1       1       3
       2       1       1       3       2       1       1       3       2       1
       1       3       2       1       1       3       2       1       1       3
       2       1       1       3       2       1       1       3       2       1
       1       3       2       1       1       3       2       1       1       3
       2       1       1       3       2       1       1       3       2       1
       1       3       2       1       1       3       2       1       1       3
       2       1       1       3       2       1       1       3       2       1
       1       3       2       1       1       3       2       1       1       3
       2       1       1       3       2       1       1       3       2       1
       1       3       2       1       1       3       2       1       1       3
       2       1       1       3       2       1       1       3       2       1
       1       3       2       1       1       3       2       1       1       3
       2       1       1       3       2       1       1       3       2       1
       1       3       2       1       1       3       2       1       1       3
       2       1       1       3       2       1       1       3       2       1
       1       3       2       1       1       3       2       1       1       3
       2       1       1       3       2       1       1       3       2       1
       1       3       2       1       1       3       2       1       1       3
       2       1       1       3       2       1       1       3       2       1
       1       3       2       1       1       3       2       1       1       3
       2       1       1       3       2       1       1       3       2       1
       1       3       2       1       1       3       2       1       1       3
       2       1       1       3       2       1       1       3       2       1
       1       3       2       1       1       3       2       1       1       3
       2       1       1       3       2       1       1       3       2       1
       1       3       2       1       1       3       2       1       1       3
       2       1       1       3       2       1       1       3       2       1
       1       3       2       1       1       3       2       1       1       3
       2       1       1       3       2       1       1       3       2       1
       1       3       2       1       1       3       2       1       1       3
       2       1       1       3       2       1       1       3       2       1
       1       3       2       1       1       3       2       1       1       3
       2       1       1       3       2       1       1       3       2       1
       1       3       2       1       1       3       2       1       1       3
       2       1       1       3       2       1       1       3       2       1
       1       3       2       1       1       3       2       1       1       3
       2       1       1       3       2       1       1       3       2       1
       1       3       2       1       1       3       2       1       1       3
       2       1       1       3       2       1       1       3       2       1
       1       3       2       1       1       3       2       1       1       3
       2       1       1       3       2       1       1       3       2       1
       1       3       2       1       1       3       2       1       1       3
       2       1       1       3       2       1       1       3       2       1
       1       3       2       1       1       3       2       1       1       3
       2       1       1       3       2       1       1       3       2       1
       1       3       2       1       1       3       2       1       1       3
       2       1       1       3       2       1       1       3       2       1
       1       3       2       1       1       3       2       1       1       3
       2       1       1       3       2       1       1       3       2       1
       1       3       2       1       1       3       2       1       1       3
       2       1       1       3       2       1       1       3       2       1
       1       3       2       1       1       3       2       1       1       3
       2       1       1       3       2       1       1       3       2       1
       1       3       2       1       1       3       2       1       1       3
       2       1       1       3       2       1       1       3       2       1
       1       3       2       1       1       3       2       1       1       3
       2       1       1       3       2       1       1       3       2       1
       1       3       2       1       1       3       2       1       1       3
       2       1       1       3       2       1       1       3       2       1
       1       3       2       1       1       3       2       1       1       3
       2       1       1       3       2       1       1       3       2       1
       1       3       2       1       1       3       2       1       1       3
       2       1       1       3       2       1       1       3       2       1
       1       3       2       1       1       3       2       1       1       3
       2       1       1       3       2       1       1       3       2       1
       1       3       2       1       1       3       2       1       1       3
       2       1       1       3       2       1       1       3       2       1
       1       3       2       1       1       3       2       1       1       3
       2       1       1       3       2       1       1       3       2       1
       1       3       2       1       1       3       2       1       1       3
       2       1       1       3       2       1       1       3       2       1
       1       3       2       1       1       3       2       1       1       3
       2       1       1       3       2       1       1       3       2       1
       1       3       2       1       1       3       2       1       1       3
       2       1       1       3       2       1       1       3       2       1
       1       3       2       1       1       3       2       1       1       3
       2       1       1       3       2       1       1       3       2       1
       1       3       2       1       1       3       2       1       1       3
       2       1       1       3       2       1       1       3       2       1
       1       3       2       1       1       3       2       1       1       3
       2       1       1       3       2       1       1       3       2       1
       1       3       2       1       1       3       2       1       1       3
       2       1       1       3       2       1       1       3       2       1
       1       3       2       1       1       3       2       1       1       3
       2       1       1       3       2       1       1       3       2       1
       1       3       2       1       1       3       2       1       1       3
       2       1       1       3       2       1       1       3       2       1
       1       3       2       1       1       3       2       1       1       3
       2       1       1       3       2       1       1       3       2       1
       1       3       2       1       1       3       2       1       1       3
       2       1       1       3       2       1       1       3       2       1
       1       3       2       1       1       3       2       1       1       3
       2       1       1       3       2       1       1       3       2       1
       1       3       2       1       1       3       2       1       1       3
       2       1       1       3       2       1       1       3       2       1
       1       3       2       1       1       3       2       1       1       3
       2       1       1       3       2       1       1       3       2       1
       1       3       2       1       1       3       2       1       1       3
       2       1       1       3       2       1       1       3       2       1
       1       3       2       1       1       3       2       1       1       3
       2       1       1       3       2       1       1       3       2       1
       1       3       2       1       1       3       2       1       1       3
       2       1       1       3       2       1       1       3       2       1
       1       3       2       1       1       3       2       1       1       3
       2       1       1       3       2       1       1       3       2       1
       1       3       2       1       1       3       2       1       1       3
       2       1       1       3       2       1       1       3       2       1
       1       3       2       1       1       3       2       1       1       3
       2       1       1       3       2       1       1       3       2       1
       1       3       2       1       1       3       2       1       1       3
       2       1       1       3       2       1       1       3       2       1
       1       3       2       1       1       3       2       1       1       3
       2       1       1       3       2       1       1       3       2       1
       1       3       2       1       1       3       2       1       1       3
       2       1       1       3       2       1       1       3       2       1
       1       3       2       1       1       3       2       1       1       3
       2       1       1       3       2       1       1       3       2       1
       1       3       2       1       1       3       2       1       1       3
       2       1       1       3       2       1       1       3       2       1
       1       3       2       1       1       3       2       1       1       3
       2       1       1       3       2       1       1       3       2       1
       1       3       2       1       1       3       2       1       1       3
       2       1       1       3       2       1       1       3       2       1
       1       3       2       1       1       3       2       1       1       3
       2       1       1       3       2       1       1       3       2       1
       1       3       2       1       1       3       2       1       1       3
       2       1       1       3       2       1       1       3       2       1
       1       3       2       1       1       3       2       1       1       3
       2       1       1       3       2       1       1       3       2       1
       1       3       2       1       1       3       2       1       1       3
       2       1       1       3       2       1       1       3       2       1
       1       3       2       1       1       3       2       1       1       3
       2       1       1       3       2       1       1       3       2       1
       1       3       2       1       1       3       2       1       1       3
       2       1       1       3       2       1       1       3       2       1
       1       3       2       1       1       3       2       1       1       3
       2       1       1       3       2       1       1       3       2       1
       1       3       2       1       1       3       2       1       1       3
       2       1       1       3       2       1       1       3       2       1
       1       3       2       1       1       3       2       1       1       3
       2       1       1       3       2       1       1       3       2       1
       1       3       2       1       1       3       2       1       1       3
       2       1       1       3       2       1       1       3       2       1
       1       3       2       1       1       3       2       1       1       3
       2       1       1       3       2       1       1       3       2       1
       1       3       2       1       1       3       2       1       1       3
       2       1       1       3       2       1       1       3       2       1
       1       3       2       1       1       3       2       1       1       3
       2       1       1       3       2       1       1       3       2       1
       1       3       2       1       1       3       2       1       1       3
       2       1       1       3       2       1       1       3       2       1
       1       3       2       1       1       3       2       1       1       3
       2       1       1       3       2       1       1       3       2       1
       1       3       2       1       1       3       2       1       1       3
       2       1       1       3       2       1       1       3       2       1
       1       3       2       1       1       3       2       1       1       3
       2       1       1       3       2       1       1       3       2       1
       1       3       2       1       1       3       2       1       1       3
       2       1       1       3       2       1       1       3       2       1
       1       3       2       1       1       3       2       1       1       3
       2       1       1       3       2       1       1       3       2       1
       1       3       2       1       1       3       2       1       1       3
       2       1       1       3       2       1       1       3       2       1
       1       3       2       1       1       3       2       1       1       3
       2       1       1       3       2       1       1       3       2       1
       1       3       2       1       1       3       2       1       1       3
       2       1       1       3       2       1       1       3       2       1
       1       3       2       1       1       3       2       1       1       3
       2       1       1       3       2       1       1       3       2       1
       1       3       2       1       1       3       2       1       1       3
       2       1       1       3       2       1       1       3       2       1
       1       3       2       1       1       3       2       1       1       3
       2       1       1       3       2       1       1       3       2       1
       1       3       2       1       1       3       2       1       1       3
       2       1       1       3       2       1       1       3       2       1
       1       3       2       1       1       3       2       1       1       3
       2       1       1       3       2       1       1       3       2       1
       1       3       2       1       1       3       2       1       1       3
       2       1       1       3       2       1       1       3       2       1
       1       3       2       1       1       3       2       1       1       3
       2       1       1       3       2       1       1       3       2       1
       1       3       2       1       1       3       2       1       1       3
       2       1       1       3       2       1       1       3       2       1
       1       3       2       1       1       3       2       1       1       3
       2       1       1       3       2       1       1       3       2       1
       1       3       2       1       1       3       2       1       1       3
       2       1       1       3       2       1       1       3       2       1
       1       3       2       1       1       3       2       1       1       3
       2       1       1       3       2       1       1       3       2       1
       1       3       2       1       1       3       2       1       1       3
       2       1       1       3       2       1       1       3       2       1
       1       3       2       1       1       3       2       1       1       3
       2       1       1       3       2       1       1       3       2       1
       1       3       2       1       1       3       2       1       1       3
       2       1       1       3       2       1       1       3       2       1
       1       3       2       1       1       3       2       1       1       3
       2       1       1       3       2       1       1       3       2       1
       1       3       2       1       1       3       2       1       1       3
       2       1       1       3       2       1       1       3       2       1
       1       3       2       1       1       3       2       1       1       3
       2       1       1       3       2       1       1       3       2       1
       1       3       2       1       1       3       2       1       1       3
       2       1       1       3       2       1       1       3       2       1
       1       3       2       1       1       3       2       1       1       3
       2       1       1       3       2       1       1       3       2       1
       1       3       2       1       1       3       2       1       1       3
       2       1       1       3       2       1       1       3       2       1
       1       3       2       1       1       3       2       1       1       3
       2       1       1       3       2       1       1       3       2       1
       1       3       2       1       1       3       2       1       1       3
       2       1       1       3       2       1       1       3       2       1
       1       3       2       1       1       3       2       1       1       3
       2       1       1       3       2       1       1       3       2       1
       1       3       2       1       1       3       2       1       1       3
       2       1       1       3       2       1       1       3       2       1
       1       3       2       1       1       3       2       1       1       3
       2       1       1       3       2       1       1       3       2       1
       1       3       2       1       1       3       2       1       1       3
       2       1       1       3       2       1       1       3       2       1
       1       3       2       1       1       3       2       1       1       3
       2       1       1       3       2       1       1       3       2       1
       1       3       2       1       1       3       2       1       1       3
       2       1       1       3       2       1       1       3       2       1
       1       3       2       1       1       3       2       1       1       3
       2       1       1       3       2       1       1       3       2       1
       1       3       2       1       1       3       2       1       1       3
       2       1       1       3       2       1       1       3       2       1
       1       3       2       1       1       3       2       1       1       3
       2       1       1       3       2       1       1       3       2       1
       1       3       2       1       1       3       2       1       1       3
       2       1       1       3       2       1       1       3       2       1
       1       3       2       1       1       3       2       1       1       3
       2       1       1       3       2       1       1       3       2       1
       1       3       2       1       1       3       2       1       1       3
       2       1       1       3       2       1       1       3       2       1
       1       3       2       1       1       3       2       1       1       3
       2       1       1       3       2       1       1       3       2       1
       1       3       2       1       1       3       2       1       1       3
       2       1       1       3       2       1       1       3       2       1
       1       3       2       1       1       3       2       1       1       3
       2       1       1       3       2       1       1       3       2       1
       1       3       2       1       1       3       2       1       1       3
       2       1       1       3       2       1       1       3       2       1
       1       3       2       1       1       3       2       1       1       3
       2       1       1       3       2       1       1       3       2       1
       1       3       2       1       1       3       2       1       1       3
       2       1       1       3       2       1       1       3       2       1
       1       3       2       1       1       3       2       1       1       3
       2       1       1       3       2       1       1       3       2       1
       1       3       2       1       1       3       2       1       1       3
       2       1       1       3       2       1       1       3       2       1
       1       3       2       1       1       3       2       1       1       3
       2       1       1       3       2       1       1       3       2       1
       1       3       2       1       1       3       2       1       1       3
       2       1       1       3       2       1       1       3       2       1
       1       3       2       1       1       3       2       1       1       3
       2       1       1       3       2       1       1       3       2       1
       1       3       2       1       1       3       2       1       1       3
       2       1       1       3       2       1       1       3       2       1
       1       3       2       1       1       3       2       1       1       3
       2       1       1       3       2       1       1       3       2       1
       1       3       2       1       1       3       2       1       1       3
       2       1       1       3       2       1       1       3       2       1
       1       3       2       1       1       3       2       1       1       3
       2       1       1       3       2       1       1       3       2       1
       1       3       2       1       1       3       2       1       1       3
       2       1       1       3       2       1       1       3       2       1
       1       3       2       1       1       3       2       1       1       3
       2       1       1       3       2       1       1       3       2       1
       1       3       2       1       1       3       2       1       1       3
       2       1       1       3       2       1       1       3       2       1
       1       3       2       1       1       3       2       1       1       3
       2       1       1       3       2       1       1       3       2       1
       1       3       2       1       1       3       2       1       1       3
       2       1       1       3       2       1       1       3       2       1
       1       3       2       1       1       3       2       1       1       3
       2       1       1       3       2       1       1       3       2       1
       1       3       2       1       1       3       2       1       1       3
       2       1       1       3       2       1       1       3       2       1
       1       3       2       1       1       3       2       1       1       3
       2       1       1       3       2       1       1       3       2       1
       1       3       2       1       1       3       2       1       1       3
       2       1       1       3       2       1       1       3       2       1
       1       3       2       1       1       3       2       1       1       3
       2       1       1       3       2       1       1       3       2       1
       1       3       2       1       1       3       2       1       1       3
       2       1       1       3       2       1       1       3       2       1
       1       3       2       1       1       3       2       1       1       3
       2       1       1       3       2       1       1       3       2       1
       1       3       2       1       1       3       2       1       1       3
       2       1       1       3       2       1       1       3       2       1
       1       3       2       1       1       3       2       1       1       3
       2       1       1       3       2       1       1       3       2       1
       1       3       2       1       1       3       2       1       1       3
       2       1       1       3       2       1       1       3       2       1
       1       3       2       1       1       3       2       1       1       3
       2       1       1       3       2       1       1       3       2       1
       1       3       2       1       1       3       2       1       1       3
       2       1       1       3       2       1       1       3       2       1
       1       3       2       1       1       3       2       1       1       3
       2       1       1       3       2       1       1       3       2       1
       1       3       2       1       1       3       2       1       1       3
       2       1       1       3       2       1       1       3       2       1
       1       3       2       1       1       3       2       1       1       3
       2       1       1       3       2       1       1       3       2       1
       1       3       2       1       1       3       2       1       1       3
       2       1       1       3       2       1       1       3       2       1
       1       3       2       1       1       3       2       1       1       3
       2       1       1       3       2       1       1       3       2       1
       1       3       2       1       1       3       2       1       1       3
       2       1       1       3       2       1       1       3       2       1
       1       3       2       1       1       3       2       1       1       3
       2       1       1       3       2       1       1       3       2       1
       1       3       2       1       1       3       2       1       1       3
       2       1       1       3       2       1       1       3       2       1
       1       3       2       1       1       3       2       1       1       3
       2       1       1       3       2       1       1       3       2       1
       1       3       2       1       1       3       2       1       1       3
       2       1       1       3       2       1       1       3       2       1
       1       3       2       1       1       3       2       1       1       3
       2       1       1       3       2       1       1       3       2       1
       1       3       2       1       1       3       2       1       1       3
       2       1       1       3       2       1       1       3       2       1
       1       3       2       1       1       3       2       1       1       3
       2       1       1       3       2       1       1       3       2       1
       1       3       2       1       1       3       2       1       1       3
       2       1       1       3       2       1       1       3       2       1
       1       3       2       1       1       3       2       1       1       3
       2       1       1       3       2       1       1       3       2       1
       1       3       2       1       1       3       2       1       1       3
       2       1       1       3       2       1       1       3       2       1
       1       3       2       1       1       3       2       1       1       3
       2       1       1       3       2       1       1       3       2       1
       1       3       2       1       1       3       2       1       1       3
       2       1       1       3       2       1       1       3       2       1
       1       3       2       1       1       3       2       1       1       3
       2       1       1       3       2       1       1       3       2       1
       1       3       2       1       1       3       2       1       1       3
       2       1       1       3       2       1       1       3       2       1
       1       3       2       1       1       3       2       1       1       3
       2       1       1       3       2       1       1       3       2       1
       1       3       2       1       1       3       2       1       1       3
       2       1       1       3       2       1       1       3       2       1
       1       3       2       1       1       3       2       1       1       3
       2       1       1       3       2       1       1       3       2       1
       1       3       2       1       1       3       2       1       1       3
       2       1       1       3       2       1       1       3       2       1
       1       3       2       1       1       3       2       1       1       3
       2       1       1       3       2       1       1       3       2       1
       1       3       2       1       1       3       2       1       1       3
       2       1       1       3       2       1       1       3       2       1
       1       3       2       1       1       3       2       1       1       3
       2       1       1       3       2       1       1       3       2       1
       1       3       2       1       1       3       2       1       1       3
       2       1       1       3       2       1       1       3       2       1
       1       3       2       1       1       3       2       1       1       3
       2       1       1       3       2       1       1       3       2       1
       1       3       2       1       1       3       2       1       1       3
       2       1       1       3       2       1       1       3       2       1
       1       3       2       1       1       3       2       1       1       3
       2       1       1       3       2       1       1       3       2       1
       1       3       2       1       1       3       2       1       1       3
       2       1       1       3       2       1       1       3       2       1
       1       3       2       1       1       3       2       1       1       3
       2       1       1       3       2       1       1       3       2       1
       1       3       2       1       1       3       2       1       1       3
       2       1       1       3       2       1       1       3       2       1
       1       3       2       1       1       3       2       1       1       3
       2       1       1       3       2       1       1       3       2       1
       1       3       2       1       1       3       2       1       1       3
       2       1       1       3       2       1       1       3       2       1
       1       3       2       1       1       3       2       1       1       3
       2       1       1       3       2       1       1       3       2       1
       1       3       2       1       1       3       2       1       1       3
       2       1       1       3       2       1       1       3       2       1
       1       3       2       1       1       3       2       1       1       3
       2       1       1       3       2       1       1       3       2       1
       1       3       2       1       1       3       2       1       1       3
       2       1       1       3       2       1       1       3       2       1
       1       3       2       1       1       3       2       1       1       3
       2       1       1       3       2       1       1       3       2       1
       1       3       2       1       1       3       2       1       1       3
       2       1       1       3       2       1       1       3       2       1
       1       3       2       1       1       3       2       1       1       3
       2       1       1       3       2       1       1       3       2       1
       1       3       2       1       1       3       2       1       1       3
       2       1       1       3       2       1       1       3       2       1
       1       3       2       1       1       3       2       1       1       3
       2       1       1       3       2       1       1       3       2       1
       1       3       2       1       1       3       2       1       1       3
       2       1       1       3       2       1       1       3       2       1
       1       3       2       1       1       3       2       1       1       3
       2       1       1       3       2       1       1       3       2       1
       1       3       2       1       1       3       2       1       1       3
       2       1       1       3       2       1       1       3       2       1
       1       3       2       1       1       3       2       1       1       3
       2       1       1       3       2       1       1       3       2       1
       1       3       2       1       1       3       2       1       1       3
       2       1       1       3       2       1       1       3       2       1
       1       3       2       1       1       3       2       1       1       3
       2       1       1       3       2       1       1       3       2       1
       1       3       2       1       1       3       2       1       1       3
       2       1       1       3       2       1       1       3       2       1
       1       3       2       1       1       3       2       1       1       3
       2       1       1       3       2       1       1       3       2       1
       1       3       2       1       1       3       2       1       1       3
       2       1       1       3       2       1       1       3       2       1
       1       3       2       1       1       3       2       1       1       3
       2       1       1       3       2       1       1       3       2       1
       1       3       2       1       1       3       2       1       1       3
       2       1       1       3       2       1       1       3       2       1
       1       3       2       1       1       3       2       1       1       3
       2       1       1       3       2       1       1       3       2       1
       1       3       2       1       1       3       2       1       1       3
       2       1       1       3       2       1       1       3       2       1
       1       3       2       1       1       3       2       1       1       3
       2       1       1       3       2       1       1       3       2       1
       1       3       2       1       1       3       2       1       1       3
       2       1       1       3       2       1       1       3       2       1
       1       3       2       1       1       3       2       1       1       3
       2       1       1       3       2       1       1       3       2       1
       1       3       2       1       1       3       2       1       1       3
       2       1       1       3       2       1       1       3       2       1
       1       3       2       1       1       3       2       1       1       3
       2       1       1       3       2       1       1       3       2       1
       1       3       2       1       1       3       2       1       1       3
       2       1       1       3       2       1       1       3       2       1
       1       3       2       1       1       3       2       1       1       3
       2       1       1       3       2       1       1       3       2       1
       1       3       2       1       1       3       2       1       1       3
       2       1       1       3       2       1       1       3       2       1
       1       3       2       1       1       3       2       1       1       3
       2       1       1       3       2       1       1       3       2       1
       1       3       2       1       1       3       2       1       1       3
       2       1       1       3       2       1       1       3       2       1
       1       3       2       1       1       3       2       1       1       3
       2       1       1       3       2       1       1       3       2       1
       1       3       2       1       1       3       2       1       1       3
       2       1       1       3       2       1       1       3       2       1
       1       3       2       1       1       3       2       1       1       3
       2       1       1       3       2       1       1       3       2       1
       1       3       2       1       1       3       2       1       1       3
       2       1       1       3       2       1       1       3       2       1
       1       3       2       1       1       3       2       1       1       3
       2       1       1       3       2       1       1       3       2       1
       1       3       2       1       1       3       2       1       1       3
       2       1       1       3       2       1       1       3       2       1
       1       3       2       1       1       3       2       1       1       3
       2       1       1       3       2       1       1       3       2       1
       1       3       2       1       1       3       2       1       1       3
       2       1       1       3       2       1       1       3       2       1
       1       3       2       1       1       3       2       1       1       3
       2       1       1       3       2       1       1       3       2       1
       1       3       2       1       1       3       2       1       1       3
       2       1       1       3       2       1       1       3       2       1
       1       3       2       1       1       3       2       1       1       3
       2       1       1       3       2       1       1       3       2       1
       1       3       2       1       1       3       2       1       1       3
       2       1       1       3       2       1       1       3       2       1
       1       3       2       1       1       3       2       1       1       3
       2       1       1       3       2       1       1       3       2       1
       1       3       2       1       1       3       2       1       1       3
       2       1       1       3       2       1       1       3       2       1
       1       3       2       1       1       3       2       1       1       3
       2       1       1       3       2       1       1       3       2       1
       1       3       2       1       1       3       2       1       1       3
       2       1       1       3       2       1       1       3       2       1
       1       3       2       1       1       3       2       1       1       3
       2       1       1       3       2       1       1       3       2       1
       1       3       2       1       1       3       2       1       1       3
       2       1       1       3       2       1       1       3       2       1
       1       3       2       1       1       3       2       1       1       3
       2       1       1       3       2       1       1       3       2       1
       1       3       2       1       1       3       2       1       1       3
       2       1       1       3       2       1       1       3       2       1
       1       3       2       1       1       3       2       1       1       3
       2       1       1       3       2       1       1       3       2       1
       1       3       2       1       1       3       2       1       1       3
       2       1       1       3       2       1       1       3       2       1
       1       3       2       1       1       3       2       1       1       3
       2       1       1       3       2       1       1       3       2       1
       1       3       2       1       1       3       2       1       1       3
       2       1       1       3       2       1       1       3       2       1
       1       3       2       1       1       3       2       1       1       3
       2       1       1       3       2       1       1       3       2       1
       1       3       2       1       1       3       2       1       1       3
       2       1       1       3       2       1       1       3       2       1
       1       3       2       1       1       3       2       1       1       3
       2       1       1       3       2       1       1       3       2       1
       1       3       2       1       1       3       2       1       1       3
       2       1       1       3       2       1       1       3       2       1
       1       3       2       1       1       3       2       1       1       3
       2       1       1       3       2       1       1       3       2       1
       1       3       2       1       1       3       2       1       1       3
       2       1       1       3       2       1       1       3       2       1
       1       3       2       1       1       3       2       1       1       3
       2       1       1       3       2       1       1       3       2       1
       1       3       2       1       1       3       2       1       1       3
       2       1       1       3       2       1       1       3       2       1
       1       3       2       1       1       3       2       1       1       3
       2       1       1       3       2       1       1       3       2       1
       1       3       2       1       1       3       2       1       1       3
       2       1       1       3       2       1       1       3       2       1
       1       3       2       1       1       3       2       1       1       3
       2       1       1       3       2       1       1       3       2       1
       1       3       2       1       1       3       2       1       1       3
       2       1       1       3       2       1       1       3       2       1
       1       3       2       1       1       3       2       1       1       3
       2       1       1       3       2       1       1       3       2       1
       1       3       2       1       1       3       2       1       1       3
       2       1       1       3       2       1       1       3       2       1
       1       3       2       1       1       3       2       1       1       3
       2       1       1       3       2       1       1       3       2       1
       1       3       2       1       1       3       2       1       1       3
       2       1       1       3       2       1       1       3       2       1
       1       3       2       1       1       3       2       1       1       3
       2       1       1       3       2       1       1       3       2       1
       1       3       2       1       1       3       2       1       1       3
       2       1       1       3       2       1       1       3       2       1
       1       3       2       1       1       3       2       1       1       3
       2       1       1       3       2       1       1       3       2       1
       1       3       2       1       1       3       2       1       1       3
       2       1       1       3       2       1       1       3       2       1
       1       3       2       1       1       3       2       1       1       3
       2       1       1       3       2       1       1       3       2       1
       1       3       2       1       1       3       2       1       1       3
       2       1       1       3       2       1       1       3       2       1
       1       3       2       1       1       3       2       1       1       3
       2       1       1       3       2       1       1       3       2       1
       1       3       2       1       1       3       2       1       1       3
       2       1       1       3       2       1       1       3       2       1
       1       3       2       1       1       3       2       1       1       3
       2       1       1       3       2       1       1       3       2       1
       1       3       2       1       1       3       2       1       1       3
       2       1       1       3       2       1       1       3       2       1
       1       3       2       1       1       3       2       1       1       3
       2       1       1       3       2       1       1       3       2       1
       1       3       2       1       1       3       2       1       1       3
       2       1       1       3       2       1       1       3       2       1
       1       3       2       1       1       3       2       1       1       3
       2       1       1       3       2       1       1       3       2       1
       1       3       2       1       1       3       2       1       1       3
       2       1       1       3       2       1       1       3       2       1
       1       3       2       1       1       3       2       1       1       3
       2       1       1       3       2       1       1       3       2       1
       1       3       2       1       1       3       2       1       1       3
       2       1       1       3       2       1       1       3       2       1
       1       3       2       1       1       3       2       1       1       3
       2       1       1       3       2       1       1       3       2       1
       1       3       2       1       1       3       2       1       1       3
       2       1       1       3       2       1       1       3       2       1
       1       3       2       1       1       3       2       1       1       3
       2       1       1       3       2       1       1       3       2       1
       1       3       2       1       1       3       2       1       1       3
       2       1       1       3       2       1       1       3       2       1
       1       3       2       1       1       3       2       1       1       3
       2       1       1       3       2       1       1       3       2       1
       1       3       2       1       1       3       2       1       1       3
       2       1       1       3       2       1       1       3       2       1
       1       3       2       1       1       3       2       1       1       3
       2       1       1       3       2       1       1       3       2       1
       1       3       2       1       1       3       2       1       1       3
       2       1       1       3       2       1       1       3       2       1
       1       3       2       1       1       3       2       1       1       3
       2       1       1       3       2       1       1       3       2       1
       1       3       2       1       1       3       2       1       1       3
       2       1       1       3       2       1       1       3       2       1
       1       3       2       1       1       3       2       1       1       3
       2       1       1       3       2       1       1       3       2       1
       1       3       2       1       1       3       2       1       1       3
       2       1       1       3       2       1       1       3       2       1
       1       3       2       1       1       3       2       1       1       3
       2       1       1       3       2       1       1       3       2       1
       1       3       2       1       1       3       2       1       1       3
       2       1       1       3       2       1       1       3       2       1
       1       3       2       1       1       3       2       1       1       3
       2       1       1       3       2       1       1       3       2       1
       1       3       2       1       1       3       2       1       1       3
       2       1       1       3       2       1       1       3       2       1
       1       3       2       1       1       3       2       1       1       3
       2       1       1       3       2       1       1       3       2       1
       1       3       2       1       1       3       2       1       1       3
       2       1       1       3       2       1       1       3       2       1
       1       3       2       1       1       3       2       1       1       3
       2       1       1       3       2       1       1       3       2       1
       1       3       2       1       1       3       2       1       1       3
       2       1       1       3       2       1       1       3       2       1
       1       3       2       1       1       3       2       1       1       3
       2       1       1       3       2       1       1       3       2       1
       1       3       2       1       1       3       2       1       1       3
       2       1       1       3       2       1       1       3       2       1
       1       3       2       1       1       3       2       1       1       3
       2       1       1       3       2       1       1       3       2       1
       1       3       2       1       1       3       2       1       1       3
       2       1       1       3       2       1       1       3       2       1
       1       3       2       1       1       3       2       1       1       3
       2       1       1       3       2       1       1       3       2       1
       1       3       2       1       1       3       2       1       1       3
       2       1       1       3       2       1       1       3       2       1
       1       3       2       1       1       3       2       1       1       3
       2       1       1       3       2       1       1       3       2       1
       1       3       2       1       1       3       2       1       1       3
       2       1       1       3       2       1       1       3       2       1
       1       3       2       1       1       3       2       1       1       3
       2       1       1       3       2       1       1       3       2       1
       1       3       2       1       1       3       2       1       1       3
       2       1       1       3       2       1       1       3       2       1
       1       3       2       1       1       3       2       1       1       3
       2       1       1       3       2       1       1       3       2       1
       1       3       2       1       1       3       2       1       1       3
       2       1       1       3       2       1       1       3       2       1
       1       3       2       1       1       3       2       1       1       3
       2       1       1       3       2       1       1       3       2       1
       1       3       2       1       1       3       2       1       1       3
       2       1       1       3       2       1       1       3       2       1
       1       3       2       1       1       3       2       1       1       3
       2       1       1       3       2       1       1       3       2       1
       1       3       2       1       1       3       2       1       1       3
       2       1       1       3       2       1       1       3       2       1
       1       3       2       1       1       3       2       1       1       3
       2       1       1       3       2       1       1       3       2       1
       1       3       2       1       1       3       2       1       1       3
       2       1       1       3       2       1       1       3       2       1
       1       3       2       1       1       3       2       1       1       3
       2       1       1       3       2       1       1       3       2       1
       1       3       2       1       1       3       2       1       1       3
       2       1       1       3       2       1       1       3       2       1
       1       3       2       1       1       3       2       1       1       3
       2       1       1       3       2       1       1       3       2       1
       1       3       2       1       1       3       2       1       1       3
       2       1       1       3       2       1       1       3       2       1
       1       3       2       1       1       3       2       1       1       3
       2       1       1       3       2       1       1       3       2       1
       1       3       2       1       1       3       2       1       1       3
       2       1       1       3       2       1       1       3       2       1
       1       3       2       1       1       3       2       1       1       3
       2       1       1       3       2       1       1       3       2       1
       1       3       2       1       1       3       2       1       1       3
       2       1       1       3       2       1       1       3       2       1
       1       3       2       1       1       3       2       1       1       3
       2       1       1       3       2       1       1       3       2       1
       1       3       2       1       1       3       2       1       1       3
       2       1       1       3       2       1       1       3       2       1
       1       3       2       1       1       3       2       1       1       3
       2       1       1       3       2       1       1       3       2       1
       1       3       2       1       1       3       2       1       1       3
       2       1       1       3       2       1       1       3       2       1
       1       3       2       1       1       3       2       1       1       3
       2       1       1       3       2       1       1       3       2       1
       1       3       2       1       1       3       2       1       1       3
       2       1       1       3       2       1       1       3       2       1
       1       3       2       1       1       3       2       1       1       3
       2       1       1       3       2       1       1       3       2       1
       1       3       2       1       1       3       2       1       1       3
       2       1       1       3       2       1       1       3       2       1
       1       3       2       1       1       3       2       1       1       3
       2       1       1       3       2       1       1       3       2       1
       1       3       2       1       1       3       2       1       1       3
       2       1       1       3       2       1       1       3       2       1
       1       3       2       1       1       3       2       1       1       3
       2       1       1       3       2       1       1       3       2       1
       1       3       2       1       1       3       2       1       1       3
       2       1       1       3       2       1       1       3       2       1
       1       3       2       1       1       3       2       1       1       3
       2       1       1       3       2       1       1       3       2       1
       1       3       2       1       1       3       2       1       1       3
       2       1       1       3       2       1       1       3       2       1
       1       3       2       1       1       3       2       1       1       3
       2       1       1       3       2       1       1       3       2       1
       1       3       2       1       1       3       2       1       1       3
       2       1       1       3       2       1       1       3       2       1
       1       3       2       1       1       3       2       1       1       3
       2       1       1       3       2       1       1       3       2       1
       1       3       2       1       1       3       2       1       1       3
       2       1       1       3       2       1       1       3       2       1
       1       3       2       1       1       3       2       1       1       3
       2       1       1       3       2       1       1       3       2       1
       1       3       2       1       1       3       2       1       1       3
       2       1       1       3       2       1       1       3       2       1
       1       3       2       1       1       3       2       1       1       3
       2       1       1       3       2       1       1       3       2       1
       1       3       2       1       1       3       2       1       1       3
       2       1       1       3       2       1       1       3       2       1
       1       3       2       1       1       3       2       1       1       3
       2       1       1       3       2       1       1       3       2       1
       1       3       2       1       1       3       2       1       1       3
       2       1       1       3       2       1       1       3       2       1
       1       3       2       1       1       3       2       1       1       3
       2       1       1       3       2       1       1       3       2       1
       1       3       2       1       1       3       2       1       1       3
       2       1       1       3       2       1       1       3       2       1
       1       3       2       1       1       3       2       1       1       3
       2       1       1       3       2       1       1       3       2       1
       1       3       2       1       1       3       2       1       1       3
       2       1       1       3       2       1       1       3       2       1
       1       3       2       1       1       3       2       1       1       3
       2       1       1       3       2       1       1       3       2       1
       1       3       2       1       1       3       2       1       1       3
       2       1       1       3       2       1       1       3       2       1
       1       3       2       1       1       3       2       1       1       3
       2       1       1       3       2       1       1       3       2       1
       1       3       2       1       1       3       2       1       1       3
       2       1       1       3       2       1       1       3       2       1
       1       3       2       1       1       3       2       1       1       3
       2       1       1       3       2       1       1       3       2       1
       1       3       2       1       1       3       2       1       1       3
       2       1       1       3       2       1       1       3       2       1
       1       3       2       1       1       3       2       1       1       3
       2       1       1       3       2       1       1       3       2       1
       1       3       2       1       1       3       2       1       1       3
       2       1       1       3       2       1       1       3       2       1
       1       3       2       1       1       3       2       1       1       3
       2       1       1       3       2       1       1       3       2       1
       1       3       2       1       1       3       2       1       1       3
       2       1       1       3       2       1       1       3       2       1
       1       3       2       1       1       3       2       1       1       3
       2       1       1       3       2       1       1       3       2       1
       1       3       2       1       1       3       2       1       1       3
       2       1       1       3       2       1       1       3       2       1
       1       3       2       1       1       3       2       1       1       3
       2       1       1       3       2       1       1       3       2       1
       1       3       2       1       1       3       2       1       1       3
       2       1       1       3       2       1       1       3       2       1
       1       3       2       1       1       3       2       1       1       3
       2       1       1       3       2       1       1       3       2       1
       1       3       2       1       1       3       2       1       1       3
       2       1       1       3       2       1       1       3       2       1
       1       3       2       1       1       3       2       1       1       3
       2       1       1       3       2       1       1       3       2       1
       1       3       2       1       1       3       2       1       1       3
       2       1       1       3       2       1       1       3       2       1
       1       3       2       1       1       3       2       1       1       3
       2       1       1       3       2       1       1       3       2       1
       1       3       2       1       1       3       2       1       1       3
       2       1       1       3       2       1       1       3       2       1
       1       3       2       1       1       3       2       1       1       3
       2       1       1       3       2       1       1       3       2       1
       1       3       2       1       1       3       2       1       1       3
       2       1       1       3       2       1       1       3       2       1
       1       3       2       1       1       3       2       1       1       3
       2       1       1       3       2       1       1       3       2       1
       1       3       2       1       1       3       2       1       1       3
       2       1       1       3       2       1       1       3       2       1
       1       3       2       1       1       3       2       1       1       3
       2       1       1       3       2       1       1       3       2       1
       1       3       2       1       1       3       2       1       1       3
       2       1       1       3       2       1       1       3       2       1
       1       3       2       1       1       3       2       1       1       3
       2       1       1       3       2       1       1       3       2       1
       1       3       2       1       1       3       2       1       1       3
       2       1       1       3       2       1       1       3       2       1
       1       3       2       1       1       3       2       1       1       3
       2       1       1       3       2       1       1       3       2       1
       1       3       2       1       1       3       2       1       1       3
       2       1       1       3       2       1       1       3       2       1
       1       3       2       1       1       3       2       1       1       3
       2       1       1       3       2       1       1       3       2       1
       1       3       2       1       1       3       2       1       1       3
       2       1       1       3       2       1       1       3       2       1
       1       3       2       1       1       3       2       1       1       3
       2       1       1       3       2       1       1       3       2       1
       1       3       2       1       1       3       2       1       1       3
       2       1       1       3       2       1       1       3       2       1
       1       3       2       1       1       3       2       1       1       3
       2       1       1       3       2       1       1       3       2       1
       1       3       2       1       1       3       2       1       1       3
       2       1       1       3       2       1       1       3       2       1
       1       3       2       1       1       3       2       1       1       3
       2       1       1       3       2       1       1       3       2       1
       1       3       2       1       1       3       2       1       1       3
       2       1       1       3       2       1       1       3       2       1
       1       3       2       1       1       3       2       1       1       3
       2       1       1       3       2       1       1       3       2       1
       1       3       2       1       1       3       2       1       1       3
       2       1       1       3       2       1       1       3       2       1
       1       3       2       1       1       3       2       1       1       3
       2       1       1       3       2       1       1       3       2       1
       1       3       2       1       1       3       2       1       1       3
       2       1       1       3       2       1       1       3       2       1
       1       3       2       1       1       3       2       1       1       3
       2       1       1       3       2       1       1       3       2       1
       1       3       2       1       1       3       2       1       1       3
       2       1       1       3       2       1       1       3       2       1
       1       3       2       1       1       3       2       1       1       3
       2       1       1       3       2       1       1       3       2       1
       1       3       2       1       1       3       2       1       1       3
       2       1       1       3       2       1       1       3       2       1
       1       3       2       1       1       3       2       1       1       3
       2       1       1       3       2       1       1       3       2       1
       1       3       2       1       1       3       2       1       1       3
       2       1       1       3       2       1       1       3       2       1
       1       3       2       1       1       3       2       1       1       3
       2       1       1       3       2       1       1       3       2       1
       1       3       2       1       1       3       2       1       1       3
       2       1       1       3       2       1       1       3       2       1
       1       3       2       1       1       3       2       1       1       3
       2       1       1       3       2       1       1       3       2       1
       1       3       2       1       1       3       2       1       1       3
       2       1       1       3       2       1       1       3       2       1
       1       3       2       1       1       3       2       1       1       3
       2       1       1       3       2       1       1       3       2       1
       1       3       2       1       1       3       2       1       1       3
       2       1       1       3       2       1       1       3       2       1
       1       3       2       1       1       3       2       1       1       3
       2       1       1       3       2       1       1       3       2       1
       1       3       2       1       1       3       2       1       1       3
       2       1       1       3       2       1       1       3       2       1
       1       3       2       1       1       3       2       1       1       3
       2       1       1       3       2       1       1       3       2       1
       1       3       2       1       1       3       2       1       1       3
       2       1       1       3       2       1       1       3       2       1
       1       3       2       1       1       3       2       1       1       3
       2       1       1       3       2       1       1       3       2       1
       1       3       2       1       1       3       2       1       1       3
       2       1       1       3       2       1       1       3       2       1
       1       3       2       1       1       3       2       1       1       3
       2       1       1       3       2       1       1       3       2       1
       1       3       2       1       1       3       2       1       1       3
       2       1       1       3       2       1       1       3       2       1
       1       3       2       1       1       3       2       1       1       3
       2       1       1       3       2       1       1       3       2       1
       1       3       2       1       1       3       2       1       1       3
       2       1       1       3       2       1       1       3       2       1
       1       3       2       1       1       3       2       1       1       3
       2       1       1       3       2       1       1       3       2       1
       1       3       2       1       1       3       2       1       1       3
       2       1       1       3       2       1       1       3       2       1
       1       3       2       1       1       3       2       1       1       3
       2       1       1       3       2       1       1       3       2       1
       1       3       2       1       1       3       2       1       1       3
       2       1       1       3       2       1       1       3       2       1
       1       3       2       1       1       3       2       1       1       3
       2       1       1       3       2       1       1       3       2       1
       1       3       2       1       1       3       2       1       1       3
       2       1       1       3       2       1       1       3       2       1
       1       3       2       1       1       3       2       1       1       3
       2       1       1       3       2       1       1       3       2       1
       1       3       2       1       1       3       2       1       1       3
       2       1       1       3       2       1       1       3       2       1
       1       3       2       1       1       3       2       1       1       3
       2       1       1       3       2       1       1       3       2       1
       1       3       2       1       1       3       2       1       1       3
       2       1       1       3       2       1       1       3       2       1
       1       3       2       1       1       3       2       1       1       3
       2       1       1       3       2       1       1       3       2       1
       1       3       2       1       1       3       2       1       1       3
       2       1       1       3       2       1       1       3       2       1
       1       3       2       1       1       3       2       1       1       3
       2       1       1       3       2       1       1       3       2       1
       1       3       2       1       1       3       2       1       1       3
       2       1       1       3       2       1       1       3       2       1
       1       3       2       1       1       3       2       1       1       3
       2       1       1       3       2       1       1       3       2       1
       1       3       2       1       1       3       2       1       1       3
       2       1       1       3       2       1       1       3       2       1
       1       3       2       1       1       3       2       1       1       3
       2       1       1       3       2       1       1       3       2       1
       1       3       2       1       1       3       2       1       1       3
       2       1       1       3       2       1       1       3       2       1
       1       3       2       1       1       3       2       1       1       3
       2       1       1       3       2       1       1       3       2       1
       1       3       2       1       1       3       2       1       1       3
       2       1       1       3       2       1       1       3       2       1
       1       3       2       1       1       3       2       1       1       3
       2       1       1       3       2       1       1       3       2       1
       1       3       2       1       1       3       2       1       1       3
       2       1       1       3       2       1       1       3       2       1
       1       3       2       1       1       3       2       1       1       3
       2       1       1       3       2       1       1       3       2       1
       1       3       2       1       1       3       2       1       1       3
       2       1       1       3       2       1       1       3       2       1
       1       3       2       1       1       3       2       1       1       3
       2       1       1       3       2       1       1       3       2       1
       1       3       2       1       1       3       2       1       1       3
       2       1       1       3       2       1       1       3       2       1
       1       3       2       1       1       3       2       1       1       3
       2       1       1       3       2       1       1       3       2       1
       1       3       2       1       1       3       2       1       1       3
       2       1       1       3       2       1       1       3       2       1
       1       3       2       1       1       3       2       1       1       3
       2       1       1       3       2       1       1       3       2       1
       1       3       2       1       1       3       2       1       1       3
       2       1       1       3       2       1       1       3       2       1
       1       3       2       1       1       3       2       1       1       3
       2       1       1       3       2       1       1       3       2       1
       1       3       2       1       1       3       2       1       1       3
       2       1       1       3       2       1       1       3       2       1
       1       3       2       1       1       3       2       1       1       3
       2       1       1       3       2       1       1       3       2       1
       1       3       2       1       1       3       2       1       1       3
       2       1       1       3       2       1       1       3       2       1
       1       3       2       1       1       3       2       1       1       3
       2       1       1       3       2       1       1       3       2       1
       1       3       2       1       1       3       2       1       1       3
       2       1       1       3       2       1       1       3       2       1
       1       3       2       1       1       3       2       1       1       3
       2       1       1       3       2       1       1       3       2       1
       1       3       2       1       1       3       2       1       1       3
       2       1       1       3       2       1       1       3       2       1
       1       3       2       1       1       3       2       1       1       3
       2       1       1       3       2       1       1       3       2       1
       1       3       2       1       1       3       2       1       1       3
       2       1       1       3       2       1       1       3       2       1
       1       3       2       1       1       3       2       1       1       3
       2       1       1       3       2       1       1       3       2       1
       1       3       2       1       1       3       2       1       1       3
       2       1       1       3       2       1       1       3       2       1
       1       3       2       1       1       3       2       1       1       3
       2       1       1       3       2       1       1       3       2       1
       1       3       2       1       1       3       2       1       1       3
       2       1       1       3       2       1       1       3       2       1
       1       3       2       1       1       3       2       1       1       3
       2       1       1       3       2       1       1       3       2       1
       1       3       2       1       1       3       2       1       1       3
       2       1       1       3       2       1       1       3       2       1
       1       3       2       1       1       3       2       1       1       3
       2       1       1       3       2       1       1       3       2       1
       1       3       2       1       1       3       2       1       1       3
       2       1       1       3       2       1       1       3       2       1
       1       3       2       1       1       3       2       1       1       3
       2       1       1       3       2       1       1       3       2       1
       1       3       2       1       1       3       2       1       1       3
       2       1       1       3       2       1       1       3       2       1
       1       3       2       1       1       3       2       1       1       3
       2       1       1       3       2       1       1       3       2       1
       1       3       2       1       1       3       2       1       1       3
       2       1       1       3       2       1       1       3       2       1
       1       3       2       1       1       3       2       1       1       3
       2       1       1       3       2       1       1       3       2       1
       1       3       2       1       1       3       2       1       1       3
       2       1       1       3       2       1       1       3       2       1
       1       3       2       1       1       3       2       1       1       3
       2       1       1       3       2       1       1       3       2       1
       1       3       2       1       1       3       2       1       1       3
       2       1       1       3       2       1       1       3       2       1
       1       3       2       1       1       3       2       1       1       3
       2       1       1       3       2       1       1       3       2       1
       1       3       2       1       1       3       2       1       1       3
       2       1       1       3       2       1       1       3       2       1
       1       3       2       1       1       3       2       1       1       3
       2       1       1       3       2       1       1       3       2       1
       1       3       2       1       1       3       2       1       1       3
       2       1       1       3       2       1       1       3       2       1
       1       3       2       1       1       3       2       1       1       3
       2       1       1       3       2       1       1       3       2       1
       1       3       2       1       1       3       2       1       1       3
       2       1       1       3       2       1       1       3       2       1
       1       3       2       1       1       3       2       1       1       3
       2       1       1       3       2       1       1       3       2       1
       1       3       2       1       1       3       2       1       1       3
       2       1       1       3       2       1       1       3       2       1
       1       3       2       1       1       3       2       1       1       3
       2       1       1       3       2       1       1       3       2       1
       1       3       2       1       1       3       2       1       1       3
       2       1       1       3       2       1       1       3       2       1
       1       3       2       1       1       3       2       1       1       3
       2       1       1       3       2       1       1       3       2       1
       1       3       2       1       1       3       2       1       1       3
       2       1       1       3       2       1       1       3       2       1
       1       3       2       1       1       3       2       1       1       3
       2       1       1       3       2       1       1       3       2       1
       1       3       2       1       1       3       2       1       1       3
       2       1       1       3       2       1       1       3       2       1
       1       3       2       1       1       3       2       1       1       3
       2       1       1       3       2       1       1       3       2       1
       1       3       2       1       1       3       2       1       1       3
       2       1       1       3       2       1       1       3       2       1
       1       3       2       1       1       3       2       1       1       3
       2       1       1       3       2       1       1       3       2       1
       1       3       2       1       1       3       2       1       1       3
       2       1       1       3       2       1       1       3       2       1
       1       3       2       1       1       3       2       1       1       3
       2       1       1       3       2       1       1       3       2       1
       1       3       2       1       1       3       2       1       1       3
       2       1       1       3       2       1       1       3       2       1
       1       3       2       1       1       3       2       1       1       3
       2       1       1       3       2       1       1       3       2       1
       1       3       2       1       1       3       2       1       1       3
       2       1       1       3       2       1       1       3       2       1
       1       3       2       1       1       3       2       1       1       3
       2       1       1       3       2       1       1       3       2       1
       1       3       2       1       1       3       2       1       1       3
       2       1       1       3       2       1       1       3       2       1
       1       3       2       1       1       3       2       1       1       3
       2       1       1       3       2       1       1       3       2       1
       1       3       2       1       1       3       2       1       1       3
       2       1       1       3       2       1       1       3       2       1
       1       3       2       1       1       3       2       1       1       3
       2       1       1       3       2       1       1       3       2       1
       1       3       2       1       1       3       2       1       1       3
       2       1       1       3       2       1       1       3       2       1
       1       3       2       1       1       3       2       1       1       3
       2       1       1       3       2       1       1       3       2       1
       1       3       2       1       1       3       2       1       1       3
       2       1       1       3       2       1       1       3       2       1
       1       3       2       1       1       3       2       1       1       3
       2       1       1       3       2       1       1       3       2       1
       1       3       2       1       1       3       2       1       1       3
       2       1       1       3       2       1       1       3       2       1
       1       3       2       1       1       3       2       1       1       3
       2       1       1       3       2       1       1       3       2       1
       1       3       2       1       1       3       2       1       1       3
       2       1       1       3       2       1       1       3       2       1
       1       3       2       1       1       3       2       1       1       3
       2       1       1       3       2       1       1       3       2       1
       1       3       2       1       1       3       2       1       1       3
       2       1       1       3       2       1       1       3       2       1
       1       3       2       1       1       3       2       1       1       3
       2       1       1       3       2       1       1       3       2       1
       1       3       2       1       1       3       2       1       1       3
       2       1       1       3       2       1       1       3       2       1
       1       3       2       1       1       3       2       1       1       3
       2       1       1       3       2       1       1       3       2       1
       1       3       2       1       1       3       2       1       1       3
       2       1       1       3       2       1       1       3       2       1
       1       3       2       1       1       3       2       1       1       3
       2       1       1       3       2       1       1       3       2       1
       1       3       2       1       1       3       2       1       1       3
       2       1       1       3       2       1       1       3       2       1
       1       3       2       1       1       3       2       1       1       3
       2       1       1       3       2       1       1       3       2       1
       1       3       2       1       1       3       2       1       1       3
       2       1       1       3       2       1       1       3       2       1
       1       3       2       1       1       3       2       1       1       3
       2       1       1       3       2       1       1       3       2       1
       1       3       2       1       1       3       2       1       1       3
       2       1       1       3       2       1       1       3       2       1
       1       3       2       1       1       3       2       1       1       3
       2       1       1       3       2       1       1       3       2       1
       1       3       2       1       1       3       2       1       1       3
       2       1       1       3       2       1       1       3       2       1
       1       3       2       1       1       3       2       1       1       3
       2       1       1       3       2       1       1       3       2       1
       1       3       2       1       1       3       2       1       1       3
       2       1       1       3       2       1       1       3       2       1
       1       3       2       1       1       3       2       1       1       3
       2       1       1       3       2       1       1       3       2       1
       1       3       2       1       1       3       2       1       1       3
       2       1       1       3       2       1       1       3       2       1
       1       3       2       1       1       3       2       1       1       3
       2       1       1       3       2       1       1       3       2       1
       1       3       2       1       1       3       2       1       1       3
       2       1       1       3       2       1       1       3       2       1
       1       3       2       1       1       3       2       1       1       3
       2       1       1       3       2       1       1       3       2       1
       1       3       2       1       1       3       2       1       1       3
       2       1       1       3       2       1       1       3       2       1
       1       3       2       1       1       3       2       1       1       3
       2       1       1       3       2       1       1       3       2       1
       1       3       2       1       1       3       2       1       1       3
       2       1       1       3       2       1       1       3       2       1
       1       3       2       1       1       3       2       1       1       3
       2       1       1       3       2       1       1       3       2       1
       1       3       2       1       1       3       2       1       1       3
       2       1       1       3       2       1       1       3       2       1
       1       3       2       1       1       3       2       1       1       3
       2       1       1       3       2       1       1       3       2       1
       1       3       2       1       1       3       2       1       1       3
       2       1       1       3       2       1       1       3       2       1
       1       3       2       1       1       3       2       1       1       3
       2       1       1       3       2       1       1       3       2       1
       1       3       2       1       1       3       2       1       1       3
       2       1       1       3       2       1       1       3       2       1
       1       3       2       1       1       3       2       1       1       3
       2       1       1       3       2       1       1       3       2       1
       1       3       2       1       1       3       2       1       1       3
       2       1       1       3       2       1       1       3       2       1
       1       3       2       1       1       3       2       1       1       3
       2       1       1       3       2       1       1       3       2       1
       1       3       2       1       1       3       2       1       1       3
       2       1       1       3       2       1       1       3       2       1
       1       3       2       1       1       3       2       1       1       3
       2       1       1       3       2       1       1       3       2       1
       1       3       2       1       1       3       2       1       1       3
       2       1       1       3       2       1       1       3       2       1
       1       3       2       1       1       3       2       1       1       3
       2       1       1       3       2       1       1       3       2       1
       1       3       2       1       1       3       2       1       1       3
       2       1       1       3       2       1       1       3       2       1
       1       3       2       1       1       3       2       1       1       3
       2       1       1       3       2       1       1       3       2       1
       1       3       2       1       1       3       2       1       1       3
       2       1       1       3       2       1       1       3       2       1
       1       3       2       1       1       3       2       1       1       3
       2       1       1       3       2       1       1       3       2       1
       1       3       2       1       1       3       2       1       1       3
       2       1       1       3       2       1       1       3       2       1
       1       3       2       1       1       3       2       1       1       3
       2       1       1       3       2       1       1       3       2       1
       1       3       2       1       1       3       2       1       1       3
       2       1       1       3       2       1       1       3       2       1
       1       3       2       1       1       3       2       1       1       3
       2       1       1       3       2       1       1       3       2       1
       1       3       2       1       1       3       2       1       1       3
       2       1       1       3       2       1       1       3       2       1
       1       3       2       1       1       3       2       1       1       3
       2       1       1       3       2       1       1       3       2       1
       1       3       2       1       1       3       2       1       1       3
       2       1       1       3       2       1       1       3       2       1
       1       3       2       1       1       3       2       1       1       3
       2       1       1       3       2       1       1       3       2       1
       1       3       2       1       1       3       2       1       1       3
       2       1       1       3       2       1       1       3       2       1
       1       3       2       1       1       3       2       1       1       3
       2       1       1       3       2       1       1       3       2       1
       1       3       2       1       1       3       2       1       1       3
       2       1       1       3       2       1       1       3       2       1
       1       3       2       1       1       3       2       1       1       3
       2       1       1       3       2       1       1       3       2       1
       1       3       2       1       1       3       2       1       1       3
       2       1       1       3       2       1       1       3       2       1
       1       3       2       1       1       3       2       1       1       3
       2       1       1       3       2       1       1       3       2       1
       1       3       2       1       1       3       2       1       1       3
       2       1       1       3       2       1       1       3       2       1
       1       3       2       1       1       3       2       1       1       3
       2       1       1       3       2       1       1       3       2       1
       1       3       2       1       1       3       2       1       1       3
       2       1       1       3       2       1       1       3       2       1
       1       3       2       1       1       3       2       1       1       3
       2       1       1       3       2       1       1       3       2       1
       1       3       2       1       1       3       2       1       1       3
       2       1       1       3       2       1       1       3       2       1
       1       3       2       1       1       3       2       1       1       3
       2       1       1       3       2       1       1       3       2       1
       1       3       2       1       1       3       2       1       1       3
       2       1       1       3       2       1       1       3       2       1
       1       3       2       1       1       3       2       1       1       3
       2       1       1       3       2       1       1       3       2       1
       1       3       2       1       1       3       2       1       1       3
       2       1       1       3       2       1       1       3       2       1
       1       3       2       1       1       3       2       1       1       3
       2       1       1       3       2       1       1       3       2       1
       1       3       2       1       1       3       2       1       1       3
       2       1       1       3       2       1       1       3       2       1
       1       3       2       1       1       3       2       1       1       3
       2       1       1       3       2       1       1       3       2       1
       1       3       2       1       1       3       2       1       1       3
       2       1       1       3       2       1       1       3       2       1
       1       3       2       1       1       3       2       1       1       3
       2       1       1       3       2       1       1       3       2       1
       1       3       2       1       1       3       2       1       1       3
       2       1       1       3       2       1       1       3       2       1
       1       3       2       1       1       3       2       1       1       3
       2       1       1       3       2       1       1       3       2       1
       1       3       2       1       1       3       2       1       1       3
       2       1       1       3       2       1       1       3       2       1
       1       3       2       1       1       3       2       1       1       3
       2       1       1       3       2       1       1       3       2       1
       1       3       2       1       1       3       2       1       1       3
       2       1       1       3       2       1       1       3       2       1
       1       3       2       1       1       3       2       1       1       3
       2       1       1       3       2       1       1       3       2       1
       1       3       2       1       1       3       2       1       1       3
       2       1       1       3       2       1       1       3       2       1
       1       3       2       1       1       3       2       1       1       3
       2       1       1       3       2       1       1       3       2       1
       1       3       2       1       1       3       2       1       1       3
       2       1       1       3       2       1       1       3       2       1
       1       3       2       1       1       3       2       1       1       3
       2       1       1       3       2       1       1       3       2       1
       1       3       2       1       1       3       2       1       1       3
       2       1       1       3       2       1       1       3       2       1
       1       3       2       1       1       3       2       1       1       3
       2       1       1       3       2       1       1       3       2       1
       1       3       2       1       1       3       2       1       1       3
       2       1       1       3       2       1       1       3       2       1
       1       3       2       1       1       3       2       1       1       3
       2       1       1       3       2       1       1       3       2       1
       1       3       2       1       1       3       2       1       1       3
       2       1       1       3       2       1       1       3       2       1
       1       3       2       1       1       3       2       1       1       3
       2       1       1       3       2       1       1       3       2       1
       1       3       2       1       1       3       2       1       1       3
       2       1       1       3       2       1       1       3       2       1
       1       3       2       1       1       3       2       1       1       3
       2       1       1       3       2       1       1       3       2       1
       1       3       2       1       1       3       2       1       1       3
       2       1       1       3       2       1       1       3       2       1
       1       3       2       1       1       3       2       1       1       3
       2       1       1       3       2       1       1       3       2       1
       1       3       2       1       1       3       2       1       1       3
       2       1       1       3       2       1       1       3       2       1
       1       3       2       1       1       3       2       1       1       3
       2       1       1       3       2       1       1       3       2       1
       1       3       2       1       1       3       2       1       1       3
       2       1       1       3       2       1       1       3       2       1
       1       3       2       1       1       3       2       1       1       3
       2       1       1       3       2       1       1       3       2       1
       1       3       2       1       1       3       2       1       1       3
       2       1       1       3       2       1       1       3       2       1
       1       3       2       1       1       3       2       1       1       3
       2       1       1       3       2       1       1       3       2       1
       1       3       2       1       1       3       2       1       1       3
       2       1       1       3       2       1       1       3       2       1
       1       3       2       1       1       3       2       1       1       3
       2       1       1       3       2       1       1       3       2       1
       1       3       2       1       1       3       2       1       1       3
       2       1       1       3       2       1       1       3       2       1
       1       3       2       1       1       3       2       1       1       3
       2       1       1       3       2       1       1       3       2       1
       1       3       2       1       1       3       2       1       1       3
       2       1       1       3       2       1       1       3       2       1
       1       3       2       1       1       3       2       1       1       3
       2       1       1       3       2       1       1       3       2       1
       1       3       2       1       1       3       2       1       1       3
       2       1       1       3       2       1       1       3       2       1
       1       3       2       1       1       3       2       1       1       3
       2       1       1       3       2       1       1       3       2       1
       1       3       2       1       1       3       2       1       1       3
       2       1       1       3       2       1       1       3       2       1
       1       3       2       1       1       3       2       1       1       3
       2       1       1       3       2       1       1       3       2       1
       1       3       2       1       1       3       2       1       1       3
       2       1       1       3       2       1       1       3       2       1
       1       3       2       1       1       3       2       1       1       3
       2       1       1       3       2       1       1       3       2       1
       1       3       2       1       1       3       2       1       1       3
       2       1       1       3       2       1       1       3       2       1
       1       3       2       1       1       3       2       1       1       3
       2       1       1       3       2       1       1       3       2       1
       1       3       2       1       1       3       2       1       1       3
       2       1       1       3       2       1       1       3       2       1
       1       3       2       1       1       3       2       1       1       3
       2       1       1       3       2       1       1       3       2       1
       1       3       2       1       1       3       2       1       1       3
       2       1       1       3       2       1       1       3       2       1
       1       3       2       1       1       3       2       1       1       3
       2       1       1       3       2       1       1       3       2       1
       1       3       2       1       1       3       2       1       1       3
       2       1       1       3       2       1       1       3       2       1
       1       3       2       1       1       3       2       1       1       3
       2       1       1       3       2       1       1       3       2       1
       1       3       2       1       1       3       2       1       1       3
       2       1       1       3       2       1       1       3       2       1
       1       3       2       1       1       3       2       1       1       3
       2       1       1       3       2       1       1       3       2       1
       1       3       2       1       1       3       2       1       1       3
       2       1       1       3       2       1       1       3       2       1
       1       3       2       1       1       3       2       1       1       3
       2       1       1       3       2       1       1       3       2       1
       1       3       2       1       1       3       2       1       1       3
       2       1       1       3       2       1       1       3       2       1
       1       3       2       1       1       3       2       1       1       3
       2       1       1       3       2       1       1       3       2       1
       1       3       2       1       1       3       2       1       1       3
       2       1       1       3       2       1       1       3       2       1
       1       3       2       1       1       3       2       1       1       3
       2       1       1       3       2       1       1       3       2       1
       1       3       2       1       1       3       2       1       1       3
       2       1       1       3       2       1       1       3       2       1
       1       3       2       1       1       3       2       1       1       3
       2       1       1       3       2       1       1       3       2       1
       1       3       2       1       1       3       2       1       1       3
       2       1       1       3       2       1       1       3       2       1
       1       3       2       1       1       3       2       1       1       3
       2       1       1       3       2       1       1       3       2       1
       1       3       2       1       1       3       2       1       1       3
       2       1       1       3       2       1       1       3       2       1
       1       3       2       1       1       3       2       1       1       3
       2       1       1       3       2       1       1       3       2       1
       1       3       2       1       1       3       2       1       1       3
       2       1       1       3       2       1       1       3       2       1
       1       3       2       1       1       3       2       1       1       3
       2       1       1       3       2       1       1       3       2       1
       1       3       2       1       1       3       2       1       1       3
       2       1       1       3       2       1       1       3       2       1
       1       3       2       1       1       3       2       1       1       3
       2       1       1       3       2       1       1       3       2       1
       1       3       2       1       1       3       2       1       1       3
       2       1       1       3       2       1       1       3       2       1
       1       3       2       1       1       3       2       1       1       3
       2       1       1       3       2       1       1       3       2       1
       1       3       2       1       1       3       2       1       1       3
       2       1       1       3       2       1       1       3       2       1
       1       3       2       1       1       3       2       1       1       3
       2       1       1       3       2       1       1       3       2       1
       1       3       2       1       1       3       2       1       1       3
       2       1       1       3       2       1       1       3       2       1
       1       3       2       1       1       3       2       1       1       3
       2       1       1       3       2       1       1       3       2       1
       1       3       2       1       1       3       2       1       1       3
       2       1       1       3       2       1       1       3       2       1
       1       3       2       1       1       3       2       1       1       3
       2       1       1       3       2       1       1       3       2       1
       1       3       2       1       1       3       2       1       1       3
       2       1       1       3       2       1       1       3       2       1
       1       3       2       1       1       3       2       1       1       3
       2       1       1       3       2       1       1       3       2       1
       1       3       2       1       1       3       2       1       1       3
       2       1       1       3       2       1       1       3       2       1
       1       3       2       1       1       3       2       1       1       3
       2       1       1       3       2       1       1       3       2       1
       1       3       2       1       1       3       2       1       1       3
       2       1       1       3       2       1       1       3       2       1
       1       3       2       1       1       3       2       1       1       3
       2       1       1       3       2       1       1       3       2       1
       1       3       2       1       1       3       2       1       1       3
       2       1       1       3       2       1       1       3       2       1
       1       3       2       1       1       3       2       1       1       3
       2       1       1       3       2       1       1       3       2       1
       1       3       2       1       1       3       2       1       1       3
       2       1       1       3       2       1       1       3       2       1
       1       3       2       1       1       3       2       1       1       3
       2       1       1       3       2       1       1       3       2       1
       1       3       2       1       1       3       2       1       1       3
       2       1       1       3       2       1       1       3       2       1
       1       3       2       1       1       3       2       1       1       3
       2       1       1       3       2       1       1       3       2       1
       1       3       2       1       1       3       2       1       1       3
       2       1       1       3       2       1       1       3       2       1
       1       3       2       1       1       3       2       1       1       3
       2       1       1       3       2       1       1       3       2       1
       1       3       2       1       1       3       2       1       1       3
       2       1       1       3       2       1       1       3       2       1
       1       3       2       1       1       3       2       1       1       3
       2       1       1       3       2       1       1       3       2       1
       1       3       2       1       1       3       2       1       1       3
       2       1       1       3       2       1       1       3       2       1
       1       3       2       1       1       3       2       1       1       3
       2       1       1       3       2       1       1       3       2       1
       1       3       2       1       1       3       2       1       1       3
       2       1       1       3       2       1       1       3       2       1
       1       3       2       1       1       3       2       1       1       3
       2       1       1       3       2       1       1       3       2       1
       1       3       2       1       1       3       2       1       1       3
       2       1       1       3       2       1       1       3       2       1
       1       3       2       1       1       3       2       1       1       3
       2       1       1       3       2       1       1       3       2       1
       1       3       2       1       1       3       2       1       1       3
       2       1       1       3       2       1       1       3       2       1
       1       3       2       1       1       3       2       1       1       3
       2       1       1       3       2       1       1       3       2       1
       1       3       2       1       1       3       2       1       1       3
       2       1       1       3       2       1       1       3       2       1
       1       3       2       1       1       3       2       1       1       3
       2       1       1       3       2       1       1       3       2       1
       1       3       2       1       1       3       2       1       1       3
       2       1       1       3       2       1       1       3       2       1
       1       3       2       1       1       3       2       1       1       3
       2       1       1       3       2       1       1       3       2       1
       1       3       2       1       1       3       2       1       1       3
       2       1       1       3       2       1       1       3       2       1
       1       3       2       1       1       3       2       1       1       3
       2       1       1       3       2       1       1       3       2       1
       1       3       2       1       1       3       2       1       1       3
       2       1       1       3       2       1       1       3       2       1
       1       3       2       1       1       3       2       1       1       3
       2       1       1       3       2       1       1       3       2       1
       1       3       2       1       1       3       2       1       1       3
       2       1       1       3       2       1       1       3       2       1
       1       3       2       1       1       3       2       1       1       3
       2       1       1       3       2       1       1       3       2       1
       1       3       2       1       1       3       2       1       1       3
       2       1       1       3       2       1       1       3       2       1
       1       3       2       1       1       3       2       1       1       3
       2       1       1       3       2       1       1       3       2       1
       1       3       2       1       1       3       2       1       1       3
       2       1       1       3       2       1       1       3       2       1
       1       3       2       1       1       3       2       1       1       3
       2       1       1       3       2       1       1       3       2       1
       1       3       2       1       1       3       2       1       1       3
       2       1       1       3       2       1       1       3       2       1
       1       3       2       1       1       3       2       1       1       3
       2       1       1       3       2       1       1       3       2       1
       1       3       2       1       1       3       2       1       1       3
       2       1       1       3       2       1       1       3       2       1
       1       3       2       1       1       3       2       1       1       3
       2       1       1       3       2       1       1       3       2       1
       1       3       2       1       1       3       2       1       1       3
       2       1       1       3       2       1       1       3       2       1
       1       3       2       1       1       3       2       1       1       3
       2       1       1       3       2       1       1       3       2       1
       1       3       2       1       1       3       2       1       1       3
       2       1       1       3       2       1       1       3       2       1
       1       3       2       1       1       3       2       1       1       3
       2       1       1       3       2       1       1       3       2       1
       1       3       2       1       1       3       2       1       1       3
       2       1       1       3       2       1       1       3       2       1
       1       3       2       1       1       3       2       1       1       3
       2       1       1       3       2       1       1       3       2       1
       1       3       2       1       1       3       2       1       1       3
       2       1       1       3       2       1       1       3       2       1
       1       3       2       1       1       3       2       1       1       3
       2       1       1       3       2       1       1       3       2       1
       1       3       2       1       1       3       2       1       1       3
       2       1       1       3       2       1       1       3       2       1
       1       3       2       1       1       3       2       1       1       3
       2       1       1       3       2       1       1       3       2       1
       1       3       2       1       1       3       2       1       1       3
       2       1       1       3       2       1       1       3       2       1
       1       3       2       1       1       3       2       1       1       3
       2       1       1       3       2       1       1       3       2       1
       1       3       2       1       1       3       2       1       1       3
       2       1       1       3       2       1       1       3       2       1
       1       3       2       1       1       3       2       1       1       3
       2       1       1       3       2       1       1       3       2       1
       1       3       2       1       1       3       2       1       1       3
       2       1       1       3       2       1       1       3       2       1
       1       3       2       1       1       3       2       1       1       3
       2       1       1       3       2       1       1       3       2       1
       1       3       2       1       1       3       2       1       1       3
       2       1       1       3       2       1       1       3       2       1
       1       3       2       1       1       3       2       1       1       3
       2       1       1       3       2       1       1       3       2       1
       1       3       2       1       1       3       2       1       1       3
       2       1       1       3       2       1       1       3       2       1
       1       3       2       1       1       3       2       1       1       3
       2       1       1       3       2       1       1       3       2       1
       1       3       2       1       1       3       2       1       1       3
       2       1       1       3       2       1       1       3       2       1
       1       3       2       1       1       3       2       1       1       3
       2       1       1       3       2       1       1       3       2       1
       1       3       2       1       1       3       2       1       1       3
       2       1       1       3       2       1       1       3       2       1
       1       3       2       1       1       3       2       1       1       3
       2       1       1       3       2       1       1       3       2       1
       1       3       2       1       1       3       2       1       1       3
       2       1       1       3       2       1       1       3       2       1
       1       3       2       1       1       3       2       1       1       3
       2       1       1       3       2       1       1       3       2       1
       1       3       2       1       1       3       2       1       1       3
       2       1       1       3       2       1       1       3       2       1
       1       3       2       1       1       3       2       1       1       3
       2       1       1       3       2       1       1       3       2       1
       1       3       2       1       1       3       2       1       1       3
       2       1       1       3       2       1       1       3       2       1
       1       3       2       1       1       3       2       1       1       3
       2       1       1       3       2       1       1       3       2       1
       1       3       2       1       1       3       2       1       1       3
       2       1       1       3       2       1       1       3       2       1
       1       3       2       1       1       3       2       1       1       3
       2       1       1       3       2       1       1       3       2       1
       1       3       2       1       1       3       2       1       1       3
       2       1       1       3       2       1       1       3       2       1
       1       3       2       1       1       3       2       1       1       3
       2       1       1       3       2       1       1       3       2       1
       1       3       2       1       1       3       2       1       1       3
       2       1       1       3       2       1       1       3       2       1
       1       3       2       1       1       3       2       1       1       3
       2       1       1       3       2       1       1       3       2       1
       1       3       2       1       1       3       2       1       1       3
       2       1       1       3       2       1       1       3       2       1
       1       3       2       1       1       3       2       1       1       3
       2       1       1       3       2       1       1       3       2       1
       1       3       2       1       1       3       2       1       1       3
       2       1       1       3       2       1       1       3       2       1
       1       3       2       1       1       3       2       1       1       3
       2       1       1       3       2       1       1       3       2       1
       1       3       2       1       1       3       2       1       1       3
       2       1       1       3       2       1       1       3       2       1
       1       3       2       1       1       3       2       1       1       3
       2       1       1       3       2       1       1       3       2       1
       1       3       2       1       1       3       2       1       1       3
       2       1       1       3       2       1       1       3       2       1
       1       3       2       1       1       3       2       1       1       3
       2       1       1       3       2       1       1       3       2       1
       1       3       2       1       1       3       2       1       1       3
       2       1       1       3       2       1       1       3       2       1
       1       3       2       1       1       3       2       1       1       3
       2       1       1       3       2       1       1       3       2       1
       1       3       2       1       1       3       2       1       1       3
       2       1       1       3       2       1       1       3       2       1
       1       3       2       1       1       3       2       1       1       3
       2       1       1       3       2       1       1       3       2       1
       1       3       2       1       1       3       2       1       1       3
       2       1       1       3       2       1       1       3       2       1
       1       3       2       1       1       3       2       1       1       3
       2       1       1       3       2       1       1       3       2       1
       1       3       2       1       1       3       2       1       1       3
       2       1       1       3       2       1       1       3       2       1
       1       3       2       1       1       3       2       1       1       3
       2       1       1       3       2       1       1       3       2       1
       1       3       2       1       1       3       2       1       1       3
       2       1       1       3       2       1       1       3       2       1
       1       3       2       1       1       3       2       1       1       3
       2       1       1       3       2       1       1       3       2       1
       1       3       2       1       1       3       2       1       1       3
       2       1       1       3       2       1       1       3       2       1
       1       3       2       1       1       3       2       1       1       3
       2       1       1       3       2       1       1       3       2       1
       1       3       2       1       1       3       2       1       1       3
       2       1       1       3       2       1       1       3       2       1
       1       3       2       1       1       3       2       1       1       3
       2       1       1       3       2       1       1       3       2       1
       1       3       2       1       1       3       2       1       1       3
       2       1       1       3       2       1       1       3       2       1
       1       3       2       1       1       3       2       1       1       3
       2       1       1       3       2       1       1       3       2       1
       1       3       2       1       1       3       2       1       1       3
       2       1       1       3       2       1       1       3       2       1
       1       3       2       1       1       3       2       1       1       3
       2       1       1       3       2       1       1       3       2       1
       1       3       2       1       1       3       2       1       1       3
       2       1       1       3       2       1       1       3       2       1
       1       3       2       1       1       3       2       1       1       3
       2       1       1       3       2       1       1       3       2       1
       1       3       2       1       1       3       2       1       1       3
       2       1       1       3       2       1       1       3       2       1
       1       3       2       1       1       3       2       1       1       3
       2       1       1       3       2       1       1       3       2       1
       1       3       2       1       1       3       2       1       1       3
       2       1       1       3       2       1       1       3       2       1
       1       3       2       1       1       3       2       1       1       3
       2       1       1       3       2       1       1       3       2       1
       1       3       2       1       1       3       2       1       1       3
       2       1       1       3       2       1       1       3       2       1
       1       3       2       1       1       3       2       1       1       3
       2       1       1       3       2       1       1       3       2       1
       1       3       2       1       1       3       2       1       1       3
       2       1       1       3       2       1       1       3       2       1
       1       3       2       1       1       3       2       1       1       3
       2       1       1       3       2       1       1       3       2       1
       1       3       2       1       1       3       2       1       1       3
       2       1       1       3       2       1       1       3       2       1
       1       3       2       1       1       3       2       1       1       3
       2       1       1       3       2       1       1       3       2       1
       1       3       2       1       1       3       2       1       1       3
       2       1       1       3       2       1       1       3       2       1
       1       3       2       1       1       3       2       1       1       3
       2       1       1       3       2       1       1       3       2       1
       1       3       2       1       1       3       2       1       1       3
       2       1       1       3       2       1       1       3       2       1
       1       3       2       1       1       3       2       1       1       3
       2       1       1       3       2       1       1       3       2       1
       1       3       2       1       1       3       2       1       1       3
       2       1       1       3       2       1       1       3       2       1
       1       3       2       1       1       3       2       1       1       3
       2       1       1       3       2       1       1       3       2       1
       1       3       2       1       1       3       2       1       1       3
       2       1       1       3       2       1       1       3       2       1
       1       3       2       1       1       3       2       1       1       3
       2       1       1       3       2       1       1       3       2       1
       1       3       2       1       1       3       2       1       1       3
       2       1       1       3       2       1       1       3       2       1
       1       3       2       1       1       3       2       1       1       3
       2       1       1       3       2       1       1       3       2       1
       1       3       2       1       1       3       2       1       1       3
       2       1       1       3       2       1       1       3       2       1
       1       3       2       1       1       3       2       1       1       3
       2       1       1       3       2       1       1       3       2       1
       1       3       2       1       1       3       2       1       1       3
       2       1       1       3       2       1       1       3       2       1
       1       3       2       1       1       3       2       1       1       3
       2       1       1       3       2       1       1       3       2       1
       1       3       2       1       1       3       2       1       1       3
       2       1       1       3       2       1       1       3       2       1
       1       3       2       1       1       3       2       1       1       3
       2       1       1       3       2       1       1       3       2       1
       1       3       2       1       1       3       2       1       1       3
       2       1       1       3       2       1       1       3       2       1
       1       3       2       1       1       3       2       1       1       3
       2       1       1       3       2       1       1       3       2       1
       1       3       2       1       1       3       2       1       1       3
       2       1       1       3       2       1       1       3       2       1
       1       3       2       1       1       3       2       1       1       3
       2       1       1       3       2       1       1       3       2       1
       1       3       2       1       1       3       2       1       1       3
       2       1       1       3       2       1       1       3       2       1
       1       3       2       1       1       3       2       1       1       3
       2       1       1       3       2       1       1       3       2       1
       1       3       2       1       1       3       2       1       1       3
       2       1       1       3       2       1       1       3       2       1
       1       3       2       1       1       3       2       1       1       3
       2       1       1       3       2       1       1       3       2       1
       1       3       2       1       1       3       2       1       1       3
       2       1       1       3       2       1       1       3       2       1
       1       3       2       1       1       3       2       1       1       3
       2       1       1       3       2       1       1       3       2       1
       1       3       2       1       1       3       2       1       1       3
       2       1       1       3       2       1       1       3       2       1
       1       3       2       1       1       3       2       1       1       3
       2       1       1       3       2       1       1       3       2       1
       1       3       2       1       1       3       2       1       1       3
       2       1       1       3       2       1       1       3       2       1
       1       3       2       1       1       3       2       1       1       3
       2       1       1       3       2       1       1       3       2       1
       1       3       2       1       1       3       2       1       1       3
       2       1       1       3       2       1       1       3       2       1
       1       3       2       1       1       3       2       1       1       3
       2       1       1       3       2       1       1       3       2       1
       1       3       2       1       1       3       2       1       1       3
       2       1       1       3       2       1       1       3       2       1
       1       3       2       1       1       3       2       1       1       3
       2       1       1       3       2       1       1       3       2       1
       1       3       2       1       1       3       2       1       1       3
       2       1       1       3       2       1       1       3       2       1
       1       3       2       1       1       3       2       1       1       3
       2       1       1       3       2       1       1       3       2       1
       1       3       2       1       1       3       2       1       1       3
       2       1       1       3       2       1       1       3       2       1
       1       3       2       1       1       3       2       1       1       3
       2       1       1       3       2       1       1       3       2       1
       1       3       2       1       1       3       2       1       1       3
       2       1       1       3       2       1       1       3       2       1
       1       3       2       1       1       3       2       1       1       3
       2       1       1       3       2       1       1       3       2       1
       1       3       2       1       1       3       2       1       1       3
       2       1       1       3       2       1       1       3       2       1
       1       3       2       1       1       3       2       1       1       3
       2       1       1       3       2       1       1       3       2       1
       1       3       2       1       1       3       2       1       1       3
       2       1       1       3       2       1       1       3       2       1
       1       3       2       1       1       3       2       1       1       3
       2       1       1       3       2       1       1       3       2       1
       1       3       2       1       1       3       2       1       1       3
       2       1       1       3       2       1       1       3       2       1
       1       3       2       1       1       3       2       1       1       3
       2       1       1       3       2       1       1       3       2       1
       1       3       2       1       1       3       2       1       1       3
       2       1       1       3       2       1       1       3       2       1
       1       3       2       1       1       3       2       1       1       3
       2       1       1       3       2       1       1       3       2       1
       1       3       2       1       1       3       2       1       1       3
       2       1       1       3       2       1       1       3       2       1
       1       3       2       1       1       3       2       1       1       3
       2       1       1       3       2       1       1       3       2       1
       1       3       2       1       1       3       2       1       1       3
       2       1       1       3       2       1       1       3       2       1
       1       3       2       1       1       3       2       1       1       3
       2       1       1       3       2       1       1       3       2       1
       1       3       2       1       1       3       2       1       1       3
       2       1       1       3       2       1       1       3       2       1
       1       3       2       1       1       3       2       1       1       3
       2       1       1       3       2       1       1       3       2       1
       1       3       2       1       1       3       2       1       1       3
       2       1       1       3       2       1       1       3       2       1
       1       3       2       1       1       3       2       1       1       3
       2       1       1       3       2       1       1       3       2       1
       1       3       2       1       1       3       2       1       1       3
       2       1       1       3       2       1       1       3       2       1
       1       3       2       1       1       3       2       1       1       3
       2       1       1       3       2       1       1       3       2       1
       1       3       2       1       1       3       2       1       1       3
       2       1       1       3       2       1       1       3       2       1
       1       3       2       1       1       3       2       1       1       3
       2       1       1       3       2       1       1       3       2       1
       1       3       2       1       1       3       2       1       1       3
       2       1       1       3       2       1       1       3       2       1
       1       3       2       1       1       3       2       1       1       3
       2       1       1       3       2       1       1       3       2       1
       1       3       2       1       1       3       2       1       1       3
       2       1       1       3       2       1       1       3       2       1
       1       3       2       1       1       3       2       1       1       3
       2       1       1       3       2       1       1       3       2       1
       1       3       2       1       1       3       2       1       1       3
       2       1       1       3       2       1       1       3       2       1
       1       3       2       1       1       3       2       1       1       3
       2       1       1       3       2       1       1       3       2       1
       1       3       2       1       1       3       2       1       1       3
       2       1       1       3       2       1       1       3       2       1
       1       3       2       1       1       3       2       1       1       3
       2       1       1       3       2       1       1       3       2       1
       1       3       2       1       1       3       2       1       1       3
       2       1       1       3       2       1       1       3       2       1
       1       3       2       1       1       3       2       1       1       3
       2       1       1       3       2       1       1       3       2       1
       1       3       2       1       1       3       2       1       1       3
       2       1       1       3       2       1       1       3       2       1
       1       3       2       1       1       3       2       1       1       3
       2       1       1       3       2       1       1       3       2       1
       1       3       2       1       1       3       2       1       1       3
       2       1       1       3       2       1       1       3       2       1
       1       3       2       1       1       3       2       1       1       3
       2       1       1       3       2       1       1       3       2       1
       1       3       2       1       1       3       2       1       1       3
       2       1       1       3       2       1       1       3       2       1
       1       3       2       1       1       3       2       1       1       3
       2       1       1       3       2       1       1       3       2       1
       1       3       2       1       1       3       2       1       1       3
       2       1       1       3       2       1       1       3       2       1
       1       3       2       1       1       3       2       1       1       3
       2       1       1       3       2       1       1       3       2       1
       1       3       2       1       1       3       2       1       1       3
       2       1       1       3       2       1       1       3       2       1
       1       3       2       1       1       3       2       1       1       3
       2       1       1       3       2       1       1       3       2       1
       1       3       2       1       1       3       2       1       1       3
       2       1       1       3       2       1       1       3       2       1
       1       3       2       1       1       3       2       1       1       3
       2       1       1       3       2       1       1       3       2       1
       1       3       2       1       1       3       2       1       1       3
       2       1       1       3       2       1       1       3       2       1
       1       3       2       1       1       3       2       1       1       3
       2       1       1       3       2       1       1       3       2       1
       1       3       2       1       1       3       2       1       1       3
       2       1       1       3       2       1       1       3       2       1
       1       3       2       1       1       3       2       1       1       3
       2       1       1       3       2       1       1       3       2       1
       1       3       2       1       1       3       2       1       1       3
       2       1       1       3       2       1       1       3       2       1
       1       3       2       1       1       3       2       1       1       3
       2       1       1       3       2       1       1       3       2       1
       1       3       2       1       1       3       2       1       1       3
       2       1       1       3       2       1       1       3       2       1
       1       3       2       1       1       3       2       1       1       3
       2       1       1       3       2       1       1       3       2       1
       1       3       2       1       1       3       2       1       1       3
       2       1       1       3       2       1       1       3       2       1
       1       3       2       1       1       3       2       1       1       3
       2       1       1       3       2       1       1       3       2       1
       1       3       2       1       1       3       2       1       1       3
       2       1       1       3       2       1       1       3       2       1
       1       3       2       1       1       3       2       1       1       3
       2       1       1       3       2       1       1       3       2       1
       1       3       2       1       1       3       2       1       1       3
       2       1       1       3       2       1       1       3       2       1
       1       3       2       1       1       3       2       1       1       3
       2       1       1       3       2       1       1       3       2       1
       1       3       2       1       1       3       2       1       1       3
       2       1       1       3       2       1       1       3       2       1
       1       3       2       1       1       3       2       1       1       3
       2       1       1       3       2       1       1       3       2       1
       1       3       2       1       1       3       2       1       1       3
       2       1       1       3       2       1       1       3       2       1
       1       3       2       1       1       3       2       1       1       3
       2       1       1       3       2       1       1       3       2       1
       1       3       2       1       1       3       2       1       1       3
       2       1       1       3       2       1       1       3       2       1
       1       3       2       1       1       3       2       1       1       3
       2       1       1       3       2       1       1       3       2       1
       1       3       2       1       1       3       2       1       1       3
       2       1       1       3       2       1       1       3       2       1
       1       3       2       1       1       3       2       1       1       3
       2       1       1       3       2       1       1       3       2       1
       1       3       2       1       1       3       2       1       1       3
       2       1       1       3       2       1       1       3       2       1
       1       3       2       1       1       3       2       1       1       3
       2       1       1       3       2       1       1       3       2       1
       1       3       2       1       1       3       2       1       1       3
       2       1       1       3       2       1       1       3       2       1
       1       3       2       1       1       3       2       1       1       3
       2       1       1       3       2       1       1       3       2       1
       1       3       2       1       1       3       2       1       1       3
       2       1       1       3       2       1       1       3       2       1
       1       3       2       1       1       3       2       1       1       3
       2       1       1       3       2       1       1       3       2       1
       1       3       2       1       1       3       2       1       1       3
       2       1       1       3       2       1       1       3       2       1
       1       3       2       1       1       3       2       1       1       3
       2       1       1       3       2       1       1       3       2       1
       1       3       2       1       1       3       2       1       1       3
       2       1       1       3       2       1       1       3       2       1
       1       3       2       1       1       3       2       1       1       3
       2       1       1       3       2       1       1       3       2       1
       1       3       2       1       1       3       2       1       1       3
       2       1       1       3       2       1       1       3       2       1
       1       3       2       1       1       3       2       1       1       3
       2       1       1       3       2       1       1       3       2       1
       1       3       2       1       1       3       2       1       1       3
       2       1       1       3       2       1       1       3       2       1
       1       3       2       1       1       3       2       1       1       3
       2       1       1       3       2       1       1       3       2       1
       1       3       2       1       1       3       2       1       1       3
       2       1       1       3       2       1       1       3       2       1
       1       3       2       1       1       3       2       1       1       3
       2       1       1       3       2       1       1       3       2       1
       1       3       2       1       1       3       2       1       1       3
       2       1       1       3       2       1       1       3       2       1
       1       3       2       1       1       3       2       1       1       3
       2       1       1       3       2       1       1       3       2       1
       1       3       2       1       1       3       2       1       1       3
       2       1       1       3       2       1       1       3       2       1
       1       3       2       1       1       3       2       1       1       3
       2       1       1       3       2       1       1       3       2       1
       1       3       2       1       1       3       2       1       1       3
       2       1       1       3       2       1       1       3       2       1
       1       3       2       1       1       3       2       1       1       3
       2       1       1       3       2       1       1       3       2       1
       1       3       2       1       1       3       2       1       1       3
       2       1       1       3       2       1       1       3       2       1
       1       3       2       1       1       3       2       1       1       3
       2       1       1       3       2       1       1       3       2       1
       1       3       2       1       1       3       2       1       1       3
       2       1       1       3       2       1       1       3       2       1
       1       3       2       1       1       3       2       1       1       3
       2       1       1       3       2       1       1       3       2       1
       1       3       2       1       1       3       2       1       1       3
       2       1       1       3       2       1       1       3       2       1
       1       3       2       1       1       3       2       1       1       3
       2       1       1       3       2       1       1       3       2       1
       1       3       2       1       1       3       2       1       1       3
       2       1       1       3       2       1       1       3       2       1
       1       3       2       1       1       3       2       1       1       3
       2       1       1       3       2       1       1       3       2       1
       1       3       2       1       1       3       2       1       1       3
       2       1       1       3       2       1       1       3       2       1
       1       3       2       1       1       3       2       1       1       3
       2       1       1       3       2       1       1       3       2       1
       1       3       2       1       1       3       2       1       1       3
       2       1       1       3       2       1       1       3       2       1
       1       3       2       1       1       3       2       1       1       3
       2       1       1       3       2       1       1       3       2       1
       1       3       2       1       1       3       2       1       1       3
       2       1       1       3       2       1       1       3       2       1
       1       3       2       1       1       3       2       1       1       3
       2       1       1       3       2       1       1       3       2       1
       1       3       2       1       1       3       2       1       1       3
       2       1       1       3       2       1       1       3       2       1
       1       3       2       1       1       3       2       1       1       3
       2       1       1       3       2       1       1       3       2       1
       1       3       2       1       1       3       2       1       1       3
       2       1       1       3       2       1       1       3       2       1
       1       3       2       1       1       3       2       1       1       3
       2       1       1       3       2       1       1       3       2       1
       1       3       2       1       1       3       2       1       1       3
       2       1       1       3       2       1       1       3       2       1
       1       3       2       1       1       3       2       1       1       3
       2       1       1       3       2       1       1       3       2       1
       1       3       2       1       1       3       2       1       1       3
       2       1       1       3       2       1       1       3       2       1
       1       3       2       1       1       3       2       1       1       3
       2       1       1       3       2       1       1       3       2       1
       1       3       2       1       1       3       2       1       1       3
       2       1       1       3       2       1       1       3       2       1
       1       3       2       1       1       3       2       1       1       3
       2       1       1       3       2       1       1       3       2       1
       1       3       2       1       1       3       2       1       1       3
       2       1       1       3       2       1       1       3       2       1
       1       3       2       1       1       3       2       1       1       3
       2       1       1       3       2       1       1       3       2       1
       1       3       2       1       1       3       2       1       1       3
       2       1       1       3       2       1       1       3       2       1
       1       3       2       1       1       3       2       1       1       3
       2       1       1       3       2       1       1       3       2       1
       1       3       2       1       1       3       2       1       1       3
       2       1       1       3       2       1       1       3       2       1
       1       3       2       1       1       3       2       1       1       3
       2       1       1       3       2       1       1       3       2       1
       1       3       2       1       1       3       2       1       1       3
       2       1       1       3       2       1       1       3       2       1
       1       3       2       1       1       3       2       1       1       3
       2       1       1       3       2       1       1       3       2       1
       1       3       2       1       1       3       2       1       1       3
       2       1       1       3       2       1       1       3       2       1
       1       3       2       1       1       3       2       1       1       3
       2       1       1       3       2       1       1       3       2       1
       1       3       2       1       1       3       2       1       1       3
       2       1       1       3       2       1       1       3       2       1
       1       3       2       1       1       3       2       1       1       3
       2       1       1       3       2       1       1       3       2       1
       1       3       2       1       1       3       2       1       1       3
       2       1       1       3       2       1       1       3       2       1
       1       3       2       1       1       3       2       1       1       3
       2       1       1       3       2       1       1       3       2       1
       1       3       2       1       1       3       2       1       1       3
       2       1       1       3       2       1       1       3       2       1
       1       3       2       1       1       3       2       1       1       3
       2       1       1       3       2       1       1       3       2       1
       1       3       2       1       1       3       2       1       1       3
       2       1       1       3       2       1       1       3       2       1
       1       3       2       1       1       3       2       1       1       3
       2       1       1       3       2       1       1       3       2       1
       1       3       2       1       1       3       2       1       1       3
       2       1       1       3       2       1       1       3       2       1
       1       3       2       1       1       3       2       1       1       3
       2       1       1       3       2       1       1       3       2       1
       1       3       2       1       1       3       2       1       1       3
       2       1       1       3       2       1       1       3       2       1
       1       3       2       1       1       3       2       1       1       3
       2       1       1       3       2       1       1       3       2       1
       1       3       2       1       1       3       2       1       1       3
       2       1       1       3       2       1       1       3       2       1
       1       3       2       1       1       3       2       1       1       3
       2       1       1       3       2       1       1       3       2       1
       1       3       2       1       1       3       2       1       1       3
       2       1       1       3       2       1       1       3       2       1
       1       3       2       1       1       3       2       1       1       3
       2       1       1       3       2       1       1       3       2       1
       1       3       2       1       1       3       2       1       1       3
       2       1       1       3       2       1       1       3       2       1
       1       3       2       1       1       3       2       1       1       3
       2       1       1       3       2       1       1       3       2       1
       1       3       2       1       1       3       2       1       1       3
       2       1       1       3       2       1       1       3       2       1
       1       3       2       1       1       3       2       1       1       3
       2       1       1       3       2       1       1       3       2       1
       1       3       2       1       1       3       2       1       1       3
       2       1       1       3       2       1       1       3       2       1
       1       3       2       1       1       3       2       1       1       3
       2       1       1       3       2       1       1       3       2       1
       1       3       2       1       1       3       2       1       1       3
       2       1       1       3       2       1       1       3       2       1
       1       3       2       1       1       3       2       1       1       3
       2       1       1       3       2       1       1       3       2       1
       1       3       2       1       1       3       2       1       1       3
       2       1       1       3       2       1       1       3       2       1
       1       3       2       1       1       3       2       1       1       3
       2       1       1       3       2       1       1       3       2       1
       1       3       2       1       1       3       2       1       1       3
       2       1       1       3       2       1       1       3       2       1
       1       3       2       1       1       3       2       1       1       3
       2       1       1       3       2       1       1       3       2       1
       1       3       2       1       1       3       2       1       1       3
       2       1       1       3       2       1       1       3       2       1
       1       3       2       1       1       3       2       1       1       3
       2       1       1       3       2       1       1       3       2       1
       1       3       2       1       1       3       2       1       1       3
       2       1       1       3       2       1       1       3       2       1
       1       3       2       1       1       3       2       1       1       3
       2       1       1       3       2       1       1       3       2       1
       1       3       2       1       1       3       2       1       1       3
       2       1       1       3       2       1       1       3       2       1
       1       3       2       1       1       3       2       1       1       3
       2       1       1       3       2       1       1       3       2       1
       1       3       2       1       1       3       2       1       1       3
       2       1       1       3       2       1       1       3       2       1
       1       3       2       1       1       3       2       1       1       3
       2       1       1       3       2       1       1       3       2       1
       1       3       2       1       1       3       2       1       1       3
       2       1       1       3       2       1       1       3       2       1
       1       3       2       1       1       3       2       1       1       3
       2       1       1       3       2       1       1       3       2       1
       1       3       2       1       1       3       2       1       1       3
       2       1       1       3       2       1       1       3       2       1
       1       3       2       1       1       3       2       1       1       3
       2       1       1       3       2       1       1       3       2       1
       1       3       2       1       1       3       2       1       1       3
       2       1       1       3       2       1       1       3       2       1
       1       3       2       1       1       3       2       1       1       3
       2       1       1       3       2       1       1       3       2       1
       1       3       2       1       1       3       2       1       1       3
       2       1       1       3       2       1       1       3       2       1
       1       3       2       1       1       3       2       1       1       3
       2       1       1       3       2       1       1       3       2       1
       1       3       2       1       1       3       2       1       1       3
       2       1       1       3       2       1       1       3       2       1
       1       3       2       1       1       3       2       1       1       3
       2       1       1       3       2       1       1       3       2       1
       1       3       2       1       1       3       2       1       1       3
       2       1       1       3       2       1       1       3       2       1
       1       3       2       1       1       3       2       1       1       3
       2       1       1       3       2       1       1       3       2       1
       1       3       2       1       1       3       2       1       1       3
       2       1       1       3       2       1       1       3       2       1
       1       3       2       1       1       3       2       1       1       3
       2       1       1       3       2       1       1       3       2       1
       1       3       2       1       1       3       2       1       1       3
       2       1       1       3       2       1       1       3       2       1
       1       3       2       1       1       3       2       1       1       3
       2       1       1       3       2       1       1       3       2       1
       1       3       2       1       1       3       2       1       1       3
       2       1       1       3       2       1       1       3       2       1
       1       3       2       1       1       3       2       1       1       3
       2       1       1       3       2       1       1       3       2       1
       1       3       2       1       1       3       2       1       1       3
       2       1       1       3       2       1       1       3       2       1
       1       3       2       1       1       3       2       1       1       3
       2       1       1       3       2       1       1       3       2       1
       1       3       2       1       1       3       2       1       1       3
       2       1       1       3       2       1       1       3       2       1
       1       3       2       1       1       3       2       1       1       3
       2       1       1       3       2       1       1       3       2       1
       1       3       2       1       1       3       2       1       1       3
       2       1       1       3       2       1       1       3       2       1
       1       3       2       1       1       3       2       1       1       3
       2       1       1       3       2       1       1       3       2       1
       1       3       2       1       1       3       2       1       1       3
       2       1       1       3       2       1       1       3       2       1
       1       3       2       1       1       3       2       1       1       3
       2       1       1       3       2       1       1       3       2       1
       1       3       2       1       1       3       2       1       1       3
       2       1       1       3       2       1       1       3       2       1
       1       3       2       1       1       3       2       1       1       3
       2       1       1       3       2       1       1       3       2       1
       1       3       2       1       1       3       2       1       1       3
       2       1       1       3       2       1       1       3       2       1
       1       3       2       1       1       3       2       1       1       3
       2       1       1       3       2       1       1       3       2       1
       1       3       2       1       1       3       2       1       1       3
       2       1       1       3       2       1       1       3       2       1
       1       3       2       1       1       3       2       1       1       3
       2       1       1       3       2       1       1       3       2       1
       1       3       2       1       1       3       2       1       1       3
       2       1       1       3       2       1       1       3       2       1
       1       3       2       1       1       3       2       1       1       3
       2       1       1       3       2       1       1       3       2       1
       1       3       2       1       1       3       2       1       1       3
       2       1       1       3       2       1       1       3       2       1
       1       3       2       1       1       3       2       1       1       3
       2       1       1       3       2       1       1       3       2       1
       1       3       2       1       1       3       2       1       1       3
       2       1       1       3       2       1       1       3       2       1
       1       3       2       1       1       3       2       1       1       3
       2       1       1       3       2       1       1       3       2       1
       1       3       2       1       1       3       2       1       1       3
       2       1       1       3       2       1       1       3       2       1
       1       3       2       1       1       3       2       1       1       3
       2       1       1       3       2       1       1       3       2       1
       1       3       2       1       1       3       2       1       1       3
       2       1       1       3       2       1       1       3       2       1
       1       3       2       1       1       3       2       1       1       3
       2       1       1       3       2       1       1       3       2       1
       1       3       2       1       1       3       2       1       1       3
       2       1       1       3       2       1       1       3       2       1
       1       3       2       1       1       3       2       1       1       3
       2       1       1       3       2       1       1       3       2       1
       1       3       2       1       1       3       2       1       1       3
       2       1       1       3       2       1       1       3       2       1
       1       3       2       1       1       3       2       1       1       3
       2       1       1       3       2       1       1       3       2       1
       1       3       2       1       1       3       2       1       1       3
       2       1       1       3       2       1       1       3       2       1
       1       3       2       1       1       3       2       1       1       3
       2       1       1       3       2       1       1       3       2       1
       1       3       2       1       1       3       2       1       1       3
       2       1       1       3       2       1       1       3       2       1
       1       3       2       1       1       3       2       1       1       3
       2       1       1       3       2       1       1       3       2       1
       1       3       2       1       1       3       2       1       1       3
       2       1       1       3       2       1       1       3       2       1
       1       3       2       1       1       3       2       1       1       3
       2       1       1       3       2       1       1       3       2       1
       1       3       2       1       1       3       2       1       1       3
       2       1       1       3       2       1       1       3       2       1
       1       3       2       1       1       3       2       1       1       3
       2       1       1       3       2       1       1       3       2       1
       1       3       2       1       1       3       2       1       1       3
       2       1       1       3       2       1       1       3       2       1
       1       3       2       1       1       3       2       1       1       3
       2       1       1       3       2       1       1       3       2       1
       1       3       2       1       1       3       2       1       1       3
       2       1       1       3       2       1       1       3       2       1
       1       3       2       1       1       3       2       1       1       3
       2       1       1       3       2       1       1       3       2       1
       1       3       2       1       1       3       2       1       1       3
       2       1       1       3       2       1       1       3       2       1
       1       3       2       1       1       3       2       1       1       3
       2       1       1       3       2       1       1       3       2       1
       1       3       2       1       1       3       2       1       1       3
       2       1       1       3       2       1       1       3       2       1
       1       3       2       1       1       3       2       1       1       3
       2       1       1       3       2       1       1       3       2       1
       1       3       2       1       1       3       2       1       1       3
       2       1       1       3       2       1       1       3       2       1
       1       3       2       1       1       3       2       1       1       3
       2       1       1       3       2       1       1       3       2       1
       1       3       2       1       1       3       2       1       1       3
       2       1       1       3       2       1       1       3       2       1
       1       3       2       1       1       3       2       1       1       3
       2       1       1       3       2       1       1       3       2       1
       1       3       2       1       1       3       2       1       1       3
       2       1       1       3       2       1       1       3       2       1
       1       3       2       1       1       3       2       1       1       3
       2       1       1       3       2       1       1       3       2       1
       1       3       2       1       1       3       2       1       1       3
       2       1       1       3       2       1       1       3       2       1
       1       3       2       1       1       3       2       1       1       3
       2       1       1       3       2       1       1       3       2       1
       1       3       2       1       1       3       2       1       1       3
       2       1       1       3       2       1       1       3       2       1
       1       3       2       1       1       3       2       1       1       3
       2       1       1       3       2       1       1       3       2       1
       1       3       2       1       1       3       2       1       1       3
       2       1       1       3       2       1       1       3       2       1
       1       3       2       1       1       3       2       1       1       3
       2       1       1       3       2       1       1       3       2       1
       1       3       2       1       1       3       2       1       1       3
       2       1       1       3       2       1       1       3       2       1
       1       3       2       1       1       3       2       1       1       3
       2       1       1       3       2       1       1       3       2       1
       1       3       2       1       1       3       2       1       1       3
       2       1       1       3       2       1       1       3       2       1
       1       3       2       1       1       3       2       1       1       3
       2       1       1       3       2       1       1       3       2       1
       1       3       2       1       1       3       2       1       1       3
       2       1       1       3       2       1       1       3       2       1
       1       3       2       1       1       3       2       1       1       3
       2       1       1       3       2       1       1       3       2       1
       1       3       2       1       1       3       2       1       1       3
       2       1       1       3       2       1       1       3       2       1
       1       3       2       1       1       3       2       1       1       3
       2       1       1       3       2       1       1       3       2       1
       1       3       2       1       1       3       2       1       1       3
       2       1       1       3       2       1       1       3       2       1
       1       3       2       1       1       3       2       1       1       3
       2       1       1       3       2       1       1       3       2       1
       1       3       2       1       1       3       2       1       1       3
       2       1       1       3       2       1       1       3       2       1
       1       3       2       1       1       3       2       1       1       3
       2       1       1       3       2       1       1       3       2       1
       1       3       2       1       1       3       2       1       1       3
       2       1       1       3       2       1       1       3       2       1
       1       3       2       1       1       3       2       1       1       3
       2       1       1       3       2       1       1       3       2       1
       1       3       2       1       1       3       2       1       1       3
       2       1       1       3       2       1       1       3       2       1
       1       3       2       1       1       3       2       1       1       3
       2       1       1       3       2       1       1       3       2       1
       1       3       2       1       1       3       2       1       1       3
       2       1       1       3       2       1       1       3       2       1
       1       3       2       1       1       3       2       1       1       3
       2       1       1       3       2       1       1       3       2       1
       1       3       2       1       1       3       2       1       1       3
       2       1       1       3       2       1       1       3       2       1
       1       3       2       1       1       3       2       1       1       3
       2       1       1       3       2       1       1       3       2       1
       1       3       2       1       1       3       2       1       1       3
       2       1       1       3       2       1       1       3       2       1
       1       3       2       1       1       3       2       1       1       3
       2       1       1       3       2       1       1       3       2       1
       1       3       2       1       1       3       2       1       1       3
       2       1       1       3       2       1       1       3       2       1
       1       3       2       1       1       3       2       1       1       3
       2       1       1       3       2       1       1       3       2       1
       1       3       2       1       1       3       2       1       1       3
       2       1       1       3       2       1       1       3       2       1
       1       3       2       1       1       3       2       1       1       3
       2       1       1       3       2       1       1       3       2       1
       1       3       2       1       1       3       2       1       1       3
       2       1       1       3       2       1       1       3       2       1
       1       3       2       1       1       3       2       1       1       3
       2       1       1       3       2       1       1       3       2       1
       1       3       2       1       1       3       2       1       1       3
       2       1       1       3       2       1       1       3       2       1
       1       3       2       1       1       3       2       1       1       3
       2       1       1       3       2       1       1       3       2       1
       1       3       2       1       1       3       2       1       1       3
       2       1       1       3       2       1       1       3       2       1
       1       3       2       1       1       3       2       1       1       3
       2       1       1       3       2       1       1       3       2       1
       1       3       2       1       1       3       2       1       1       3
       2       1       1       3       2       1       1       3       2       1
       1       3       2       1       1       3       2       1       1       3
       2       1       1       3       2       1       1       3       2       1
       1       3       2       1       1       3       2       1       1       3
       2       1       1       3       2       1       1       3       2       1
       1       3       2       1       1       3       2       1       1       3
       2       1       1       3       2       1       1       3       2       1
       1       3       2       1       1       3       2       1       1       3
       2       1       1       3       2       1       1       3       2       1
       1       3       2       1       1       3       2       1       1       3
       2       1       1       3       2       1       1       3       2       1
       1       3       2       1       1       3       2       1       1       3
       2       1       1       3       2       1       1       3       2       1
       1       3       2       1       1       3       2       1       1       3
       2       1       1       3       2       1       1       3       2       1
       1       3       2       1       1       3       2       1       1       3
       2       1       1       3       2       1       1       3       2       1
       1       3       2       1       1       3       2       1       1       3
       2       1       1       3       2       1       1       3       2       1
       1       3       2       1       1       3       2       1       1       3
       2       1       1       3       2       1       1       3       2       1
       1       3       2       1       1       3       2       1       1       3
       2       1       1       3       2       1       1       3       2       1
       1       3       2       1       1       3       2       1       1       3
       2       1       1       3       2       1       1       3       2       1
       1       3       2       1       1       3       2       1       1       3
       2       1       1       3       2       1       1       3       2       1
       1       3       2       1       1       3       2       1       1       3
       2       1       1       3       2       1       1       3       2       1
       1       3       2       1       1       3       2       1       1       3
       2       1       1       3       2       1       1       3       2       1
       1       3       2       1       1       3       2       1       1       3
       2       1       1       3       2       1       1       3       2       1
       1       3       2       1       1       3       2       1       1       3
       2       1       1       3       2       1       1       3       2       1
       1       3       2       1       1       3       2       1       1       3
       2       1       1       3       2       1       1       3       2       1
       1       3       2       1       1       3       2       1       1       3
       2       1       1       3       2       1       1       3       2       1
       1       3       2       1       1       3       2       1       1       3
       2       1       1       3       2       1       1       3       2       1
       1       3       2       1       1       3       2       1       1       3
       2       1       1       3       2       1       1       3       2       1
       1       3       2       1       1       3       2       1       1       3
       2       1       1       3       2       1       1       3       2       1
       1       3       2       1       1       3       2       1       1       3
       2       1       1       3       2       1       1       3       2       1
       1       3       2       1       1       3       2       1       1       3
       2       1       1       3       2       1       1       3       2       1
       1       3       2       1       1       3       2       1       1       3
       2       1       1       3       2       1       1       3       2       1
       1       3       2       1       1       3       2       1       1       3
       2       1       1       3       2       1       1       3       2       1
       1       3       2       1       1       3       2       1       1       3
       2       1       1       3       2       1       1       3       2       1
       1       3       2       1       1       3       2       1       1       3
       2       1       1       3       2       1       1       3       2       1
       1       3       2       1       1       3       2       1       1       3
       2       1       1       3       2       1       1       3       2       1
       1       3       2       1       1       3       2       1       1       3
       2       1       1       3       2       1       1       3       2       1
       1       3       2       1       1       3       2       1       1       3
       2       1       1       3       2       1       1       3       2       1
       1       3       2       1       1       3       2       1       1       3
       2       1       1       3       2       1       1       3       2       1
       1       3       2       1       1       3       2       1       1       3
       2       1       1       3       2       1       1       3       2       1
       1       3       2       1       1       3       2       1       1       3
       2       1       1       3       2       1       1       3       2       1
       1       3       2       1       1       3       2       1       1       3
       2       1       1       3       2       1       1       3       2       1
       1       3       2       1       1       3       2       1       1       3
       2       1       1       3       2       1       1       3       2       1
       1       3       2       1       1       3       2       1       1       3
       2       1       1       3       2       1       1       3       2       1
       1       3       2       1       1       3       2       1       1       3
       2       1       1       3       2       1       1       3       2       1
       1       3       2       1       1       3       2       1       1       3
       2       1       1       3       2       1       1       3       2       1
       1       3       2       1       1       3       2       1       1       3
       2       1       1       3       2       1       1       3       2       1
       1       3       2       1       1       3       2       1       1       3
       2       1       1       3       2       1       1       3       2       1
       1       3       2       1       1       3       2       1       1       3
       2       1       1       3       2       1       1       3       2       1
       1       3       2       1       1       3       2       1       1       3
       2       1       1       3       2       1       1       3       2       1
       1       3       2       1       1       3       2       1       1       3
       2       1       1       3       2       1       1       3       2       1
       1       3       2       1       1       3       2       1       1       3
       2       1       1       3       2       1       1       3       2       1
       1       3       2       1       1       3       2       1       1       3
       2       1       1       3       2       1       1       3       2       1
       1       3       2       1       1       3       2       1       1       3
       2       1       1       3       2       1       1       3       2       1
       1       3       2       1       1       3       2       1       1       3
       2       1       1       3       2       1       1       3       2       1
       1       3       2       1       1       3       2       1       1       3
       2       1       1       3       2       1       1       3       2       1
       1       3       2       1       1       3       2       1       1       3
       2       1       1       3       2       1       1       3       2       1
       1       3       2       1       1       3       2       1       1       3
       2       1       1       3       2       1       1       3       2       1
       1       3       2       1       1       3       2       1       1       3
       2       1       1       3       2       1       1       3       2       1
       1       3       2       1       1       3       2       1       1       3
       2       1       1       3       2       1       1       3       2       1
       1       3       2       1       1       3       2       1       1       3
       2       1       1       3       2       1       1       3       2       1
       1       3       2       1       1       3       2       1       1       3
       2       1       1       3       2       1       1       3       2       1
       1       3       2       1       1       3       2       1       1       3
       2       1       1       3       2       1       1       3       2       1
       1       3       2       1       1       3       2       1       1       3
       2       1       1       3       2       1       1       3       2       1
       1       3       2       1       1       3       2       1       1       3
       2       1       1       3       2       1       1       3       2       1
       1       3       2       1       1       3       2       1       1       3
       2       1       1       3       2       1       1       3       2       1
       1       3       2       1       1       3       2       1       1       3
       2       1       1       3       2       1       1       3       2       1
       1       3       2       1       1       3       2       1       1       3
       2       1       1       3       2       1       1       3       2       1
       1       3       2       1       1       3       2       1       1       3
       2       1       1       3       2       1       1       3       2       1
       1       3       2       1       1       3       2       1       1       3
       2       1       1       3       2       1       1       3       2       1
       1       3       2       1       1       3       2       1       1       3
       2       1       1       3       2       1       1       3       2       1
       1       3       2       1       1       3       2       1       1       3
       2       1       1       3       2       1       1       3       2       1
       1       3       2       1       1       3       2       1       1       3
       2       1       1       3       2       1       1       3       2       1
       1       3       2       1       1       3       2       1       1       3
       2       1       1       3       2       1       1       3       2       1
       1       3       2       1       1       3       2       1       1       3
       2       1       1       3       2       1       1       3       2       1
       1       3       2       1       1       3       2       1       1       3
       2       1       1       3       2       1       1       3       2       1
       1       3       2       1       1       3       2       1       1       3
       2       1       1       3       2       1       1       3       2       1
       1       3       2       1       1       3       2       1       1       3
       2       1       1       3       2       1       1       3       2       1
       1       3       2       1       1       3       2       1       1       3
       2       1       1       3       2       1       1       3       2       1
       1       3       2       1       1       3       2       1       1       3
       2       1       1       3       2       1       1       3       2       1
       1       3       2       1       1       3       2       1       1       3
       2       1       1       3       2       1       1       3       2       1
       1       3       2       1       1       3       2       1       1       3
       2       1       1       3       2       1       1       3       2       1
       1       3       2       1       1       3       2       1       1       3
       2       1       1       3       2       1       1       3       2       1
       1       3       2       1       1       3       2       1       1       3
       2       1       1       3       2       1       1       3       2       1
       1       3       2       1       1       3       2       1       1       3
       2       1       1       3       2       1       1       3       2       1
       1       3       2       1       1       3       2       1       1       3
       2       1       1       3       2       1       1       3       2       1
       1       3       2       1       1       3       2       1       1       3
       2       1       1       3       2       1       1       3       2       1
       1       3       2       1       1       3       2       1       1       3
       2       1       1       3       2       1       1       3       2       1
       1       3       2       1       1       3       2       1       1       3
       2       1       1       3       2       1       1       3       2       1
       1       3       2       1       1       3       2       1       1       3
       2       1       1       3       2       1       1       3       2       1
       1       3       2       1       1       3       2       1       1       3
       2       1       1       3       2       1       1       3       2       1
       1       3       2       1       1       3       2       1       1       3
       2       1       1       3       2       1       1       3       2       1
       1       3       2       1       1       3       2       1       1       3
       2       1       1       3       2       1       1       3       2       1
       1       3       2       1       1       3       2       1       1       3
       2       1       1       3       2       1       1       3       2       1
       1       3       2       1       1       3       2       1       1       3
       2       1       1       3       2       1       1       3       2       1
       1       3       2       1       1       3       2       1       1       3
       2       1       1       3       2       1       1       3       2       1
       1       3       2       1       1       3       2       1       1       3
       2       1       1       3       2       1       1       3       2       1
       1       3       2       1       1       3       2       1       1       3
       2       1       1       3       2       1       1       3       2       1
       1       3       2       1       1       3       2       1       1       3
       2       1       1       3       2       1       1       3       2       1
       1       3       2       1       1       3       2       1       1       3
       2       1       1       3       2       1       1       3       2       1
       1       3       2       1       1       3       2       1       1       3
       2       1       1       3       2       1       1       3       2       1
       1       3       2       1       1       3       2       1       1       3
       2       1       1       3       2       1       1       3       2       1
       1       3       2       1       1       3       2       1       1       3
       2       1       1       3       2       1       1       3       2       1
       1       3       2       1       1       3       2       1       1       3
       2       1       1       3       2       1       1       3       2       1
       1       3       2       1       1       3       2       1       1       3
       2       1       1       3       2       1       1       3       2       1
       1       3       2       1       1       3       2       1       1       3
       2       1       1       3       2       1       1       3       2       1
       1       3       2       1       1       3       2       1       1       3
       2       1       1       3       2       1       1       3       2       1
       1       3       2       1       1       3       2       1       1       3
       2       1       1       3       2       1       1       3       2       1
       1       3       2       1       1       3       2       1       1       3
       2       1       1       3       2       1       1       3       2       1
       1       3       2       1       1       3       2       1       1       3
       2       1       1       3       2       1       1       3       2       1
       1       3       2       1       1       3       2       1       1       3
       2       1       1       3       2       1       1       3       2       1
       1       3       2       1       1       3       2       1       1       3
       2       1       1       3       2       1       1       3       2       1
       1       3       2       1       1       3       2       1       1       3
       2       1       1       3       2       1       1       3       2       1
       1       3       2       1       1       3       2       1       1       3
       2       1       1       3       2       1       1       3       2       1
       1       3       2       1       1       3       2       1       1       3
       2       1       1       3       2       1       1       3       2       1
       1       3       2       1       1       3       2       1       1       3
       2       1       1       3       2       1       1       3       2       1
       1       3       2       1       1       3       2       1       1       3
       2       1       1       3       2       1       1       3       2       1
       1       3       2       1       1       3       2       1       1       3
       2       1       1       3       2       1       1       3       2       1
       1       3       2       1       1       3       2       1       1       3
       2       1       1       3       2       1       1       3       2       1
       1       3       2       1       1       3       2       1       1       3
       2       1       1       3       2       1       1       3       2       1
       1       3       2       1       1       3       2       1       1       3
       2       1       1       3       2       1       1       3       2       1
       1       3       2       1       1       3       2       1       1       3
       2       1       1       3       2       1       1       3       2       1
       1       3       2       1       1       3       2       1       1       3
       2       1       1       3       2       1       1       3       2       1
       1       3       2       1       1       3       2       1       1       3
       2       1       1       3       2       1       1       3       2       1
       1       3       2       1       1       3       2       1       1       3
       2       1       1       3       2       1       1       3       2       1
       1       3       2       1       1       3       2       1       1       3
       2       1       1       3       2       1       1       3       2       1
       1       3       2       1       1       3       2       1       1       3
       2       1       1       3       2       1       1       3       2       1
       1       3       2       1       1       3       2       1       1       3
       2       1       1       3       2       1       1       3       2       1
       1       3       2       1       1       3       2       1       1       3
       2       1       1       3       2       1       1       3       2       1
       1       3       2       1       1       3       2       1       1       3
       2       1       1       3       2       1       1       3       2       1
       1       3       2       1       1       3       2       1       1       3
       2       1       1       3       2       1       1       3       2       1
       1       3       2       1       1       3       2       1       1       3
       2       1       1       3       2       1       1       3       2       1
       1       3       2       1       1       3       2       1       1       3
       2       1       1       3       2       1       1       3       2       1
       1       3       2       1       1       3       2       1       1       3
       2       1       1       3       2       1       1       3       2       1
       1       3       2       1       1       3       2       1       1       3
       2       1       1       3       2       1       1       3       2       1
       1       3       2       1       1       3       2       1       1       3
       2       1       1       3       2       1       1       3       2       1
       1       3       2       1       1       3       2       1       1       3
       2       1       1       3       2       1       1       3       2       1
       1       3       2       1       1       3       2       1       1       3
       2       1       1       3       2       1       1       3       2       1
       1       3       2       1       1       3       2       1       1       3
       2       1       1       3       2       1       1       3       2       1
       1       3       2       1       1       3       2       1       1       3
       2       1       1       3       2       1       1       3       2       1
       1       3       2       1       1       3       2       1       1       3
       2       1       1       3       2       1       1       3       2       1
       1       3       2       1       1       3       2       1       1       3
       2       1       1       3       2       1       1       3       2       1
       1       3       2       1       1       3       2       1       1       3
       2       1       1       3       2       1       1       3       2       1
       1       3       2       1       1       3       2       1       1       3
       2       1       1       3       2       1       1       3       2       1
       1       3       2       1       1       3       2       1       1       3
       2       1       1       3       2       1       1       3       2       1
       1       3       2       1       1       3       2       1       1       3
       2       1       1       3       2       1       1       3       2       1
       1       3       2       1       1       3       2       1       1       3
       2       1       1       3       2       1       1       3       2       1
       1       3       2       1       1       3       2       1       1       3
       2       1       1       3       2       1       1       3       2       1
       1       3       2       1       1       3       2       1       1       3
       2       1       1       3       2       1       1       3       2       1
       1       3       2       1       1       3       2       1       1       3
       2       1       1       3       2       1       1       3       2       1
       1       3       2       1       1       3       2       1       1       3
       2       1       1       3       2       1       1       3       2       1
       1       3       2       1       1       3       2       1       1       3
       2       1       1       3       2       1       1       3       2       1
       1       3       2       1       1       3       2       1       1       3
       2       1       1       3       2       1       1       3       2       1
       1       3       2       1       1       3       2       1       1       3
       2       1       1       3       2       1       1       3       2       1
       1       3       2       1       1       3       2       1       1       3
       2       1       1       3       2       1       1       3       2       1
       1       3       2       1       1       3       2       1       1       3
       2       1       1       3       2       1       1       3       2       1
       1       3       2       1       1       3       2       1       1       3
       2       1       1       3       2       1       1       3       2       1
       1       3       2       1       1       3       2       1       1       3
       2       1       1       3       2       1       1       3       2       1
       1       3       2       1       1       3       2       1       1       3
       2       1       1       3       2       1       1       3       2       1
       1       3       2       1       1       3       2       1       1       3
       2       1       1       3       2       1       1       3       2       1
       1       3       2       1       1       3       2       1       1       3
       2       1       1       3       2       1       1       3       2       1
       1       3       2       1       1       3       2       1       1       3
       2       1       1       3       2       1       1       3       2       1
       1       3       2       1       1       3       2       1       1       3
       2       1       1       3       2       1       1       3       2       1
       1       3       2       1       1       3       2       1       1       3
       2       1       1       3       2       1       1       3       2       1
       1       3       2       1       1       3       2       1       1       3
       2       1       1       3       2       1       1       3       2       1
       1       3       2       1       1       3       2       1       1       3
       2       1       1       3       2       1       1       3       2       1
       1       3       2       1       1       3       2       1       1       3
       2       1       1       3       2       1       1       3       2       1
       1       3       2       1       1       3       2       1       1       3
       2       1       1       3       2       1       1       3       2       1
       1       3       2       1       1       3       2       1       1       3
       2       1       1       3       2       1       1       3       2       1
       1       3       2       1       1       3       2       1       1       3
       2       1       1       3       2       1       1       3       2       1
       1       3       2       1       1       3       2       1       1       3
       2       1       1       3       2       1       1       3       2       1
       1       3       2       1       1       3       2       1       1       3
       2       1       1       3       2       1       1       3       2       1
       1       3       2       1       1       3       2       1       1       3
       2       1       1       3       2       1       1       3       2       1
       1       3       2       1       1       3       2       1       1       3
       2       1       1       3       2       1       1       3       2       1
       1       3       2       1       1       3       2       1       1       3
       2       1       1       3       2       1       1       3       2       1
       1       3       2       1       1       3       2       1       1       3
       2       1       1       3       2       1       1       3       2       1
       1       3       2       1       1       3       2       1       1       3
       2       1       1       3       2       1       1       3       2       1
       1       3       2       1       1       3       2       1       1       3
       2       1       1       3       2       1       1       3       2       1
       1       3       2       1       1       3       2       1       1       3
       2       1       1       3       2       1       1       3       2       1
       1       3       2       1       1       3       2       1       1       3
       2       1       1       3       2       1       1       3       2       1
       1       3       2       1       1       3       2       1       1       3
       2       1       1       3       2       1       1       3       2       1
       1       3       2       1       1       3       2       1       1       3
       2       1       1       3       2       1       1       3       2       1
       1       3       2       1       1       3       2       1       1       3
       2       1       1       3       2       1       1       3       2       1
       1       3       2       1       1       3       2       1       1       3
       2       1       1       3       2       1       1       3       2       1
       1       3       2       1       1       3       2       1       1       3
       2       1       1       3       2       1       1       3       2       1
       1       3       2       1       1       3       2       1       1       3
       2       1       1       3       2       1       1       3       2       1
       1       3       2       1       1       3       2       1       1       3
       2       1       1       3       2       1       1       3       2       1
       1       3       2       1       1       3       2       1       1       3
       2       1       1       3       2       1       1       3       2       1
       1       3       2       1       1       3       2       1       1       3
       2       1       1       3       2       1       1       3       2       1
       1       3       2       1       1       3       2       1       1       3
       2       1       1       3       2       1       1       3       2       1
       1       3       2       1       1       3       2       1       1       3
       2       1       1       3       2       1       1       3       2       1
       1       3       2       1       1       3       2       1       1       3
       2       1       1       3       2       1       1       3       2       1
       1       3       2       1       1       3       2       1       1       3
       2       1       1       3       2       1       1       3       2       1
       1       3       2       1       1       3       2       1       1       3
       2       1       1       3       2       1       1       3       2       1
       1       3       2       1       1       3       2       1       1       3
       2       1       1       3       2       1       1       3       2       1
       1       3       2       1       1       3       2       1       1       3
       2       1       1       3       2       1       1       3       2       1
       1       3       2       1       1       3       2       1       1       3
       2       1       1       3       2       1       1       3       2       1
       1       3       2       1       1       3       2       1       1       3
       2       1       1       3       2       1       1       3       2       1
       1       3       2       1       1       3       2       1       1       3
       2       1       1       3       2       1       1       3       2       1
       1       3       2       1       1       3       2       1       1       3
       2       1       1       3       2       1       1       3       2       1
       1       3       2       1       1       3       2       1       1       3
       2       1       1       3       2       1       1       3       2       1
       1       3       2       1       1       3       2       1       1       3
       2       1       1       3       2       1       1       3       2       1
       1       3       2       1       1       3       2       1       1       3
       2       1       1       3       2       1       1       3       2       1
       1       3       2       1       1       3       2       1       1       3
       2       1       1       3       2       1       1       3       2       1
       1       3       2       1       1       3       2       1       1       3
       2       1       1       3       2       1       1       3       2       1
       1       3       2       1       1       3       2       1       1       3
       2       1       1       3       2       1       1       3       2       1
       1       3       2       1       1       3       2       1       1       3
       2       1       1       3       2       1       1       3       2       1
       1       3       2       1       1       3       2       1       1       3
       2       1       1       3       2       1       1       3       2       1
       1       3       2       1       1       3       2       1       1       3
       2       1       1       3       2       1       1       3       2       1
       1       3       2       1       1       3       2       1       1       3
       2       1       1       3       2       1       1       3       2       1
       1       3       2       1       1       3       2       1       1       3
       2       1       1       3       2       1       1       3       2       1
       1       3       2       1       1       3       2       1       1       3
       2       1       1       3       2       1       1       3       2       1
       1       3       2       1       1       3       2       1       1       3
       2       1       1       3       2       1       1       3       2       1
       1       3       2       1       1       3       2       1       1       3
       2       1       1       3       2       1       1       3       2       1
       1       3       2       1       1       3       2       1       1       3
       2       1       1       3       2       1       1       3       2       1
       1       3       2       1       1       3       2       1       1       3
       2       1       1       3       2       1       1       3       2       1
       1       3       2       1       1       3       2       1       1       3
       2       1       1       3       2       1       1       3       2       1
       1       3       2       1       1       3       2       1       1       3
       2       1       1       3       2       1       1       3       2       1
       1       3       2       1       1       3       2       1       1       3
       2       1       1       3       2       1       1       3       2       1
       1       3       2       1       1       3       2       1       1       3
       2       1       1       3       2       1       1       3       2       1
       1       3       2       1       1       3       2       1       1       3
       2       1       1       3       2       1       1       3       2       1
       1       3       2       1       1       3       2       1       1       3
       2       1       1       3       2       1       1       3       2       1
       1       3       2       1       1       3       2       1       1       3
       2       1       1       3       2       1       1       3       2       1
       1       3       2       1       1       3       2       1       1       3
       2       1       1       3       2       1       1       3       2       1
       1       3       2       1       1       3       2       1       1       3
       2       1       1       3       2       1       1       3       2       1
       1       3       2       1       1       3       2       1       1       3
       2       1       1       3       2       1       1       3       2       1
       1       3       2       1       1       3       2       1       1       3
       2       1       1       3       2       1       1       3       2       1
       1       3       2       1       1       3       2       1       1       3
       2       1       1       3       2       1       1       3       2       1
       1       3       2       1       1       3       2       1       1       3
       2       1       1       3       2       1       1       3       2       1
       1       3       2       1       1       3       2       1       1       3
       2       1       1       3       2       1       1       3       2       1
       1       3       2       1       1       3       2       1       1       3
       2       1       1       3       2       1       1       3       2       1
       1       3       2       1       1       3       2       1       1       3
       2       1       1       3       2       1       1       3       2       1
       1       3       2       1       1       3       2       1       1       3
       2       1       1       3       2       1       1       3       2       1
       1       3       2       1       1       3       2       1       1       3
       2       1       1       3       2       1       1       3       2       1
       1       3       2       1       1       3       2       1       1       3
       2       1       1       3       2       1       1       3       2       1
       1       3       2       1       1       3       2       1       1       3
       2       1       1       3       2       1       1       3       2       1
       1       3       2       1       1       3       2       1       1       3
       2       1       1       3       2       1       1       3       2       1
       1       3       2       1       1       3       2       1       1       3
       2       1       1       3       2       1       1       3       2       1
       1       3       2       1       1       3       2       1       1       3
       2       1       1       3       2       1       1       3       2       1
       1       3       2       1       1       3       2       1       1       3
       2       1       1       3       2       1       1       3       2       1
       1       3       2       1       1       3       2       1       1       3
       2       1       1       3       2       1       1       3       2       1
       1       3       2       1       1       3       2       1       1       3
       2       1       1       3       2       1       1       3       2       1
       1       3       2       1       1       3       2       1       1       3
       2       1       1       3       2       1       1       3       2       1
       1       3       2       1       1       3       2       1       1       3
       2       1       1       3       2       1       1       3       2       1
       1       3       2       1       1       3       2       1       1       3
       2       1       1       3       2       1       1       3       2       1
       1       3       2       1       1       3       2       1       1       3
       2       1       1       3       2       1       1       3       2       1
       1       3       2       1       1       3       2       1       1       3
       2       1       1       3       2       1       1       3       2       1
       1       3       2       1       1       3       2       1       1       3
       2       1       1       3       2       1       1       3       2       1
       1       3       2       1       1       3       2       1       1       3
       2       1       1       3       2       1       1       3       2       1
       1       3       2       1       1       3       2       1       1       3
       2       1       1       3       2       1       1       3       2       1
       1       3       2       1       1       3       2       1       1       3
       2       1       1       3       2       1       1       3       2       1
       1       3       2       1       1       3       2       1       1       3
       2       1       1       3       2       1       1       3       2       1
       1       3       2       1       1       3       2       1       1       3
       2       1       1       3       2       1       1       3       2       1
       1       3       2       1       1       3       2       1       1       3
       2       1       1       3       2       1       1       3       2       1
       1       3       2       1       1       3       2       1       1       3
       2       1       1       3       2       1       1       3       2       1
       1       3       2       1       1       3       2       1       1       3
       2       1       1       3       2       1       1       3       2       1
       1       3       2       1       1       3       2       1       1       3
       2       1       1       3       2       1       1       3       2       1
       1       3       2       1       1       3       2       1       1       3
       2       1       1       3       2       1       1       3       2       1
       1       3       2       1       1       3       2       1       1       3
       2       1       1       3       2       1       1       3       2       1
       1       3       2       1       1       3       2       1       1       3
       2       1       1       3       2       1       1       3       2       1
       1       3       2       1       1       3       2       1       1       3
       2       1       1       3       2       1       1       3       2       1
       1       3       2       1       1       3       2       1       1       3
       2       1       1       3       2       1       1       3       2       1
       1       3       2       1       1       3       2       1       1       3
       2       1       1       3       2       1       1       3       2       1
       1       3       2       1       1       3       2       1       1       3
       2       1       1       3       2       1       1       3       2       1
       1       3       2       1       1       3       2       1       1       3
       2       1       1       3       2       1       1       3       2       1
       1       3       2       1       1       3       2       1       1       3
       2       1       1       3       2       1       1       3       2       1
       1       3       2       1       1       3       2       1       1       3
       2       1       1       3       2       1       1       3       2       1
       1       3       2       1       1       3       2       1       1       3
       2       1       1       3       2       1       1       3       2       1
       1       3       2       1       1       3       2       1       1       3
       2       1       1       3       2       1       1       3       2       1
       1       3       2       1       1       3       2       1       1       3
       2       1       1       3       2       1       1       3       2       1
       1       3       2       1       1       3       2       1       1       3
       2       1       1       3       2       1       1       3       2       1
       1       3       2       1       1       3       2       1       1       3
       2       1       1       3       2       1       1       3       2       1
       1       3       2       1       1       3       2       1       1       3
       2       1       1       3       2       1       1       3       2       1
       1       3       2       1       1       3       2       1       1       3
       2       1       1       3       2       1       1       3       2       1
       1       3       2       1       1       3       2       1       1       3
       2       1       1       3       2       1       1       3       2       1
       1       3       2       1       1       3       2       1       1       3
       2       1       1       3       2       1       1       3       2       1
       1       3       2       1       1       3       2       1       1       3
       2       1       1       3       2       1       1       3       2       1
       1       3       2       1       1       3       2       1       1       3
       2       1       1       3       2       1       1       3       2       1
       1       3       2       1       1       3       2       1       1       3
       2       1       1       3       2       1       1       3       2       1
       1       3       2       1       1       3       2       1       1       3
       2       1       1       3       2       1       1       3       2       1
       1       3       2       1       1       3       2       1       1       3
       2       1       1       3       2       1       1       3       2       1
       1       3       2       1       1       3       2       1       1       3
       2       1       1       3       2       1       1       3       2       1
       1       3       2       1       1       3       2       1       1       3
       2       1       1       3       2       1       1       3       2       1
       1       3       2       1       1       3       2       1       1       3
       2       1       1       3       2       1       1       3       2       1
       1       3       2       1       1       3       2       1       1       3
       2       1       1       3       2       1       1       3       2       1
       1       3       2       1       1       3       2       1       1       3
       2       1       1       3       2       1       1       3       2       1
       1       3       2       1       1       3       2       1       1       3
       2       1       1       3       2       1       1       3       2       1
       1       3       2       1       1       3       2       1       1       3
       2       1       1       3       2       1       1       3       2       1
       1       3       2       1       1       3       2       1       1       3
       2       1       1       3       2       1       1       3       2       1
       1       3       2       1       1       3       2       1       1       3
       2       1       1       3       2       1       1       3       2       1
       1       3       2       1       1       3       2       1       1       3
       2       1       1       3       2       1       1       3       2       1
       1       3       2       1       1       3       2       1       1       3
       2       1       1       3       2       1       1       3       2       1
       1       3       2       1       1       3       2       1       1       3
       2       1       1       3       2       1       1       3       2       1
       1       3       2       1       1       3       2       1       1       3
       2       1       1       3       2       1       1       3       2       1
       1       3       2       1       1       3       2       1       1       3
       2       1       1       3       2       1       1       3       2       1
       1       3       2       1       1       3       2       1       1       3
       2       1       1       3       2       1       1       3       2       1
       1       3       2       1       1       3       2       1       1       3
       2       1       1       3       2       1       1       3       2       1
       1       3       2       1       1       3       2       1       1       3
       2       1       1       3       2       1       1       3       2       1
       1       3       2       1       1       3       2       1       1       3
       2       1       1       3       2       1       1       3       2       1
       1       3       2       1       1       3       2       1       1       3
       2       1       1       3       2       1       1       3       2       1
       1       3       2       1       1       3       2       1       1       3
       2       1       1       3       2       1       1       3       2       1
       1       3       2       1       1       3       2       1       1       3
       2       1       1       3       2       1       1       3       2       1
       1       3       2       1       1       3       2       1       1       3
       2       1       1       3       2       1       1       3       2       1
       1       3       2       1       1       3       2       1       1       3
       2       1       1       3       2       1       1       3       2       1
       1       3       2       1       1       3       2       1       1       3
       2       1       1       3       2       1       1       3       2       1
       1       3       2       1       1       3       2       1       1       3
       2       1       1       3       2       1       1       3       2       1
       1       3       2       1       1       3       2       1       1       3
       2       1       1       3       2       1       1       3       2       1
       1       3       2       1       1       3       2       1       1       3
       2       1       1       3       2       1       1       3       2       1
       1       3       2       1       1       3       2       1       1       3
       2       1       1       3       2       1       1       3       2       1
       1       3       2       1       1       3       2       1       1       3
       2       1       1       3       2       1       1       3       2       1
       1       3       2       1       1       3       2       1       1       3
       2       1       1       3       2       1       1       3       2       1
       1       3       2       1       1       3       2       1       1       3
       2       1       1       3       2       1       1       3       2       1
       1       3       2       1       1       3       2       1       1       3
       2       1       1       3       2       1       1       3       2       1
       1       3       2       1       1       3       2       1       1       3
       2       1       1       3       2       1       1       3       2       1
       1       3       2       1       1       3       2       1       1       3
       2       1       1       3       2       1       1       3       2       1
       1       3       2       1       1       3       2       1       1       3
       2       1       1       3       2       1       1       3       2       1
       1       3       2       1       1       3       2       1       1       3
       2       1       1       3       2       1       1       3       2       1
       1       3       2       1       1       3       2       1       1       3
       2       1       1       3       2       1       1       3       2       1
       1       3       2       1       1       3       2       1       1       3
       2       1       1       3       2       1       1       3       2       1
       1       3       2       1       1       3       2       1       1       3
       2       1       1       3       2       1       1       3       2       1
       1       3       2       1       1       3       2       1       1       3
       2       1       1       3       2       1       1       3       2       1
       1       3       2       1       1       3       2       1       1       3
       2       1       1       3       2       1       1       3       2       1
       1       3       2       1       1       3       2       1       1       3
       2       1       1       3       2       1       1       3       2       1
       1       3       2       1       1       3       2       1       1       3
       2       1       1       3       2       1       1       3       2       1
       1       3       2       1       1       3       2       1       1       3
       2       1       1       3       2       1       1       3       2       1
       1       3       2       1       1       3       2       1       1       3
       2       1       1       3       2       1       1       3       2       1
       1       3       2       1       1       3       2       1       1       3
       2       1       1       3       2       1       1       3       2       1
       1       3       2       1       1       3       2       1       1       3
       2       1       1       3       2       1       1       3       2       1
       1       3       2       1       1       3       2       1       1       3
       2       1       1       3       2       1       1       3       2       1
       1       3       2       1       1       3       2       1       1       3
       2       1       1       3       2       1       1       3       2       1
       1       3       2       1       1       3       2       1       1       3
       2       1       1       3       2       1       1       3       2       1
       1       3       2       1       1       3       2       1       1       3
       2       1       1       3       2       1       1       3       2       1
       1       3       2       1       1       3       2       1       1       3
       2       1       1       3       2       1       1       3       2       1
       1       3       2       1       1       3       2       1       1       3
       2       1       1       3       2       1       1       3       2       1
       1       3       2       1       1       3       2       1       1       3
       2       1       1       3       2       1       1       3       2       1
       1       3       2       1       1       3       2       1       1       3
       2       1       1       3       2       1       1       3       2       1
       1       3       2       1       1       3       2       1       1       3
       2       1       1       3       2       1       1       3       2       1
       1       3       2       1       1       3       2       1       1       3
       2       1       1       3       2       1       1       3       2       1
       1       3       2       1       1       3       2       1       1       3
       2       1       1       3       2       1       1       3       2       1
       1       3       2       1       1       3       2       1       1       3
       2       1       1       3       2       1       1       3       2       1
       1       3       2       1       1       3       2       1       1       3
       2       1       1       3       2       1       1       3       2       1
       1       3       2       1       1       3       2       1       1       3
       2       1       1       3       2       1       1       3       2       1
       1       3       2       1       1       3       2       1       1       3
       2       1       1       3       2       1       1       3       2       1
       1       3       2       1       1       3       2       1       1       3
       2       1       1       3       2       1       1       3       2       1
       1       3       2       1       1       3       2       1       1       3
       2       1       1       3       2       1       1       3       2       1
       1       3       2       1       1       3       2       1       1       3
       2       1       1       3       2       1       1       3       2       1
       1       3       2       1       1       3       2       1       1       3
       2       1       1       3       2       1       1       3       2       1
       1       3       2       1       1       3       2       1       1       3
       2       1       1       3       2       1       1       3       2       1
       1       3       2       1       1       3       2       1       1       3
       2       1       1       3       2       1       1       3       2       1
       1       3       2       1       1       3       2       1       1       3
       2       1       1       3       2       1       1       3       2       1
       1       3       2       1       1       3       2       1       1       3
       2       1       1       3       2       1       1       3       2       1
       1       3       2       1       1       3       2       1       1       3
       2       1       1       3       2       1       1       3       2       1
       1       3       2       1       1       3       2       1       1       3
       2       1       1       3       2       1       1       3       2       1
       1       3       2       1       1       3       2       1       1       3
       2       1       1       3       2       1       1       3       2       1
       1       3       2       1       1       3       2       1       1       3
       2       1       1       3       2       1       1       3       2       1
       1       3       2       1       1       3       2       1       1       3
       2       1       1       3       2       1       1       3       2       1
       1       3       2       1       1       3       2       1       1       3
       2       1       1       3       2       1       1       3       2       1
       1       3       2       1       1       3       2       1       1       3
       2       1       1       3       2       1       1       3       2       1
       1       3       2       1       1       3       2       1       1       3
       2       1       1       3       2       1       1       3       2       1
       1       3       2       1       1       3       2       1       1       3
       2       1       1       3       2       1       1       3       2       1
       1       3       2       1       1       3       2       1       1       3
       2       1       1       3       2       1       1       3       2       1
       1       3       2       1       1       3       2       1       1       3
       2       1       1       3       2       1       1       3       2       1
       1       3       2       1       1       3       2       1       1       3
       2       1       1       3       2       1       1       3       2       1
       1       3       2       1       1       3       2       1       1       3
       2       1       1       3       2       1       1       3       2       1
       1       3       2       1       1       3       2       1       1       3
       2       1       1       3       2       1       1       3       2       1
       1       3       2       1       1       3       2       1       1       3
       2       1       1       3       2       1       1       3       2       1
       1       3       2       1       1       3       2       1       1       3
       2       1       1       3       2       1       1       3       2       1
       1       3       2       1       1       3       2       1       1       3
       2       1       1       3       2       1       1       3       2       1
       1       3       2       1       1       3       2       1       1       3
       2       1       1       3       2       1       1       3       2       1
       1       3       2       1       1       3       2       1       1       3
       2       1       1       3       2       1       1       3       2       1
       1       3       2       1       1       3       2       1       1       3
       2       1       1       3       2       1       1       3       2       1
       1       3       2       1       1       3       2       1       1       3
       2       1       1       3       2       1       1       3       2       1
       1       3       2       1       1       3       2       1       1       3
       2       1       1       3       2       1       1       3       2       1
       1       3       2       1       1       3       2       1       1       3
       2       1       1       3       2       1       1       3       2       1
       1       3       2       1       1       3       2       1       1       3
       2       1       1       3       2       1       1       3       2       1
       1       3       2       1       1       3       2       1       1       3
       2       1       1       3       2       1       1       3       2       1
       1       3       2       1       1       3       2       1       1       3
       2       1       1       3       2       1       1       3       2       1
       1       3       2       1       1       3       2       1       1       3
       2       1       1       3       2       1       1       3       2       1
       1       3       2       1       1       3       2       1       1       3
       2       1       1       3       2       1       1       3       2       1
       1       3       2       1       1       3       2       1       1       3
       2       1       1       3       2       1       1       3       2       1
       1       3       2       1       1       3       2       1       1       3
       2       1       1       3       2       1       1       3       2       1
       1       3       2       1       1       3       2       1       1       3
       2       1       1       3       2       1       1       3       2       1
       1       3       2       1       1       3       2       1       1       3
       2       1       1       3       2       1       1       3       2       1
       1       3       2       1       1       3       2       1       1       3
       2       1       1       3       2       1       1       3       2       1
       1       3       2       1       1       3       2       1       1       3
       2       1       1       3       2       1       1       3       2       1
       1       3       2       1       1       3       2       1       1       3
       2       1       1       3       2       1       1       3       2       1
       1       3       2       1       1       3       2       1       1       3
       2       1       1       3       2       1       1       3       2       1
       1       3       2       1       1       3       2       1       1       3
       2       1       1       3       2       1       1       3       2       1
       1       3       2       1       1       3       2       1       1       3
       2       1       1       3       2       1       1       3       2       1
       1       3       2       1       1       3       2       1       1       3
       2       1       1       3       2       1       1       3       2       1
       1       3       2       1       1       3       2       1       1       3
       2       1       1       3       2       1       1       3       2       1
       1       3       2       1       1       3       2       1       1       3
       2       1       1       3       2       1       1       3       2       1
       1       3       2       1       1       3       2       1       1       3
       2       1       1       3       2       1       1       3       2       1
       1       3       2       1       1       3       2       1       1       3
       2       1       1       3       2       1       1       3       2       1
       1       3       2       1       1       3       2       1       1       3
       2       1       1       3       2       1       1       3       2       1
       1       3       2       1       1       3       2       1       1       3
       2       1       1       3       2       1       1       3       2       1
       1       3       2       1       1       3       2       1       1       3
       2       1       1       3       2       1       1       3       2       1
       1       3       2       1       1       3       2       1       1       3
       2       1       1       3       2       1       1       3       2       1
       1       3       2       1       1       3       2       1       1       3
       2       1       1       3       2       1       1       3       2       1
       1       3       2       1       1       3       2       1       1       3
       2       1       1       3       2       1       1       3       2       1
       1       3       2       1       1       3       2       1       1       3
       2       1       1       3       2       1       1       3       2       1
       1       3       2       1       1       3       2       1       1       3
       2       1       1       3       2       1       1       3       2       1
       1       3       2       1       1       3       2       1       1       3
       2       1       1       3       2       1       1       3       2       1
       1       3       2       1       1       3       2       1       1       3
       2       1       1       3       2       1       1       3       2       1
       1       3       2       1       1       3       2       1       1       3
       2       1       1       3       2       1       1       3       2       1
       1       3       2       1       1       3       2       1       1       3
       2       1       1       3       2       1       1       3       2       1
       1       3       2       1       1       3       2       1       1       3
       2       1       1       3       2       1       1       3       2       1
       1       3       2       1       1       3       2       1       1       3
       2       1       1       3       2       1       1       3       2       1
       1       3       2       1       1       3       2       1       1       3
       2       1       1       3       2       1       1       3       2       1
       1       3       2       1       1       3       2       1       1       3
       2       1       1       3       2       1       1       3       2       1
       1       3       2       1       1       3       2       1       1       3
       2       1       1       3       2       1       1       3       2       1
       1       3       2       1       1       3       2       1       1       3
       2       1       1       3       2       1       1       3       2       1
       1       3       2       1       1       3       2       1       1       3
       2       1       1       3       2       1       1       3       2       1
       1       3       2       1       1       3       2       1       1       3
       2       1       1       3       2       1       1       3       2       1
       1       3       2       1       1       3       2       1       1       3
       2       1       1       3       2       1       1       3       2       1
       1       3       2       1       1       3       2       1       1       3
       2       1       1       3       2       1       1       3       2       1
       1       3       2       1       1       3       2       1       1       3
       2       1       1       3       2       1       1       3       2       1
       1       3       2       1       1       3       2       1       1       3
       2       1       1       3       2       1       1       3       2       1
       1       3       2       1       1       3       2       1       1       3
       2       1       1       3       2       1       1       3       2       1
       1       3       2       1       1       3       2       1       1       3
       2       1       1       3       2       1       1       3       2       1
       1       3       2       1       1       3       2       1       1       3
       2       1       1       3       2       1       1       3       2       1
       1       3       2       1       1       3       2       1       1       3
       2       1       1       3       2       1       1       3       2       1
       1       3       2       1       1       3       2       1       1       3
       2       1       1       3       2       1       1       3       2       1
       1       3       2       1       1       3       2       1       1       3
       2       1       1       3       2       1       1       3       2       1
       1       3       2       1       1       3       2       1       1       3
       2       1       1       3       2       1       1       3       2       1
       1       3       2       1       1       3       2       1       1       3
       2       1       1       3       2       1       1       3       2       1
       1       3       2       1       1       3       2       1       1       3
       2       1       1       3       2       1       1       3       2       1
       1       3       2       1       1       3       2       1       1       3
       2       1       1       3       2       1       1       3       2       1
       1       3       2       1       1       3       2       1       1       3
       2       1       1       3       2       1       1       3       2       1
       1       3       2       1       1       3       2       1       1       3
       2       1       1       3       2       1       1       3       2       1
       1       3       2       1       1       3       2       1       1       3
       2       1       1       3       2       1       1       3       2       1
       1       3       2       1       1       3       2       1       1       3
       2       1       1       3       2       1       1       3       2       1
       1       3       2       1       1       3       2       1       1       3
       2       1       1       3       2       1       1       3       2       1
       1       3       2       1       1       3       2       1       1       3
       2       1       1       3       2       1       1       3       2       1
       1       3       2       1       1       3       2       1       1       3
       2       1       1       3       2       1       1       3       2       1
       1       3       2       1       1       3       2       1       1       3
       2       1       1       3       2       1       1       3       2       1
       1       3       2       1       1       3       2       1       1       3
       2       1       1       3       2       1       1       3       2       1
       1       3       2       1       1       3       2       1       1       3
       2       1       1       3       2       1       1       3       2       1
       1       3       2       1       1       3       2       1       1       3
       2       1       1       3       2       1       1       3       2       1
       1       3       2       1       1       3       2       1       1       3
       2       1       1       3       2       1       1       3       2       1
       1       3       2       1       1       3       2       1       1       3
       2       1       1       3       2       1       1       3       2       1
       1       3       2       1       1       3       2       1       1       3
       2       1       1       3       2       1       1       3       2       1
       1       3       2       1       1       3       2       1       1       3
       2       1       1       3       2       1       1       3       2       1
       1       3       2       1       1       3       2       1       1       3
       2       1       1       3       2       1       1       3       2       1
       1       3       2       1       1       3       2       1       1       3
       2       1       1       3       2       1       1       3       2       1
       1       3       2       1       1       3       2       1       1       3
       2       1       1       3       2       1       1       3       2       1
       1       3       2       1       1       3       2       1       1       3
       2       1       1       3       2       1       1       3       2       1
       1       3       2       1       1       3       2       1       1       3
       2       1       1       3       2       1       1       3       2       1
       1       3       2       1       1       3       2       1       1       3
       2       1       1       3       2       1       1       3       2       1
       1       3       2       1       1       3       2       1       1       3
       2       1       1       3       2       1       1       3       2       1
       1       3       2       1       1       3       2       1       1       3
       2       1       1       3       2       1       1       3       2       1
       1       3       2       1       1       3       2       1       1       3
       2       1       1       3       2       1       1       3       2       1
       1       3       2       1       1       3       2       1       1       3
       2       1       1       3       2       1       1       3       2       1
       1       3       2       1       1       3       2       1       1       3
       2       1       1       3       2       1       1       3       2       1
       1       3       2       1       1       3       2       1       1       3
       2       1       1       3       2       1       1       3       2       1
       1       3       2       1       1       3       2       1       1       3
       2       1       1       3       2       1       1       3       2       1
       1       3       2       1       1       3       2       1       1       3
       2       1       1       3       2       1       1       3       2       1
       1       3       2       1       1       3       2       1       1       3
       2       1       1       3       2       1       1       3       2       1
       1       3       2       1       1       3       2       1       1       3
       2       1       1       3       2       1       1       3       2       1
       1       3       2       1       1       3       2       1       1       3
       2       1       1       3       2       1       1       3       2       1
       1       3       2       1       1       3       2       1       1       3
       2       1       1       3       2       1       1       3       2       1
       1       3       2       1       1       3       2       1       1       3
       2       1       1       3       2       1       1       3       2       1
       1       3       2       1       1       3       2       1       1       3
       2       1       1       3       2       1       1       3       2       1
       1       3       2       1       1       3       2       1       1       3
       2       1       1       3       2       1       1       3       2       1
       1       3       2       1       1       3       2       1       1       3
       2       1       1       3       2       1       1       3       2       1
       1       3       2       1       1       3       2       1       1       3
       2       1       1       3       2       1       1       3       2       1
       1       3       2       1       1       3       2       1       1       3
       2       1       1       3       2       1       1       3       2       1
       1       3       2       1       1       3       2       1       1       3
       2       1       1       3       2       1       1       3       2       1
       1       3       2       1       1       3       2       1       1       3
       2       1       1       3       2       1       1       3       2       1
       1       3       2       1       1       3       2       1       1       3
       2       1       1       3       2       1       1       3       2       1
       1       3       2       1       1       3       2       1       1       3
       2       1       1       3       2       1       1       3       2       1
       1       3       2       1       1       3       2       1       1       3
       2       1       1       3       2       1       1       3       2       1
       1       3       2       1       1       3       2       1       1       3
       2       1       1       3       2       1       1       3       2       1
       1       3       2       1       1       3       2       1       1       3
       2       1       1       3       2       1       1       3       2       1
       1       3       2       1       1       3       2       1       1       3
       2       1       1       3       2       1       1       3       2       1
       1       3       2       1       1       3       2       1       1       3
       2       1       1       3       2       1       1       3       2       1
       1       3       2       1       1       3       2       1       1       3
       2       1       1       3       2       1       1       3       2       1
       1       3       2       1       1       3       2       1       1       3
       2       1       1       3       2       1       1       3       2       1
       1       3       2       1       1       3       2       1       1       3
       2       1       1       3       2       1       1       3       2       1
       1       3       2       1       1       3       2       1       1       3
       2       1       1       3       2       1       1       3       2       1
       1       3       2       1       1       3       2       1       1       3
       2       1       1       3       2       1       1       3       2       1
       1       3       2       1       1       3       2       1       1       3
       2       1       1       3       2       1       1       3       2       1
       1       3       2       1       1       3       2       1       1       3
       2       1       1       3       2       1       1       3       2       1
       1       3       2       1       1       3       2       1       1       3
       2       1       1       3       2       1       1       3       2       1
       1       3       2       1       1       3       2       1       1       3
       2       1       1       3       2       1       1       3       2       1
       1       3       2       1       1       3       2       1       1       3
       2       1       1       3       2       1       1       3       2       1
       1       3       2       1       1       3       2       1       1       3
       2       1       1       3       2       1       1       3       2       1
       1       3       2       1       1       3       2       1       1       3
       2       1       1       3       2       1       1       3       2       1
       1       3       2       1       1       3       2       1       1       3
       2       1       1       3       2       1       1       3       2       1
       1       3       2       1       1       3       2       1       1       3
       2       1       1       3       2       1       1       3       2       1
       1       3       2       1       1       3       2       1       1       3
       2       1       1       3       2       1       1       3       2       1
       1       3       2       1       1       3       2       1       1       3
       2       1       1       3       2       1       1       3       2       1
       1       3       2       1       1       3       2       1       1       3
       2       1       1       3       2       1       1       3       2       1
       1       3       2       1       1       3       2       1       1       3
       2       1       1       3       2       1       1       3       2       1
       1       3       2       1       1       3       2       1       1       3
       2       1       1       3       2       1       1       3       2       1
       1       3       2       1       1       3       2       1       1       3
       2       1       1       3       2       1       1       3       2       1
       1       3       2       1       1       3       2       1       1       3
       2       1       1       3       2       1       1       3       2       1
       1       3       2       1       1       3       2       1       1       3
       2       1       1       3       2       1       1       3       2       1
       1       3       2       1       1       3       2       1       1       3
       2       1       1       3       2       1       1       3       2       1
       1       3       2       1       1       3       2       1       1       3
       2       1       1       3       2       1       1       3       2       1
       1       3       2       1       1       3       2       1       1       3
       2       1       1       3       2       1       1       3       2       1
       1       3       2       1       1       3       2       1       1       3
       2       1       1       3       2       1       1       3       2       1
       1       3       2       1       1       3       2       1       1       3
       2       1       1       3       2       1       1       3       2       1
       1       3       2       1       1       3       2       1       1       3
       2       1       1       3       2       1       1       3       2       1
       1       3       2       1       1       3       2       1       1       3
       2       1       1       3       2       1       1       3       2       1
       1       3       2       1       1       3       2       1       1       3
       2       1       1       3       2       1       1       3       2       1
       1       3       2       1       1       3       2       1       1       3
       2       1       1       3       2       1       1       3       2       1
       1       3       2       1       1       3       2       1       1       3
       2       1       1       3       2       1       1       3       2       1
       1       3       2       1       1       3       2       1       1       3
       2       1       1       3       2       1       1       3       2       1
       1       3       2       1       1       3       2       1       1       3
       2       1       1       3       2       1       1       3       2       1
       1       3       2       1       1       3       2       1       1       3
       2       1       1       3       2       1       1       3       2       1
       1       3       2       1       1       3       2       1       1       3
       2       1       1       3       2       1       1       3       2       1
       1       3       2       1       1       3       2       1       1       3
       2       1       1       3       2       1       1       3       2       1
       1       3       2       1       1       3       2       1       1       3
       2       1       1       3       2       1       1       3       2       1
       1       3       2       1       1       3       2       1       1       3
       2       1       1       3       2       1       1       3       2       1
       1       3       2       1       1       3       2       1       1       3
       2       1       1       3       2       1       1       3       2       1
       1       3       2       1       1       3       2       1       1       3
       2       1       1       3       2       1       1       3       2       1
       1       3       2       1       1       3       2       1       1       3
       2       1       1       3       2       1       1       3       2       1
       1       3       2       1       1       3       2       1       1       3
       2       1       1       3       2       1       1       3       2       1
       1       3       2       1       1       3       2       1       1       3
       2       1       1       3       2       1       1       3       2       1
       1       3       2       1       1       3       2       1       1       3
       2       1       1       3       2       1       1       3       2       1
       1       3       2       1       1       3       2       1       1       3
       2       1       1       3       2       1       1       3       2       1
       1       3       2       1       1       3       2       1       1       3
       2       1       1       3       2       1       1       3       2       1
       1       3       2       1       1       3       2       1       1       3
       2       1       1       3       2       1       1       3       2       1
       1       3       2       1       1       3       2       1       1       3
       2       1       1       3       2       1       1       3       2       1
       1       3       2       1       1       3       2       1       1       3
       2       1       1       3       2       1       1       3       2       1
       1       3       2       1       1       3       2       1       1       3
       2       1       1       3       2       1       1       3       2       1
       1       3       2       1       1       3       2       1       1       3
       2       1       1       3       2       1       1       3       2       1
       1       3       2       1       1       3       2       1       1       3
       2       1       1       3       2       1       1       3       2       1
       1       3       2       1       1       3       2       1       1       3
       2       1       1       3       2       1       1       3       2       1
       1       3       2       1       1       3       2       1       1       3
       2       1       1       3       2       1       1       3       2       1
       1       3       2       1       1       3       2       1       1       3
       2       1       1       3       2       1       1       3       2       1
       1       3       2       1       1       3       2       1       1       3
       2       1       1       3       2       1       1       3       2       1
       1       3       2       1       1       3       2       1       1       3
       2       1       1       3       2       1       1       3       2       1
       1       3       2       1       1       3       2       1       1       3
       2       1       1       3       2       1       1       3       2       1
       1       3       2       1       1       3       2       1       1       3
       2       1       1       3       2       1       1       3       2       1
       1       3       2       1       1       3       2       1       1       3
       2       1       1       3       2       1       1       3       2       1
       1       3       2       1       1       3       2       1       1       3
       2       1       1       3       2       1       1       3       2       1
       1       3       2       1       1       3       2       1       1       3
       2       1       1       3       2       1       1       3       2       1
       1       3       2       1       1       3       2       1       1       3
       2       1       1       3       2       1       1       3       2       1
       1       3       2       1       1       3       2       1       1       3
       2       1       1       3       2       1       1       3       2       1
       1       3       2       1       1       3       2       1       1       3
       2       1       1       3       2       1       1       3       2       1
       1       3       2       1       1       3       2       1       1       3
       2       1       1       3       2       1       1       3       2       1
       1       3       2       1       1       3       2       1       1       3
       2       1       1       3       2       1       1       3       2       1
       1       3       2       1       1       3       2       1       1       3
       2       1       1       3       2       1       1       3       2       1
       1       3       2       1       1       3       2       1       1       3
       2       1       1       3       2       1       1       3       2       1
       1       3       2       1       1       3       2       1       1       3
       2       1       1       3       2       1       1       3       2       1
       1       3       2       1       1       3       2       1       1       3
       2       1       1       3       2       1       1       3       2       1
       1       3       2       1       1       3       2       1       1       3
       2       1       1       3       2       1       1       3       2       1
       1       3       2       1       1       3       2       1       1       3
       2       1       1       3       2       1       1       3       2       1
       1       3       2       1       1       3       2       1       1       3
       2       1       1       3       2       1       1       3       2       1
       1       3       2       1       1       3       2       1       1       3
       2       1       1       3       2       1       1       3       2       1
       1       3       2       1       1       3       2       1       1       3
       2       1       1       3       2       1       1       3       2       1
       1       3       2       1       1       3       2       1       1       3
       2       1       1       3       2       1       1       3       2       1
       1       3       2       1       1       3       2       1       1       3
       2       1       1       3       2       1       1       3       2       1
       1       3       2       1       1       3       2       1       1       3
       2       1       1       3       2       1       1       3       2       1
       1       3       2       1       1       3       2       1       1       3
       2       1       1       3       2       1       1       3       2       1
       1       3       2       1       1       3       2       1       1       3
       2       1       1       3       2       1       1       3       2       1
       1       3       2       1       1       3       2       1       1       3
       2       1       1       3       2       1       1       3       2       1
       1       3       2       1       1       3       2       1       1       3
       2       1       1       3       2       1       1       3       2       1
       1       3       2       1       1       3       2       1       1       3
       2       1       1       3       2       1       1       3       2       1
       1       3       2       1       1       3       2       1       1       3
       2       1       1       3       2       1       1       3       2       1
       1       3       2       1       1       3       2       1       1       3
       2       1       1       3       2       1       1       3       2       1
       1       3       2       1       1       3       2       1       1       3
       2       1       1       3       2       1       1       3       2       1
       1       3       2       1       1       3       2       1       1       3
       2       1       1       3       2       1       1       3       2       1
       1       3       2       1       1       3       2       1       1       3
       2       1       1       3       2       1       1       3       2       1
       1       3       2       1       1       3       2       1       1       3
       2       1       1       3       2       1       1       3       2       1
       1       3       2       1       1       3       2       1       1       3
       2       1       1       3       2       1       1       3       2       1
       1       3       2       1       1       3       2       1       1       3
       2       1       1       3       2       1       1       3       2       1
       1       3       2       1       1       3       2       1       1       3
       2       1       1       3       2       1       1       3       2       1
       1       3       2       1       1       3       2       1       1       3
       2       1       1       3       2       1       1       3       2       1
       1       3       2       1       1       3       2       1       1       3
       2       1       1       3       2       1       1       3       2       1
       1       3       2       1       1       3       2       1       1       3
       2       1       1       3       2       1       1       3       2       1
       1       3       2       1       1       3       2       1       1       3
       2       1       1       3       2       1       1       3       2       1
       1       3       2       1       1       3       2       1       1       3
       2       1       1       3       2       1       1       3       2       1
       1       3       2       1       1       3       2       1       1       3
       2       1       1       3       2       1       1       3       2       1
       1       3       2       1       1       3       2       1       1       3
       2       1       1       3       2       1       1       3       2       1
       1       3       2       1       1       3       2       1       1       3
       2       1       1       3       2       1       1       3       2       1
       1       3       2       1       1       3       2       1       1       3
       2       1       1       3       2       1       1       3       2       1
       1       3       2       1       1       3       2       1       1       3
       2       1       1       3       2       1       1       3       2       1
       1       3       2       1       1       3       2       1       1       3
       2       1       1       3       2       1       1       3       2       1
       1       3       2       1       1       3       2       1       1       3
       2       1       1       3       2       1       1       3       2       1
       1       3       2       1       1       3       2       1       1       3
       2       1       1       3       2       1       1       3       2       1
       1       3       2       1       1       3       2       1       1       3
       2       1       1       3       2       1       1       3       2       1
       1       3       2       1       1       3       2       1       1       3
       2       1       1       3       2       1       1       3       2       1
       1       3       2       1       1       3       2       1       1       3
       2       1       1       3       2       1       1       3       2       1
       1       3       2       1       1       3       2       1       1       3
       2       1       1       3       2       1       1       3       2       1
       1       3       2       1       1       3       2       1       1       3
       2       1       1       3       2       1       1       3       2       1
       1       3       2       1       1       3       2       1       1       3
       2       1       1       3       2       1       1       3       2       1
       1       3       2       1       1       3       2       1       1       3
       2       1       1       3       2       1       1       3       2       1
       1       3       2       1       1       3       2       1       1       3
       2       1       1       3       2       1       1       3       2       1
       1       3       2       1       1       3       2       1       1       3
       2       1       1       3       2       1       1       3       2       1
       1       3       2       1       1       3       2       1       1       3
       2       1       1       3       2       1       1       3       2       1
       1       3       2       1       1       3       2       1       1       3
       2       1       1       3       2       1       1       3       2       1
       1       3       2       1       1       3       2       1       1       3
       2       1       1       3       2       1       1       3       2       1
       1       3       2       1       1       3       2       1       1       3
       2       1       1       3       2       1       1       3       2       1
       1       3       2       1       1       3       2       1       1       3
       2       1       1       3       2       1       1       3       2       1
       1       3       2       1       1       3       2       1       1       3
       2       1       1       3       2       1       1       3       2       1
       1       3       2       1       1       3       2       1       1       3
       2       1       1       3       2       1       1       3       2       1
       1       3       2       1       1       3       2       1       1       3
       2       1       1       3       2       1       1       3       2       1
       1       3       2       1       1       3       2       1       1       3
       2       1       1       3       2       1       1       3       2       1
       1       3       2       1       1       3       2       1       1       3
       2       1       1       3       2       1       1       3       2       1
       1       3       2       1       1       3       2       1       1       3
       2       1       1       3       2       1       1       3       2       1
       1       3       2       1       1       3       2       1       1       3
       2       1       1       3       2       1       1       3       2       1
       1       3       2       1       1       3       2       1       1       3
       2       1       1       3       2       1       1       3       2       1
       1       3       2       1       1       3       2       1       1       3
       2       1       1       3       2       1       1       3       2       1
       1       3       2       1       1       3       2       1       1       3
       2       1       1       3       2       1       1       3       2       1
       1       3       2       1       1       3       2       1       1       3
       2       1       1       3       2       1       1       3       2       1
       1       3       2       1       1       3       2       1       1       3
       2       1       1       3       2       1       1       3       2       1
       1       3       2       1       1       3       2       1       1       3
       2       1       1       3       2       1       1       3       2       1
       1       3       2       1       1       3       2       1       1       3
       2       1       1       3       2       1       1       3       2       1
       1       3       2       1       1       3       2       1       1       3
       2       1       1       3       2       1       1       3       2       1
       1       3       2       1       1       3       2       1       1       3
       2       1       1       3       2       1       1       3       2       1
       1       3       2       1       1       3       2       1       1       3
       2       1       1       3       2       1       1       3       2       1
       1       3       2       1       1       3       2       1       1       3
       2       1       1       3       2       1       1       3       2       1
       1       3       2       1       1       3       2       1       1       3
       2       1       1       3       2       1       1       3       2       1
       1       3       2       1       1       3       2       1       1       3
       2       1       1       3       2       1       1       3       2       1
       1       3       2       1       1       3       2       1       1       3
       2       1       1       3       2       1       1       3       2       1
       1       3       2       1       1       3       2       1       1       3
       2       1       1       3       2       1       1       3       2       1
       1       3       2       1       1       3       2       1       1       3
       2       1       1       3       2       1       1       3       2       1
       1       3       2       1       1       3       2       1       1       3
       2       1       1       3       2       1       1       3       2       1
       1       3       2       1       1       3       2       1       1       3
       2       1       1       3       2       1       1       3       2       1
       1       3       2       1       1       3       2       1       1       3
       2       1       1       3       2       1       1       3       2       1
       1       3       2       1       1       3       2       1       1       3
       2       1       1       3       2       1       1       3       2       1
       1       3       2       1       1       3       2       1       1       3
       2       1       1       3       2       1       1       3       2       1
       1       3       2       1       1       3       2       1       1       3
       2       1       1       3       2       1       1       3       2       1
       1       3       2       1       1       3       2       1       1       3
       2       1       1       3       2       1       1       3       2       1
       1       3       2       1       1       3       2       1       1       3
       2       1       1       3       2       1       1       3       2       1
       1       3       2       1       1       3       2       1       1       3
       2       1       1       3       2       1       1       3       2       1
       1       3       2       1       1       3       2       1       1       3
       2       1       1       3       2       1       1       3       2       1
       1       3       2       1       1       3       2       1       1       3
       2       1       1       3       2       1       1       3       2       1
       1       3       2       1       1       3       2       1       1       3
       2       1       1       3       2       1       1       3       2       1
       1       3       2       1       1       3       2       1       1       3
       2       1       1       3       2       1       1       3       2       1
       1       3       2       1       1       3       2       1       1       3
       2       1       1       3       2       1       1       3       2       1
       1       3       2       1       1       3       2       1       1       3
       2       1       1       3       2       1       1       3       2       1
       1       3       2       1       1       3       2       1       1       3
       2       1       1       3       2       1       1       3       2       1
       1       3       2       1       1       3       2       1       1       3
       2       1       1       3       2       1       1       3       2       1
       1       3       2       1       1       3       2       1       1       3
       2       1       1       3       2       1       1       3       2       1
       1       3       2       1       1       3       2       1       1       3
       2       1       1       3       2       1       1       3       2       1
       1       3       2       1       1       3       2       1       1       3
       2       1       1       3       2       1       1       3       2       1
       1       3       2       1       1       3       2       1       1       3
       2       1       1       3       2       1       1       3       2       1
       1       3       2       1       1       3       2       1       1       3
       2       1       1       3       2       1       1       3       2       1
       1       3       2       1       1       3       2       1       1       3
       2       1       1       3       2       1       1       3       2       1
       1       3       2       1       1       3       2       1       1       3
       2       1       1       3       2       1       1       3       2       1
       1       3       2       1       1       3       2       1       1       3
       2       1       1       3       2       1       1       3       2       1
       1       3       2       1       1       3       2       1       1       3
       2       1       1       3       2       1       1       3       2       1
       1       3       2       1       1       3       2       1       1       3
       2       1       1       3       2       1       1       3       2       1
       1       3       2       1       1       3       2       1       1       3
       2       1       1       3       2       1       1       3       2       1
       1       3       2       1       1       3       2       1       1       3
       2       1       1       3       2       1       1       3       2       1
       1       3       2       1       1       3       2       1       1       3
       2       1       1       3       2       1       1       3       2       1
       1       3       2       1       1       3       2       1       1       3
       2       1       1       3       2       1       1       3       2       1
       1       3       2       1       1       3       2       1       1       3
       2       1       1       3       2       1       1       3       2       1
       1       3       2       1       1       3       2       1       1       3
       2       1       1       3       2       1       1       3       2       1
       1       3       2       1       1       3       2       1       1       3
       2       1       1       3       2       1       1       3       2       1
       1       3       2       1       1       3       2       1       1       3
       2       1       1       3       2       1       1       3       2       1
       1       3       2       1       1       3       2       1       1       3
       2       1       1       3       2       1       1       3       2       1
       1       3       2       1       1       3       2       1       1       3
       2       1       1       3       2       1       1       3       2       1
       1       3       2       1       1       3       2       1       1       3
       2       1       1       3       2       1       1       3       2       1
       1       3       2       1       1       3       2       1       1       3
       2       1       1       3       2       1       1       3       2       1
       1       3       2       1       1       3       2       1       1       3
       2       1       1       3       2       1       1       3       2       1
       1       3       2       1       1       3       2       1       1       3
       2       1       1       3       2       1       1       3       2       1
       1       3       2       1       1       3       2       1       1       3
       2       1       1       3       2       1       1       3       2       1
       1       3       2       1       1       3       2       1       1       3
       2       1       1       3       2       1       1       3       2       1
       1       3       2       1       1       3       2       1       1       3
       2       1       1       3       2       1       1       3       2       1
       1       3       2       1       1       3       2       1       1       3
       2       1       1       3       2       1       1       3       2       1
       1       3       2       1       1       3       2       1       1       3
       2       1       1       3       2       1       1       3       2       1
       1       3       2       1       1       3       2       1       1       3
       2       1       1       3       2       1       1       3       2       1
       1       3       2       1       1       3       2       1       1       3
       2       1       1       3       2       1       1       3       2       1
       1       3       2       1       1       3       2       1       1       3
       2       1       1       3       2       1       1       3       2       1
       1       3       2       1       1       3       2       1       1       3
       2       1       1       3       2       1       1       3       2       1
       1       3       2       1       1       3       2       1       1       3
       2       1       1       3       2       1       1       3       2       1
       1       3       2       1       1       3       2       1       1       3
       2       1       1       3       2       1       1       3       2       1
       1       3       2       1       1       3       2       1       1       3
       2       1       1       3       2       1       1       3       2       1
       1       3       2       1       1       3       2       1       1       3
       2       1       1       3       2       1       1       3       2       1
       1       3       2       1       1       3       2       1       1       3
       2       1       1       3       2       1       1       3       2       1
       1       3       2       1       1       3       2       1       1       3
       2       1       1       3       2       1       1       3       2       1
       1       3       2       1       1       3       2       1       1       3
       2       1       1       3       2       1       1       3       2       1
       1       3       2       1       1       3       2       1       1       3
       2       1       1       3       2       1       1       3       2       1
       1       3       2       1       1       3       2       1       1       3
       2       1       1       3       2       1       1       3       2       1
       1       3       2       1       1       3       2       1       1       3
       2       1       1       3       2       1       1       3       2       1
       1       3       2       1       1       3       2       1       1       3
       2       1       1       3       2       1       1       3       2       1
       1       3       2       1       1       3       2       1       1       3
       2       1       1       3       2       1       1       3       2       1
       1       3       2       1       1       3       2       1       1       3
       2       1       1       3       2       1       1       3       2       1
       1       3       2       1       1       3       2       1       1       3
       2       1       1       3       2       1       1       3       2       1
       1       3       2       1       1       3       2       1       1       3
       2       1       1       3       2       1       1       3       2       1
       1       3       2       1       1       3       2       1       1       3
       2       1       1       3       2       1       1       3       2       1
       1       3       2       1       1       3       2       1       1       3
       2       1       1       3       2       1       1       3       2       1
       1       3       2       1       1       3       2       1       1       3
       2       1       1       3       2       1       1       3       2       1
       1       3       2       1       1       3       2       1       1       3
       2       1       1       3       2       1       1       3       2       1
       1       3       2       1       1       3       2       1       1       3
       2       1       1       3       2       1       1       3       2       1
       1       3       2       1       1       3       2       1       1       3
       2       1       1       3       2       1       1       3       2       1
       1       3       2       1       1       3       2       1       1       3
       2       1       1       3       2       1       1       3       2       1
       1       3       2       1       1       3       2       1       1       3
       2       1       1       3       2       1       1       3       2       1
       1       3       2       1       1       3       2       1       1       3
       2       1       1       3       2       1       1       3       2       1
       1       3       2       1       1       3       2       1       1       3
       2       1       1       3       2       1       1       3       2       1
       1       3       2       1       1       3       2       1       1       3
       2       1       1       3       2       1       1       3       2       1
       1       3       2       1       1       3       2       1       1       3
       2       1       1       3       2       1       1       3       2       1
       1       3       2       1       1       3       2       1       1       3
       2       1       1       3       2       1       1       3       2       1
       1       3       2       1       1       3       2       1       1       3
       2       1       1       3       2       1       1       3       2       1
       1       3       2       1       1       3       2       1       1       3
       2       1       1       3       2       1       1       3       2       1
       1       3       2       1       1       3       2       1       1       3
       2       1       1       3       2       1       1       3       2       1
       1       3       2       1       1       3       2       1       1       3
       2       1       1       3       2       1       1       3       2       1
       1       3       2       1       1       3       2       1       1       3
       2       1       1       3       2       1       1       3       2       1
       1       3       2       1       1       3       2       1       1       3
       2       1       1       3       2       1       1       3       2       1
       1       3       2       1       1       3       2       1       1       3
       2       1       1       3       2       1       1       3       2       1
       1       3       2       1       1       3       2       1       1       3
       2       1       1       3       2       1       1       3       2       1
       1       3       2       1       1       3       2       1       1       3
       2       1       1       3       2       1       1       3       2       1
       1       3       2       1       1       3       2       1       1       3
       2       1       1       3       2       1       1       3       2       1
       1       3       2       1       1       3       2       1       1       3
       2       1       1       3       2       1       1       3       2       1
       1       3       2       1       1       3       2       1       1       3
       2       1       1       3       2       1       1       3       2       1
       1       3       2       1       1       3       2       1       1       3
       2       1       1       3       2       1       1       3       2       1
       1       3       2       1       1       3       2       1       1       3
       2       1       1       3       2       1       1       3       2       1
       1       3       2       1       1       3       2       1       1       3
       2       1       1       3       2       1       1       3       2       1
       1       3       2       1       1       3       2       1       1       3
       2       1       1       3       2       1       1       3       2       1
       1       3       2       1       1       3       2       1       1       3
       2       1       1       3       2       1       1       3       2       1
       1       3       2       1       1       3       2       1       1       3
       2       1       1       3       2       1       1       3       2       1
       1       3       2       1       1       3       2       1       1       3
       2       1       1       3       2       1       1       3       2       1
       1       3       2       1       1       3       2       1       1       3
       2       1       1       3       2       1       1       3       2       1
       1       3       2       1       1       3       2       1       1       3
       2       1       1       3       2       1       1       3       2       1
       1       3       2       1       1       3       2       1       1       3
       2       1       1       3       2       1       1       3       2       1
       1       3       2       1       1       3       2       1       1       3
       2       1       1       3       2       1       1       3       2       1
       1       3       2       1       1       3       2       1       1       3
       2       1       1       3       2       1       1       3       2       1
       1       3       2       1       1       3       2       1       1       3
       2       1       1       3       2       1       1       3       2       1
       1       3       2       1       1       3       2       1       1       3
       2       1       1       3       2       1       1       3       2       1
       1       3       2       1       1       3       2       1       1       3
       2       1       1       3       2       1       1       3       2       1
       1       3       2       1       1       3       2       1       1       3
       2       1       1       3       2       1       1       3       2       1
       1       3       2       1       1       3       2       1       1       3
       2       1       1       3       2       1       1       3       2       1
       1       3       2       1       1       3       2       1       1       3
       2       1       1       3       2       1       1       3       2       1
       1       3       2       1       1       3       2       1       1       3
       2       1       1       3       2       1       1       3       2       1
       1       3       2       1       1       3       2       1       1       3
       2       1       1       3       2       1       1       3       2       1
       1       3       2       1       1       3       2       1       1       3
       2       1       1       3       2       1       1       3       2       1
       1       3       2       1       1       3       2       1       1       3
       2       1       1       3       2       1       1       3       2       1
       1       3       2       1       1       3       2       1       1       3
       2       1       1       3       2       1       1       3       2       1
       1       3       2       1       1       3       2       1       1       3
       2       1       1       3       2       1       1       3       2       1
       1       3       2       1       1       3       2       1       1       3
       2       1       1       3       2       1       1       3       2       1
       1       3       2       1       1       3       2       1       1       3
       2       1       1       3       2       1       1       3       2       1
       1       3       2       1       1       3       2       1       1       3
       2       1       1       3       2       1       1       3       2       1
       1       3       2       1       1       3       2       1       1       3
       2       1       1       3       2       1       1       3       2       1
       1       3       2       1       1       3       2       1       1       3
       2       1       1       3       2       1       1       3       2       1
       1       3       2       1       1       3       2       1       1       3
       2       1       1       3       2       1       1       3       2       1
       1       3       2       1       1       3       2       1       1       3
       2       1       1       3       2       1       1       3       2       1
       1       3       2       1       1       3       2       1       1       3
       2       1       1       3       2       1       1       3       2       1
       1       3       2       1       1       3       2       1       1       3
       2       1       1       3       2       1       1       3       2       1
       1       3       2       1       1       3       2       1       1       3
       2       1       1       3       2       1       1       3       2       1
       1       3       2       1       1       3       2       1       1       3
       2       1       1       3       2       1       1       3       2       1
       1       3       2       1       1       3       2       1       1       3
       2       1       1       3       2       1       1       3       2       1
       1       3       2       1       1       3       2       1       1       3
       2       1       1       3       2       1       1       3       2       1
       1       3       2       1       1       3       2       1       1       3
       2       1       1       3       2       1       1       3       2       1
       1       3       2       1       1       3       2       1       1       3
       2       1       1       3       2       1       1       3       2       1
       1       3       2       1       1       3       2       1       1       3
       2       1       1       3       2       1       1       3       2       1
       1       3       2       1       1       3       2       1       1       3
       2       1       1       3       2       1       1       3       2       1
       1       3       2       1       1       3       2       1       1       3
       2       1       1       3       2       1       1       3       2       1
       1       3       2       1       1       3       2       1       1       3
       2       1       1       3       2       1       1       3       2       1
       1       3       2       1       1       3       2       1       1       3
       2       1       1       3       2       1       1       3       2       1
       1       3       2       1       1       3       2       1       1       3
       2       1       1       3       2       1       1       3       2       1
       1       3       2       1       1       3       2       1       1       3
       2       1       1       3       2       1       1       3       2       1
       1       3       2       1       1       3       2       1       1       3
       2       1       1       3       2       1       1       3       2       1
       1       3       2       1       1       3       2       1       1       3
       2       1       1       3       2       1       1       3       2       1
       1       3       2       1       1       3       2       1       1       3
       2       1       1       3       2       1       1       3       2       1
       1       3       2       1       1       3       2       1       1       3
       2       1       1       3       2       1       1       3       2       1
       1       3       2       1       1       3       2       1       1       3
       2       1       1       3       2       1       1       3       2       1
       1       3       2       1       1       3       2       1       1       3
       2       1       1       3       2       1       1       3       2       1
       1       3       2       1       1       3       2       1       1       3
       2       1       1       3       2       1       1       3       2       1
       1       3       2       1       1       3       2       1       1       3
       2       1       1       3       2       1       1       3       2       1
       1       3       2       1       1       3       2       1       1       3
       2       1       1       3       2       1       1       3       2       1
       1       3       2       1       1       3       2       1       1       3
       2       1       1       3       2       1       1       3       2       1
       1       3       2       1       1       3       2       1       1       3
       2       1       1       3       2       1       1       3       2       1
       1       3       2       1       1       3       2       1       1       3
       2       1       1       3       2       1       1       3       2       1
       1       3       2       1       1       3       2       1       1       3
       2       1       1       3       2       1       1       3       2       1
       1       3       2       1       1       3       2       1       1       3
       2       1       1       3       2       1       1       3       2       1
       1       3       2       1       1       3       2       1       1       3
       2       1       1       3       2       1       1       3       2       1
       1       3       2       1       1       3       2       1       1       3
       2       1       1       3       2       1       1       3       2       1
       1       3       2       1       1       3       2       1       1       3
       2       1       1       3       2       1       1       3       2       1
       1       3       2       1       1       3       2       1       1       3
       2       1       1       3       2       1       1       3       2       1
       1       3       2       1       1       3       2       1       1       3
       2       1       1       3       2       1       1       3       2       1
       1       3       2       1       1       3       2       1       1       3
       2       1       1       3       2       1       1       3       2       1
       1       3       2       1       1       3       2       1       1       3
       2       1       1       3       2       1       1       3       2       1
       1       3       2       1       1       3       2       1       1       3
       2       1       1       3       2       1       1       3       2       1
       1       3       2       1       1       3       2       1       1       3
       2       1       1       3       2       1       1       3       2       1
       1       3       2       1       1       3       2       1       1       3
       2       1       1       3       2       1       1       3       2       1
       1       3       2       1       1       3       2       1       1       3
       2       1       1       3       2       1       1       3       2       1
       1       3       2       1       1       3       2       1       1       3
       2       1       1       3       2       1       1       3       2       1
       1       3       2       1       1       3       2       1       1       3
       2       1       1       3       2       1       1       3       2       1
       1       3       2       1       1       3       2       1       1       3
       2       1       1       3       2       1       1       3       2       1
       1       3       2       1       1       3       2       1       1       3
       2       1       1       3       2       1       1       3       2       1
       1       3       2       1       1       3       2       1       1       3
       2       1       1       3       2       1       1       3       2       1
       1       3       2       1       1       3       2       1       1       3
       2       1       1       3       2       1       1       3       2       1
       1       3       2       1       1       3       2       1       1       3
       2       1       1       3       2       1       1       3       2       1
       1       3       2       1       1       3       2       1       1       3
       2       1       1       3       2       1       1       3       2       1
       1       3       2       1       1       3       2       1       1       3
       2       1       1       3       2       1       1       3       2       1
       1       3       2       1       1       3       2       1       1       3
       2       1       1       3       2       1       1       3       2       1
       1       3       2       1       1       3       2       1       1       3
       2       1       1       3       2       1       1       3       2       1
       1       3       2       1       1       3       2       1       1       3
       2       1       1       3       2       1       1       3       2       1
       1       3       2       1       1       3       2       1       1       3
       2       1       1       3       2       1       1       3       2       1
       1       3       2       1       1       3       2       1       1       3
       2       1       1       3       2       1       1       3       2       1
       1       3       2       1       1       3       2       1       1       3
       2       1       1       3       2       1       1       3       2       1
       1       3       2       1       1       3       2       1       1       3
       2       1       1       3       2       1       1       3       2       1
       1       3       2       1       1       3       2       1       1       3
       2       1       1       3       2       1       1       3       2       1
       1       3       2       1       1       3       2       1       1       3
       2       1       1       3       2       1       1       3       2       1
       1       3       2       1       1       3       2       1       1       3
       2       1       1       3       2       1       1       3       2       1
       1       3       2       1       1       3       2       1       1       3
       2       1       1       3       2       1       1       3       2       1
       1       3       2       1       1       3       2       1       1       3
       2       1       1       3       2       1       1       3       2       1
       1       3       2       1       1       3       2       1       1       3
       2       1       1       3       2       1       1       3       2       1
       1       3       2       1       1       3       2       1       1       3
       2       1       1       3       2       1       1       3       2       1
       1       3       2       1       1       3       2       1       1       3
       2       1       1       3       2       1       1       3       2       1
       1       3       2       1       1       3       2       1       1       3
       2       1       1       3       2       1       1       3       2       1
       1       3       2       1       1       3       2       1       1       3
       2       1       1       3       2       1       1       3       2       1
       1       3       2       1       1       3       2       1       1       3
       2       1       1       3       2       1       1       3       2       1
       1       3       2       1       1       3       2       1       1       3
       2       1       1       3       2       1       1       3       2       1
       1       3       2       1       1       3       2       1       1       3
       2       1       1       3       2       1       1       3       2       1
       1       3       2       1       1       3       2       1       1       3
       2       1       1       3       2       1       1       3       2       1
       1       3       2       1       1       3       2       1       1       3
       2       1       1       3       2       1       1       3       2       1
       1       3       2       1       1       3       2       1       1       3
       2       1       1       3       2       1       1       3       2       1
       1       3       2       1       1       3       2       1       1       3
       2       1       1       3       2       1       1       3       2       1
       1       3       2       1       1       3       2       1       1       3
       2       1       1       3       2       1       1       3       2       1
       1       3       2       1       1       3       2       1       1       3
       2       1       1       3       2       1       1       3       2       1
       1       3       2       1       1       3       2       1       1       3
       2       1       1       3       2       1       1       3       2       1
       1       3       2       1       1       3       2       1       1       3
       2       1       1       3       2       1       1       3       2       1
       1       3       2       1       1       3       2       1       1       3
       2       1       1       3       2       1       1       3       2       1
       1       3       2       1       1       3       2       1       1       3
       2       1       1       3       2       1       1       3       2       1
       1       3       2       1       1       3       2       1       1       3
       2       1       1       3       2       1       1       3       2       1
       1       3       2       1       1       3       2       1       1       3
       2       1       1       3       2       1       1       3       2       1
       1       3       2       1       1       3       2       1       1       3
       2       1       1       3       2       1       1       3       2       1
       1       3       2       1       1       3       2       1       1       3
       2       1       1       3       2       1       1       3       2       1
       1       3       2       1       1       3       2       1       1       3
       2       1       1       3       2       1       1       3       2       1
       1       3       2       1       1       3       2       1       1       3
       2       1       1       3       2       1       1       3       2       1
       1       3       2       1       1       3       2       1       1       3
       2       1       1       3       2       1       1       3       2       1
       1       3       2       1       1       3       2       1       1       3
       2       1       1       3       2       1       1       3       2       1
       1       3       2       1       1       3       2       1       1       3
       2       1       1       3       2       1       1       3       2       1
       1       3       2       1       1       3       2       1       1       3
       2       1       1       3       2       1       1       3       2       1
       1       3       2       1       1       3       2       1       1       3
       2       1       1       3       2       1       1       3       2       1
       1       3       2       1       1       3       2       1       1       3
       2       1       1       3       2       1       1       3       2       1
       1       3       2       1       1       3       2       1       1       3
       2       1       1       3       2       1       1       3       2       1
       1       3       2       1       1       3       2       1       1       3
       2       1       1       3       2       1       1       3       2       1
       1       3       2       1       1       3       2       1       1       3
       2       1       1       3       2       1       1       3       2       1
       1       3       2       1       1       3       2       1       1       3
       2       1       1       3       2       1       1       3       2       1
       1       3       2       1       1       3       2       1       1       3
       2       1       1       3       2       1       1       3       2       1
       1       3       2       1       1       3       2       1       1       3
       2       1       1       3       2       1       1       3       2       1
       1       3       2       1       1       3       2       1       1       3
       2       1       1       3       2       1       1       3       2       1
       1       3       2       1       1       3       2       1       1       3
       2       1       1       3       2       1       1       3       2       1
       1       3       2       1       1       3       2       1       1       3
       2       1       1       3       2       1       1       3       2       1
       1       3       2       1       1       3       2       1       1       3
       2       1       1       3       2       1       1       3       2       1
       1       3       2       1       1       3       2       1       1       3
       2       1       1       3       2       1       1       3       2       1
       1       3       2       1       1       3       2       1       1       3
       2       1       1       3       2       1       1       3       2       1
       1       3       2       1       1       3       2       1       1       3
       2       1       1       3       2       1       1       3       2       1
       1       3       2       1       1       3       2       1       1       3
       2       1       1       3       2       1       1       3       2       1
       1       3       2       1       1       3       2       1       1       3
       2       1       1       3       2       1       1       3       2       1
       1       3       2       1       1       3       2       1       1       3
       2       1       1       3       2       1       1       3       2       1
       1       3       2       1       1       3       2       1       1       3
       2       1       1       3       2       1       1       3       2       1
       1       3       2       1       1       3       2       1       1       3
       2       1       1       3       2       1       1       3       2       1
       1       3       2       1       1       3       2       1       1       3
       2       1       1       3       2       1       1       3       2       1
       1       3       2       1       1       3       2       1       1       3
       2       1       1       3       2       1       1       3       2       1
       1       3       2       1       1       3       2       1       1       3
       2       1       1       3       2       1       1       3       2       1
       1       3       2       1       1       3       2       1       1       3
       2       1       1       3       2       1       1       3       2       1
       1       3       2       1       1       3       2       1       1       3
       2       1       1       3       2       1       1       3       2       1
       1       3       2       1       1       3       2       1       1       3
       2       1       1       3       2       1       1       3       2       1
       1       3       2       1       1       3       2       1       1       3
       2       1       1       3       2       1       1       3       2       1
       1       3       2       1       1       3       2       1       1       3
       2       1       1       3       2       1       1       3       2       1
       1       3       2       1       1       3       2       1       1       3
       2       1       1       3       2       1       1       3       2       1
       1       3       2       1       1       3       2       1       1       3
       2       1       1       3       2       1       1       3       2       1
       1       3       2       1       1       3       2       1       1       3
       2       1       1       3       2       1       1       3       2       1
       1       3       2       1       1       3       2       1       1       3
       2       1       1       3       2       1       1       3       2       1
       1       3       2       1       1       3       2       1       1       3
       2       1       1       3       2       1       1       3       2       1
       1       3       2       1       1       3       2       1       1       3
       2       1       1       3       2       1       1       3       2       1
       1       3       2       1       1       3       2       1       1       3
       2       1       1       3       2       1       1       3       2       1
       1       3       2       1       1       3       2       1       1       3
       2       1       1       3       2       1       1       3       2       1
       1       3       2       1       1       3       2       1       1       3
       2       1       1       3       2       1       1       3       2       1
       1       3       2       1       1       3       2       1       1       3
       2       1       1       3       2       1       1       3       2       1
       1       3       2       1       1       3       2       1       1       3
       2       1       1       3       2       1       1       3       2       1
       1       3       2       1       1       3       2       1       1       3
       2       1       1       3       2       1       1       3       2       1
       1       3       2       1       1       3       2       1       1       3
       2       1       1       3       2       1       1       3       2       1
       1       3       2       1       1       3       2       1       1       3
       2       1       1       3       2       1       1       3       2       1
       1       3       2       1       1       3       2       1       1       3
       2       1       1       3       2       1       1       3       2       1
       1       3       2       1       1       3       2       1       1       3
       2       1       1       3       2       1       1       3       2       1
       1       3       2       1       1       3       2       1       1       3
       2       1       1       3       2       1       1       3       2       1
       1       3       2       1       1       3       2       1       1       3
       2       1       1       3       2       1       1       3       2       1
       1       3       2       1       1       3       2       1       1       3
       2       1       1       3       2       1       1       3       2       1
       1       3       2       1       1       3       2       1       1       3
       2       1       1       3       2       1       1       3       2       1
       1       3       2       1       1       3       2       1       1       3
       2       1       1       3       2       1       1       3       2       1
       1       3       2       1       1       3       2       1       1       3
       2       1       1       3       2       1       1       3       2       1
       1       3       2       1       1       3       2       1       1       3
       2       1       1       3       2       1       1       3       2       1
       1       3       2       1       1       3       2       1       1       3
       2       1       1       3       2       1       1       3       2       1
       1       3       2       1       1       3       2       1       1       3
       2       1       1       3       2       1       1       3       2       1
       1       3       2       1       1       3       2       1       1       3
       2       1       1       3       2       1       1       3       2       1
       1       3       2       1       1       3       2       1       1       3
       2       1       1       3       2       1       1       3       2       1
       1       3       2       1       1       3       2       1       1       3
       2       1       1       3       2       1       1       3       2       1
       1       3       2       1       1       3       2       1       1       3
       2       1       1       3       2       1       1       3       2       1
       1       3       2       1       1       3       2       1       1       3
       2       1       1       3       2       1       1       3       2       1
       1       3       2       1       1       3       2       1       1       3
       2       1       1       3       2       1       1       3       2       1
       1       3       2       1       1       3       2       1       1       3
       2       1       1       3       2       1       1       3       2       1
       1       3       2       1       1       3       2       1       1       3
       2       1       1       3       2       1       1       3       2       1
       1       3       2       1       1       3       2       1       1       3
       2       1       1       3       2       1       1       3       2       1
       1       3       2       1       1       3       2       1       1       3
       2       1       1       3       2       1       1       3       2       1
       1       3       2       1       1       3       2       1       1       3
       2       1       1       3       2       1       1       3       2       1
       1       3       2       1       1       3       2       1       1       3
       2       1       1       3       2       1       1       3       2       1
       1       3       2       1       1       3       2       1       1       3
       2       1       1       3       2       1       1       3       2       1
       1       3       2       1       1       3       2       1       1       3
       2       1       1       3       2       1       1       3       2       1
       1       3       2       1       1       3       2       1       1       3
       2       1       1       3       2       1       1       3       2       1
       1       3       2       1       1       3       2       1       1       3
       2       1       1       3       2       1       1       3       2       1
       1       3       2       1       1       3       2       1       1       3
       2       1       1       3       2       1       1       3       2       1
       1       3       2       1       1       3       2       1       1       3
       2       1       1       3       2       1       1       3       2       1
       1       3       2       1       1       3       2       1       1       3
       2       1       1       3       2       1       1       3       2       1
       1       3       2       1       1       3       2       1       1       3
       2       1       1       3       2       1       1       3       2       1
       1       3       2       1       1       3       2       1       1       3
       2       1       1       3       2       1       1       3       2       1
       1       3       2       1       1       3       2       1       1       3
       2       1       1       3       2       1       1       3       2       1
       1       3       2       1       1       3       2       1       1       3
       2       1       1       3       2       1       1       3       2       1
       1       3       2       1       1       3       2       1       1       3
       2       1       1       3       2       1       1       3       2       1
       1       3       2       1       1       3       2       1       1       3
       2       1       1       3       2       1       1       3       2       1
       1       3       2       1       1       3       2       1       1       3
       2       1       1       3       2       1       1       3       2       1
       1       3       2       1       1       3       2       1       1       3
       2       1       1       3       2       1       1       3       2       1
       1       3       2       1       1       3       2       1       1       3
       2       1       1       3       2       1       1       3       2       1
       1       3       2       1       1       3       2       1       1       3
       2       1       1       3       2       1       1       3       2       1
       1       3       2       1       1       3       2       1       1       3
       2       1       1       3       2       1       1       3       2       1
       1       3       2       1       1       3       2       1       1       3
       2       1       1       3       2       1       1       3       2       1
       1       3       2       1       1       3       2       1       1       3
       2       1       1       3       2       1       1       3       2       1
       1       3       2       1       1       3       2       1       1       3
       2       1       1       3       2       1       1       3       2       1
       1       3       2       1       1       3       2       1       1       3
       2       1       1       3       2       1       1       3       2       1
       1       3       2       1       1       3       2       1       1       3
       2       1       1       3       2       1       1       3       2       1
       1       3       2       1       1       3       2       1       1       3
       2       1       1       3       2       1       1       3       2       1
       1       3       2       1       1       3       2       1       1       3
       2       1       1       3       2       1       1       3       2       1
       1       3       2       1       1       3       2       1       1       3
       2       1       1       3       2       1       1       3       2       1
       1       3       2       1       1       3       2       1       1       3
       2       1       1       3       2       1       1       3       2       1
       1       3       2       1       1       3       2       1       1       3
       2       1       1       3       2       1       1       3       2       1
       1       3       2       1       1       3       2       1       1       3
       2       1       1       3       2       1       1       3       2       1
       1       3       2       1       1       3       2       1       1       3
       2       1       1       3       2       1       1       3       2       1
       1       3       2       1       1       3       2       1       1       3
       2       1       1       3       2       1       1       3       2       1
       1       3       2       1       1       3       2       1       1       3
       2       1       1       3       2       1       1       3       2       1
       1       3       2       1       1       3       2       1       1       3
       2       1       1       3       2       1       1       3       2       1
       1       3       2       1       1       3       2       1       1       3
       2       1       1       3       2       1       1       3       2       1
       1       3       2       1       1       3       2       1       1       3
       2       1       1       3       2       1       1       3       2       1
       1       3       2       1       1       3       2       1       1       3
       2       1       1       3       2       1       1       3       2       1
       1       3       2       1       1       3       2       1       1       3
       2       1       1       3       2       1       1       3       2       1
       1       3       2       1       1       3       2       1       1       3
       2       1       1       3       2       1       1       3       2       1
       1       3       2       1       1       3       2       1       1       3
       2       1       1       3       2       1       1       3       2       1
       1       3       2       1       1       3       2       1       1       3
       2       1       1       3       2       1       1       3       2       1
       1       3       2       1       1       3       2       1       1       3
       2       1       1       3       2       1       1       3       2       1
       1       3       2       1       1       3       2       1       1       3
       2       1       1       3       2       1       1       3       2       1
       1       3       2       1       1       3       2       1       1       3
       2       1       1       3       2       1       1       3       2       1
       1       3       2       1       1       3       2       1       1       3
       2       1       1       3       2       1       1       3       2       1
       1       3       2       1       1       3       2       1       1       3
       2       1       1       3       2       1       1       3       2       1
       1       3       2       1       1       3       2       1       1       3
       2       1       1       3       2       1       1       3       2       1
       1       3       2       1       1       3       2       1       1       3
       2       1       1       3       2       1       1       3       2       1
       1       3       2       1       1       3       2       1       1       3
       2       1       1       3       2       1       1       3       2       1
       1       3       2       1       1       3       2       1       1       3
       2       1       1       3       2       1       1       3       2       1
       1       3       2       1       1       3       2       1       1       3
       2       1       1       3       2       1       1       3       2       1
       1       3       2       1       1       3       2       1       1       3
       2       1       1       3       2       1       1       3       2       1
       1       3       2       1       1       3       2       1       1       3
       2       1       1       3       2       1       1       3       2       1
       1       3       2       1       1       3       2       1       1       3
       2       1       1       3       2       1       1       3       2       1
       1       3       2       1       1       3       2       1       1       3
       2       1       1       3       2       1       1       3       2       1
       1       3       2       1       1       3       2       1       1       3
       2       1       1       3       2       1       1       3       2       1
       1       3       2       1       1       3       2       1       1       3
       2       1       1       3       2       1       1       3       2       1
       1       3       2       1       1       3       2       1       1       3
       2       1       1       3       2       1       1       3       2       1
       1       3       2       1       1       3       2       1       1       3
       2       1       1       3       2       1       1       3       2       1
       1       3       2       1       1       3       2       1       1       3
       2       1       1       3       2       1       1       3       2       1
       1       3       2       1       1       3       2       1       1       3
       2       1       1       3       2       1       1       3       2       1
       1       3       2       1       1       3       2       1       1       3
       2       1       1       3       2       1       1       3       2       1
       1       3       2       1       1       3       2       1       1       3
       2       1       1       3       2       1       1       3       2       1
       1       3       2       1       1       3       2       1       1       3
       2       1       1       3       2       1       1       3       2       1
       1       3       2       1       1       3       2       1       1       3
       2       1       1       3       2       1       1       3       2       1
       1       3       2       1       1       3       2       1       1       3
       2       1       1       3       2       1       1       3       2       1
       1       3       2       1       1       3       2       1       1       3
       2       1       1       3       2       1       1       3       2       1
       1       3       2       1       1       3       2       1       1       3
       2       1       1       3       2       1       1       3       2       1
       1       3       2       1       1       3       2       1       1       3
       2       1       1       3       2       1       1       3       2       1
       1       3       2       1       1       3       2       1       1       3
       2       1       1       3       2       1       1       3       2       1
       1       3       2       1       1       3       2       1       1       3
       2       1       1       3       2       1       1       3       2       1
       1       3       2       1       1       3       2       1       1       3
       2       1       1       3       2       1       1       3       2       1
       1       3       2       1       1       3       2       1       1       3
       2       1       1       3       2       1       1       3       2       1
       1       3       2       1       1       3       2       1       1       3
       2       1       1       3       2       1       1       3       2       1
       1       3       2       1       1       3       2       1       1       3
       2       1       1       3       2       1       1       3       2       1
       1       3       2       1       1       3       2       1       1       3
       2       1       1       3       2       1       1       3       2       1
       1       3       2       1       1       3       2       1       1       3
       2       1       1       3       2       1       1       3       2       1
       1       3       2       1       1       3       2       1       1       3
       2       1       1       3       2       1       1       3       2       1
       1       3       2       1       1       3       2       1       1       3
       2       1       1       3       2       1       1       3       2       1
       1       3       2       1       1       3       2       1       1       3
       2       1       1       3       2       1       1       3       2       1
       1       3       2       1       1       3       2       1       1       3
       2       1       1       3       2       1       1       3       2       1
       1       3       2       1       1       3       2       1       1       3
       2       1       1       3       2       1       1       3       2       1
       1       3       2       1       1       3       2       1       1       3
       2       1       1       3       2       1       1       3       2       1
       1       3       2       1       1       3       2       1       1       3
       2       1       1       3       2       1       1       3       2       1
       1       3       2       1       1       3       2       1       1       3
       2       1       1       3       2       1       1       3       2       1
       1       3       2       1       1       3       2       1       1       3
       2       1       1       3       2       1       1       3       2       1
       1       3       2       1       1       3       2       1       1       3
       2       1       1       3       2       1       1       3       2       1
       1       3       2       1       1       3       2       1       1       3
       2       1       1       3       2       1       1       3       2       1
       1       3       2       1       1       3       2       1       1       3
       2       1       1       3       2       1       1       3       2       1
       1       3       2       1       1       3       2       1       1       3
       2       1       1       3       2       1       1       3       2       1
       1       3       2       1       1       3       2       1       1       3
       2       1       1       3       2       1       1       3       2       1
       1       3       2       1       1       3       2       1       1       3
       2       1       1       3       2       1       1       3       2       1
       1       3       2       1       1       3       2       1       1       3
       2       1       1       3       2       1       1       3       2       1
       1       3       2       1       1       3       2       1       1       3
       2       1       1       3       2       1       1       3       2       1
       1       3       2       1       1       3       2       1       1       3
       2       1       1       3       2       1       1       3       2       1
       1       3       2       1       1       3       2       1       1       3
       2       1       1       3       2       1       1       3       2       1
       1       3       2       1       1       3       2       1       1       3
       2       1       1       3       2       1       1       3       2       1
       1       3       2       1       1       3       2       1       1       3
       2       1       1       3       2       1       1       3       2       1
       1       3       2       1       1       3       2       1       1       3
       2       1       1       3       2       1       1       3       2       1
       1       3       2       1       1       3       2       1       1       3
       2       1       1       3       2       1       1       3       2       1
       1       3       2       1       1       3       2       1       1       3
       2       1       1       3       2       1       1       3       2       1
       1       3       2       1       1       3       2       1       1       3
       2       1       1       3       2       1       1       3       2       1
       1       3       2       1       1       3       2       1       1       3
       2       1       1       3       2       1       1       3       2       1
       1       3       2       1       1       3       2       1       1       3
       2       1       1       3       2       1       1       3       2       1
       1       3       2       1       1       3       2       1       1       3
       2       1       1       3       2       1       1       3       2       1
       1       3       2       1       1       3       2       1       1       3
       2       1       1       3       2       1       1       3       2       1
       1       3       2       1       1       3       2       1       1       3
       2       1       1       3       2       1       1       3       2       1
       1       3       2       1       1       3       2       1       1       3
       2       1       1       3       2       1       1       3       2       1
       1       3       2       1       1       3       2       1       1       3
       2       1       1       3       2       1       1       3       2       1
       1       3       2       1       1       3       2       1       1       3
       2       1       1       3       2       1       1       3       2       1
       1       3       2       1       1       3       2       1       1       3
       2       1       1       3       2       1       1       3       2       1
       1       3       2       1       1       3       2       1       1       3
       2       1       1       3       2       1       1       3       2       1
       1       3       2       1       1       3       2       1       1       3
       2       1       1       3       2       1       1       3       2       1
       1       3       2       1       1       3       2       1       1       3
       2       1       1       3       2       1       1       3       2       1
       1       3       2       1       1       3       2       1       1       3
       2       1       1       3       2       1       1       3       2       1
       1       3       2       1       1       3       2       1       1       3
       2       1       1       3       2       1       1       3       2       1
       1       3       2       1       1       3       2       1       1       3
       2       1       1       3       2       1       1       3       2       1
       1       3       2       1       1       3       2       1       1       3
       2       1       1       3       2       1       1       3       2       1
       1       3       2       1       1       3       2       1       1       3
       2       1       1       3       2       1       1       3       2       1
       1       3       2       1       1       3       2       1       1       3
       2       1       1       3       2       1       1       3       2       1
       1       3       2       1       1       3       2       1       1       3
       2       1       1       3       2       1       1       3       2       1
       1       3       2       1       1       3       2       1       1       3
       2       1       1       3       2       1       1       3       2       1
       1       3       2       1       1       3       2       1       1       3
       2       1       1       3       2       1       1       3       2       1
       1       3       2       1       1       3       2       1       1       3
       2       1       1       3       2       1       1       3       2       1
       1       3       2       1       1       3       2       1       1       3
       2       1       1       3       2       1       1       3       2       1
       1       3       2       1       1       3       2       1       1       3
       2       1       1       3       2       1       1       3       2       1
       1       3       2       1       1       3       2       1       1       3
       2       1       1       3       2       1       1       3       2       1
       1       3       2       1       1       3       2       1       1       3
       2       1       1       3       2       1       1       3       2       1
       1       3       2       1       1       3       2       1       1       3
       2       1       1       3       2       1       1       3       2       1
       1       3       2       1       1       3       2       1       1       3
       2       1       1       3       2       1       1       3       2       1
       1       3       2       1       1       3       2       1       1       3
       2       1       1       3       2       1       1       3       2       1
       1       3       2       1       1       3       2       1       1       3
       2       1       1       3       2       1       1       3       2       1
       1       3       2       1       1       3       2       1       1       3
       2       1       1       3       2       1       1       3       2       1
       1       3       2       1       1       3       2       1       1       3
       2       1       1       3       2       1       1       3       2       1
       1       3       2       1       1       3       2       1       1       3
       2       1       1       3       2       1       1       3       2       1
       1       3       2       1       1       3       2       1       1       3
       2       1       1       3       2       1       1       3       2       1
       1       3       2       1       1       3       2       1       1       3
       2       1       1       3       2       1       1       3       2       1
       1       3       2       1       1       3       2       1       1       3
       2       1       1       3       2       1       1       3       2       1
       1       3       2       1       1       3       2       1       1       3
       2       1       1       3       2       1       1       3       2       1
       1       3       2       1       1       3       2       1       1       3
       2       1       1       3       2       1       1       3       2       1
       1       3       2       1       1       3       2       1       1       3
       2       1       1       3       2       1       1       3       2       1
       1       3       2       1       1       3       2       1       1       3
       2       1       1       3       2       1       1       3       2       1
       1       3       2       1       1       3       2       1       1       3
       2       1       1       3       2       1       1       3       2       1
       1       3       2       1       1       3       2       1       1       3
       2       1       1       3       2       1       1       3       2       1
       1       3       2       1       1       3       2       1       1       3
       2       1       1       3       2       1       1       3       2       1
       1       3       2       1       1       3       2       1       1       3
       2       1       1       3       2       1       1       3       2       1
       1       3       2       1       1       3       2       1       1       3
       2       1       1       3       2       1       1       3       2       1
       1       3       2       1       1       3       2       1       1       3
       2       1       1       3       2       1       1       3       2       1
       1       3       2       1       1       3       2       1       1       3
       2       1       1       3       2       1       1       3       2       1
       1       3       2       1       1       3       2       1       1       3
       2       1       1       3       2       1       1       3       2       1
       1       3       2       1       1       3       2       1       1       3
       2       1       1       3       2       1       1       3       2       1
       1       3       2       1       1       3       2       1       1       3
       2       1       1       3       2       1       1       3       2       1
       1       3       2       1       1       3       2       1       1       3
       2       1       1       3       2       1       1       3       2       1
       1       3       2       1       1       3       2       1       1       3
       2       1       1       3       2       1       1       3       2       1
       1       3       2       1       1       3       2       1       1       3
       2       1       1       3       2       1       1       3       2       1
       1       3       2       1       1       3       2       1       1       3
       2       1       1       3       2       1       1       3       2       1
       1       3       2       1       1       3       2       1       1       3
       2       1       1       3       2       1       1       3       2       1
       1       3       2       1       1       3       2       1       1       3
       2       1       1       3       2       1       1       3       2       1
       1       3       2       1       1       3       2       1       1       3
       2       1       1       3       2       1       1       3       2       1
       1       3       2       1       1       3       2       1       1       3
       2       1       1       3       2       1       1       3       2       1
       1       3       2       1       1       3       2       1       1       3
       2       1       1       3       2       1       1       3       2       1
       1       3       2       1       1       3       2       1       1       3
       2       1       1       3       2       1       1       3       2       1
       1       3       2       1       1       3       2       1       1       3
       2       1       1       3       2       1       1       3       2       1
       1       3       2       1       1       3       2       1       1       3
       2       1       1       3       2       1       1       3       2       1
       1       3       2       1       1       3       2       1       1       3
       2       1       1       3       2       1       1       3       2       1
       1       3       2       1       1       3       2       1       1       3
       2       1       1       3       2       1       1       3       2       1
       1       3       2       1       1       3       2       1       1       3
       2       1       1       3       2       1       1       3       2       1
       1       3       2       1       1       3       2       1       1       3
       2       1       1       3       2       1       1       3       2       1
       1       3       2       1       1       3       2       1       1       3
       2       1       1       3       2       1       1       3       2       1
       1       3       2       1       1       3       2       1       1       3
       2       1       1       3       2       1       1       3       2       1
       1       3       2       1       1       3       2       1       1       3
       2       1       1       3       2       1       1       3       2       1
       1       3       2       1       1       3       2       1       1       3
       2       1       1       3       2       1       1       3       2       1
       1       3       2       1       1       3       2       1       1       3
       2       1       1       3       2       1       1       3       2       1
       1       3       2       1       1       3       2       1       1       3
       2       1       1       3       2       1       1       3       2       1
       1       3       2       1       1       3       2       1       1       3
       2       1       1       3       2       1       1       3       2       1
       1       3       2       1       1       3       2       1       1       3
       2       1       1       3       2       1       1       3       2       1
       1       3       2       1       1       3       2       1       1       3
       2       1       1       3       2       1       1       3       2       1
       1       3       2       1       1       3       2       1       1       3
       2       1       1       3       2       1       1       3       2       1
       1       3       2       1       1       3       2       1       1       3
       2       1       1       3       2       1       1       3       2       1
       1       3       2       1       1       3       2       1       1       3
       2       1       1       3       2       1       1       3       2       1
       1       3       2       1       1       3       2       1       1       3
       2       1       1       3       2       1       1       3       2       1
       1       3       2       1       1       3       2       1       1       3
       2       1       1       3       2       1       1       3       2       1
       1       3       2       1       1       3       2       1       1       3
       2       1       1       3       2       1       1       3       2       1
       1       3       2       1       1       3       2       1       1       3
       2       1       1       3       2       1       1       3       2       1
       1       3       2       1       1       3       2       1       1       3
       2       1       1       3       2       1       1       3       2       1
       1       3       2       1       1       3       2       1       1       3
       2       1       1       3       2       1       1       3       2       1
       1       3       2       1       1       3       2       1       1       3
       2       1       1       3       2       1       1       3       2       1
       1       3       2       1       1       3       2       1       1       3
       2       1       1       3       2       1       1       3       2       1
       1       3       2       1       1       3       2       1       1       3
       2       1       1       3       2       1       1       3       2       1
       1       3       2       1       1       3       2       1       1       3
       2       1       1       3       2       1       1       3       2       1
       1       3       2       1       1       3       2       1       1       3
       2       1       1       3       2       1       1       3       2       1
       1       3       2       1       1       3       2       1       1       3
       2       1       1       3       2       1       1       3       2       1
       1       3       2       1       1       3       2       1       1       3
       2       1       1       3       2       1       1       3       2       1
       1       3       2       1       1       3       2       1       1       3
       2       1       1       3       2       1       1       3       2       1
       1       3       2       1       1       3       2       1       1       3
       2       1       1       3       2       1       1       3       2       1
       1       3       2       1       1       3       2       1       1       3
       2       1       1       3       2       1       1       3       2       1
       1       3       2       1       1       3       2       1       1       3
       2       1       1       3       2       1       1       3       2       1
       1       3       2       1       1       3       2       1       1       3
       2       1       1       3       2       1       1       3       2       1
       1       3       2       1       1       3       2       1       1       3
       2       1       1       3       2       1       1       3       2       1
       1       3       2       1       1       3       2       1       1       3
       2       1       1       3       2       1       1       3       2       1
       1       3       2       1       1       3       2       1       1       3
       2       1       1       3       2       1       1       3       2       1
       1       3       2       1       1       3       2       1       1       3
       2       1       1       3       2       1       1       3       2       1
       1       3       2       1       1       3       2       1       1       3
       2       1       1       3       2       1       1       3       2       1
       1       3       2       1       1       3       2       1       1       3
       2       1       1       3       2       1       1       3       2       1
       1       3       2       1       1       3       2       1       1       3
       2       1       1       3       2       1       1       3       2       1
       1       3       2       1       1       3       2       1       1       3
       2       1       1       3       2       1       1       3       2       1
       1       3       2       1       1       3       2       1       1       3
       2       1       1       3       2       1       1       3       2       1
       1       3       2       1       1       3       2       1       1       3
       2       1       1       3       2       1       1       3       2       1
       1       3       2       1       1       3       2       1       1       3
       2       1       1       3       2       1       1       3       2       1
       1       3       2       1       1       3       2       1       1       3
       2       1       1       3       2       1       1       3       2       1
       1       3       2       1       1       3       2       1       1       3
       2       1       1       3       2       1       1       3       2       1
       1       3       2       1       1       3       2       1       1       3
       2       1       1       3       2       1       1       3       2       1
       1       3       2       1       1       3       2       1       1       3
       2       1       1       3       2       1       1       3       2       1
       1       3       2       1       1       3       2       1       1       3
       2       1       1       3       2       1       1       3       2       1
       1       3       2       1       1       3       2       1       1       3
       2       1       1       3       2       1       1       3       2       1
       1       3       2       1       1       3       2       1       1       3
       2       1       1       3       2       1       1       3       2       1
       1       3       2       1       1       3       2       1       1       3
       2       1       1       3       2       1       1       3       2       1
       1       3       2       1       1       3       2       1       1       3
       2       1       1       3       2       1       1       3       2       1
       1       3       2       1       1       3       2       1       1       3
       2       1       1       3       2       1       1       3       2       1
       1       3       2       1       1       3       2       1       1       3
       2       1       1       3       2       1       1       3       2       1
       1       3       2       1       1       3       2       1       1       3
       2       1       1       3       2       1       1       3       2       1
       1       3       2       1       1       3       2       1       1       3
       2       1       1       3       2       1       1       3       2       1
       1       3       2       1       1       3       2       1       1       3
       2       1       1       3       2       1       1       3       2       1
       1       3       2       1       1       3       2       1       1       3
       2       1       1       3       2       1       1       3       2       1
       1       3       2       1       1       3       2       1       1       3
       2       1       1       3       2       1       1       3       2       1
       1       3       2       1       1       3       2       1       1       3
       2       1       1       3       2       1       1       3       2       1
       1       3       2       1       1       3       2       1       1       3
       2       1       1       3       2       1       1       3       2       1
       1       3       2       1       1       3       2       1       1       3
       2       1       1       3       2       1       1       3       2       1
       1       3       2       1       1       3       2       1       1       3
       2       1       1       3       2       1       1       3       2       1
       1       3       2       1       1       3       2       1       1       3
       2       1       1       3       2       1       1       3       2       1
       1       3       2       1       1       3       2       1       1       3
       2       1       1       3       2       1       1       3       2       1
       1       3       2       1       1       3       2       1       1       3
       2       1       1       3       2       1       1       3       2       1
       1       3       2       1       1       3       2       1       1       3
       2       1       1       3       2       1       1       3       2       1
       1       3       2       1       1       3       2       1       1       3
       2       1       1       3       2       1       1       3       2       1
       1       3       2       1       1       3       2       1       1       3
       2       1       1       3       2       1       1       3       2       1
       1       3       2       1       1       3       2       1       1       3
       2       1       1       3       2       1       1       3       2       1
       1       3       2       1       1       3       2       1       1       3
       2       1       1       3       2       1       1       3       2       1
       1       3       2       1       1       3       2       1       1       3
       2       1       1       3       2       1       1       3       2       1
       1       3       2       1       1       3       2       1       1       3
       2       1       1       3       2       1       1       3       2       1
       1       3       2       1       1       3       2       1       1       3
       2       1       1       3       2       1       1       3       2       1
       1       3       2       1       1       3       2       1       1       3
       2       1       1       3       2       1       1       3       2       1
       1       3       2       1       1       3       2       1       1       3
       2       1       1       3       2       1       1       3       2       1
       1       3       2       1       1       3       2       1       1       3
       2       1       1       3       2       1       1       3       2       1
       1       3       2       1       1       3       2       1       1       3
       2       1       1       3       2       1       1       3       2       1
       1       3       2       1       1       3       2       1       1       3
       2       1       1       3       2       1       1       3       2       1
       1       3       2       1       1       3       2       1       1       3
       2       1       1       3       2       1       1       3       2       1
       1       3       2       1       1       3       2       1       1       3
       2       1       1       3       2       1       1       3       2       1
       1       3       2       1       1       3       2       1       1       3
       2       1       1       3       2       1       1       3       2       1
       1       3       2       1       1       3       2       1       1       3
       2       1       1       3       2       1       1       3       2       1
       1       3       2       1       1       3       2       1       1       3
       2       1       1       3       2       1       1       3       2       1
       1       3       2       1       1       3       2       1       1       3
       2       1       1       3       2       1       1       3       2       1
       1       3       2       1       1       3       2       1       1       3
       2       1       1       3       2       1       1       3       2       1
       1       3       2       1       1       3       2       1       1       3
       2       1       1       3       2       1       1       3       2       1
       1       3       2       1       1       3       2       1       1       3
       2       1       1       3       2       1       1       3       2       1
       1       3       2       1       1       3       2       1       1       3
       2       1       1       3       2       1       1       3       2       1
       1       3       2       1       1       3       2       1       1       3
       2       1       1       3       2       1       1       3       2       1
       1       3       2       1       1       3       2       1       1       3
       2       1       1       3       2       1       1       3       2       1
       1       3       2       1       1       3       2       1       1       3
       2       1       1       3       2       1       1       3       2       1
       1       3       2       1       1       3       2       1       1       3
       2       1       1       3       2       1       1       3       2       1
       1       3       2       1       1       3       2       1       1       3
       2       1       1       3       2       1       1       3       2       1
       1       3       2       1       1       3       2       1       1       3
       2       1       1       3       2       1       1       3       2       1
       1       3       2       1       1       3       2       1       1       3
       2       1       1       3       2       1       1       3       2       1
       1       3       2       1       1       3       2       1       1       3
       2       1       1       3       2       1       1       3       2       1
       1       3       2       1       1       3       2       1       1       3
       2       1       1       3       2       1       1       3       2       1
       1       3       2       1       1       3       2       1       1       3
       2       1       1       3       2       1       1       3       2       1
       1       3       2       1       1       3       2       1       1       3
       2       1       1       3       2       1       1       3       2       1
       1       3       2       1       1       3       2       1       1       3
       2       1       1       3       2       1       1       3       2       1
       1       3       2       1       1       3       2       1       1       3
       2       1       1       3       2       1       1       3       2       1
       1       3       2       1       1       3       2       1       1       3
       2       1       1       3       2       1       1       3       2       1
       1       3       2       1       1       3       2       1       1       3
       2       1       1       3       2       1       1       3       2       1
       1       3       2       1       1       3       2       1       1       3
       2       1       1       3       2       1       1       3       2       1
       1       3       2       1       1       3       2       1       1       3
       2       1       1       3       2       1       1       3       2       1
       1       3       2       1       1       3       2       1       1       3
       2       1       1       3       2       1       1       3       2       1
       1       3       2       1       1       3       2       1       1       3
       2       1       1       3       2       1       1       3       2       1
       1       3       2       1       1       3       2       1       1       3
       2       1       1       3       2       1       1       3       2       1
       1       3       2       1       1       3       2       1       1       3
       2       1       1       3       2       1       1       3       2       1
       1       3       2       1       1       3       2       1       1       3
       2       1       1       3       2       1       1       3       2       1
       1       3       2       1       1       3       2       1       1       3
       2       1       1       3       2       1       1       3       2       1
       1       3       2       1       1       3       2       1       1       3
       2       1       1       3       2       1       1       3       2       1
       1       3       2       1       1       3       2       1       1       3
       2       1       1       3       2       1       1       3       2       1
       1       3       2       1       1       3       2       1       1       3
       2       1       1       3       2       1       1       3       2       1
       1       3       2       1       1       3       2       1       1       3
       2       1       1       3       2       1       1       3       2       1
       1       3       2       1       1       3       2       1       1       3
       2       1       1       3       2       1       1       3       2       1
       1       3       2       1       1       3       2       1       1       3
       2       1       1       3       2       1       1       3       2       1
       1       3       2       1       1       3       2       1       1       3
       2       1       1       3       2       1       1       3       2       1
       1       3       2       1       1       3       2       1       1       3
       2       1       1       3       2       1       1       3       2       1
       1       3       2       1       1       3       2       1       1       3
       2       1       1       3       2       1       1       3       2       1
       1       3       2       1       1       3       2       1       1       3
       2       1       1       3       2       1       1       3       2       1
       1       3       2       1       1       3       2       1       1       3
       2       1       1       3       2       1       1       3       2       1
       1       3       2       1       1       3       2       1       1
%FLAG NONBONDED_PARM_INDEX                                                      
%FORMAT(10I8)                                                                   
       1       2       4       7      11      16      22      29      37      46
      56      67      79      92     106     121     137     154     172     191
     211     232     254     277     301     326     352     379     407     436
       2       3       5       8      12      17      23      30      38      47
      57      68      80      93     107     122     138     155     173     192
     212     233     255     278     302     327     353     380     408     437
       4       5       6       9      13      18      24      31      39      48
      58      69      81      94     108     123     139     156     174     193
     213     234     256     279     303     328     354     381     409     438
       7       8       9      10      14      19      25      32      40      49
      59      70      82      95     109     124     140     157     175     194
     214     235     257     280     304     329     355     382     410     439
      11      12      13      14      15      20      26      33      41      50
      60      71      83      96     110     125     141     158     176     195
     215     236     258     281     305     330     356     383     411     440
      16      17      18      19      20      21      27      34      42      51
      61      72      84      97     111     126     142     159     177     196
     216     237     259     282     306     331     357     384     412     441
      22      23      24      25      26      27      28      35      43      52
      62      73      85      98     112     127     143     160     178     197
     217     238     260     283     307     332     358     385     413     442
      29      30      31      32      33      34      35      36      44      53
      63      74      86      99     113     128     144     161     179     198
     218     239     261     284     308     333     359     386     414     443
      37      38      39      40      41      42      43      44      45      54
      64      75      87     100     114     129     145     162     180     199
     219     240     262     285     309     334     360     387     415     444
      46      47      48      49      50      51      52      53      54      55
      65      76      88     101     115     130     146     163     181     200
     220     241     263     286     310     335     361     388     416     445
      56      57      58      59      60      61      62      63      64      65
      66      77      89     102     116     131     147     164     182     201
     221     242     264     287     311     336     362     389     417     446
      67      68      69      70      71      72      73      74      75      76
      77      78      90     103     117     132     148     165     183     202
     222     243     265     288     312     337     363     390     418     447
      79      80      81      82      83      84      85      86      87      88
      89      90      91     104     118     133     149     166     184     203
     223     244     266     289     313     338     364     391     419     448
      92      93      94      95      96      97      98      99     100     101
     102     103     104     105     119     134     150     167     185     204
     224     245     267     290     314     339     365     392     420     449
     106     107     108     109     110     111     112     113     114     115
     116     117     118     119     120     135     151     168     186     205
     225     246     268     291     315     340     366     393     421     450
     121     122     123     124     125     126     127     128     129     130
     131     132     133     134     135     136     152     169     187     206
     226     247     269     292     316     341     367     394     422     451
     137     138     139     140     141     142     143     144     145     146
     147     148     149     150     151     152     153     170     188     207
     227     248     270     293     317     342     368     395     423     452
     154     155     156     157     158     159     160     161     162     163
     164     165     166     167     168     169     170     171     189     208
     228     249     271     294     318     343     369     396     424     453
     172     173     174     175     176     177     178     179     180     181
     182     183     184     185     186     187     188     189     190     209
     229     250     272     295     319     344     370     397     425     454
     191     192     193     194     195     196     197     198     199     200
     201     202     203     204     205     206     207     208     209     210
     230     251     273     296     320     345     371     398     426     455
     211     212     213     214     215     216     217     218     219     220
     221     222     223     224     225     226     227     228     229     230
     231     252     274     297     321     346     372     399     427     456
     232     233     234     235     236     237     238     239     240     241
     242     243     244     245     246     247     248     249     250     251
     252     253     275     298     322     347     373     400     428     457
     254     255     256     257     258     259     260     261     262     263
     264     265     266     267     268     269     270     271     272     273
     274     275     276     299     323     348     374     401     429     458
     277     278     279     280     281     282     283     284     285     286
     287     288     289     290     291     292     293     294     295     296
     297     298     299     300     324     349     375     402     430     459
     301     302     303     304     305     306     307     308     309     310
     311     312     313     314     315     316     317     318     319     320
     321     322     323     324     325     350     376     403     431     460
     326     327     328     329     330     331     332     333     334     335
     336     337     338     339     340     341     342     343     344     345
     346     347     348     349     350     351     377     404     432     461
     352     353     354     355     356     357     358     359     360     361
     362     363     364     365     366     367     368     369     370     371
     372     373     374     375     376     377     378     405     433     462
     379     380     381     382     383     384     385     386     387     388
     389     390     391     392     393     394     395     396     397     398
     399     400     401     402     403     404     405     406     434     463
     407     408     409     410     411     412     413     414     415     416
     417     418     419     420     421     422     423     424     425     426
     427     428     429     430     431     432     433     434     435     464
     436     437     438     439     440     441     442     443     444     445
     446     447     448     449     450     451     452     453     454     455
     456     457     458     459     460     461     462     463     464     465
%FLAG RESIDUE_LABEL                                                             
%FORMAT(20a4)                                                                   
G5  G   A   U   C   A   U   A   U   A   A   U   C   G   C   G   U   G   G   A   
U   A   U   G   G   C   A   C   G   C   A   A   G   U   U   U   C   U   A   C   
C   G   G   G   C   A   C   C   G   U   A   A   A   U   G   U   C   C   G   A   
C   U   A   U   G   G   U   C3  Na+ Na+ Na+ Na+ Na+ Na+ Na+ Na+ Na+ Na+ Na+ Na+ 
Na+ Na+ Na+ Na+ Na+ Na+ Na+ Na+ Na+ Na+ Na+ Na+ Na+ Na+ Na+ Na+ Na+ Na+ Na+ Na+ 
Na+ Na+ Na+ Na+ Na+ Na+ Na+ Na+ Na+ Na+ Na+ Na+ Na+ Na+ Na+ Na+ Na+ Na+ Na+ Na+ 
Na+ Na+ Na+ Na+ Na+ Na+ Na+ Na+ Na+ Na+ Na+ Na+ Na+ Na+ Na+ Na+ Cl- Na+ Cl- Na+ 
Cl- Na+ Cl- Na+ Cl- Na+ Cl- Na+ Cl- Na+ Cl- Na+ Cl- Na+ Cl- Na+ Cl- Na+ Cl- Na+ 
Cl- Na+ Cl- Na+ Cl- Na+ Cl- Na+ Cl- Na+ Cl- Na+ Cl- Na+ Cl- Na+ Cl- Na+ Cl- Na+ 
Cl- Na+ Cl- Na+ Cl- Na+ Cl- Na+ Cl- Na+ Cl- Na+ Cl- Na+ Cl- Na+ Cl- Na+ Cl- LIG 
WAT WAT WAT WAT WAT WAT WAT WAT WAT WAT WAT WAT WAT WAT WAT WAT WAT WAT WAT WAT 
WAT WAT WAT WAT WAT WAT WAT WAT WAT WAT WAT WAT WAT WAT WAT WAT WAT WAT WAT WAT 
WAT WAT WAT WAT WAT WAT WAT WAT WAT WAT WAT WAT WAT WAT WAT WAT WAT WAT WAT WAT 
WAT WAT WAT WAT WAT WAT WAT WAT WAT WAT WAT WAT WAT WAT WAT WAT WAT WAT WAT WAT 
WAT WAT WAT WAT WAT WAT WAT WAT WAT WAT WAT WAT WAT WAT WAT WAT WAT WAT WAT WAT 
WAT WAT WAT WAT WAT WAT WAT WAT WAT WAT WAT WAT WAT WAT WAT WAT WAT WAT WAT WAT 
WAT WAT WAT WAT WAT WAT WAT WAT WAT WAT WAT WAT WAT WAT WAT WAT WAT WAT WAT WAT 
WAT WAT WAT WAT WAT WAT WAT WAT WAT WAT WAT WAT WAT WAT WAT WAT WAT WAT WAT WAT 
WAT WAT WAT WAT WAT WAT WAT WAT WAT WAT WAT WAT WAT WAT WAT WAT WAT WAT WAT WAT 
WAT WAT WAT WAT WAT WAT WAT WAT WAT WAT WAT WAT WAT WAT WAT WAT WAT WAT WAT WAT 
WAT WAT WAT WAT WAT WAT WAT WAT WAT WAT WAT WAT WAT WAT WAT WAT WAT WAT WAT WAT 
WAT WAT WAT WAT WAT WAT WAT WAT WAT WAT WAT WAT WAT WAT WAT WAT WAT WAT WAT WAT 
WAT WAT WAT WAT WAT WAT WAT WAT WAT WAT WAT WAT WAT WAT WAT WAT WAT WAT WAT WAT 
WAT WAT WAT WAT WAT WAT WAT WAT WAT WAT WAT WAT WAT WAT WAT WAT WAT WAT WAT WAT 
WAT WAT WAT WAT WAT WAT WAT WAT WAT WAT WAT WAT WAT WAT WAT WAT WAT WAT WAT WAT 
WAT WAT WAT WAT WAT WAT WAT WAT WAT WAT WAT WAT WAT WAT WAT WAT WAT WAT WAT WAT 
WAT WAT WAT WAT WAT WAT WAT WAT WAT WAT WAT WAT WAT WAT WAT WAT WAT WAT WAT WAT 
WAT WAT WAT WAT WAT WAT WAT WAT WAT WAT WAT WAT WAT WAT WAT WAT WAT WAT WAT WAT 
WAT WAT WAT WAT WAT WAT WAT WAT WAT WAT WAT WAT WAT WAT WAT WAT WAT WAT WAT WAT 
WAT WAT WAT WAT WAT WAT WAT WAT WAT WAT WAT WAT WAT WAT WAT WAT WAT WAT WAT WAT 
WAT WAT WAT WAT WAT WAT WAT WAT WAT WAT WAT WAT WAT WAT WAT WAT WAT WAT WAT WAT 
WAT WAT WAT WAT WAT WAT WAT WAT WAT WAT WAT WAT WAT WAT WAT WAT WAT WAT WAT WAT 
WAT WAT WAT WAT WAT WAT WAT WAT WAT WAT WAT WAT WAT WAT WAT WAT WAT WAT WAT WAT 
WAT WAT WAT WAT WAT WAT WAT WAT WAT WAT WAT WAT WAT WAT WAT WAT WAT WAT WAT WAT 
WAT WAT WAT WAT WAT WAT WAT WAT WAT WAT WAT WAT WAT WAT WAT WAT WAT WAT WAT WAT 
WAT WAT WAT WAT WAT WAT WAT WAT WAT WAT WAT WAT WAT WAT WAT WAT WAT WAT WAT WAT 
WAT WAT WAT WAT WAT WAT WAT WAT WAT WAT WAT WAT WAT WAT WAT WAT WAT WAT WAT WAT 
WAT WAT WAT WAT WAT WAT WAT WAT WAT WAT WAT WAT WAT WAT WAT WAT WAT WAT WAT WAT 
WAT WAT WAT WAT WAT WAT WAT WAT WAT WAT WAT WAT WAT WAT WAT WAT WAT WAT WAT WAT 
WAT WAT WAT WAT WAT WAT WAT WAT WAT WAT WAT WAT WAT WAT WAT WAT WAT WAT WAT WAT 
WAT WAT WAT WAT WAT WAT WAT WAT WAT WAT WAT WAT WAT WAT WAT WAT WAT WAT WAT WAT 
WAT WAT WAT WAT WAT WAT WAT WAT WAT WAT WAT WAT WAT WAT WAT WAT WAT WAT WAT WAT 
WAT WAT WAT WAT WAT WAT WAT WAT WAT WAT WAT WAT WAT WAT WAT WAT WAT WAT WAT WAT 
WAT WAT WAT WAT WAT WAT WAT WAT WAT WAT WAT WAT WAT WAT WAT WAT WAT WAT WAT WAT 
WAT WAT WAT WAT WAT WAT WAT WAT WAT WAT WAT WAT WAT WAT WAT WAT WAT WAT WAT WAT 
WAT WAT WAT WAT WAT WAT WAT WAT WAT WAT WAT WAT WAT WAT WAT WAT WAT WAT WAT WAT 
WAT WAT WAT WAT WAT WAT WAT WAT WAT WAT WAT WAT WAT WAT WAT WAT WAT WAT WAT WAT 
WAT WAT WAT WAT WAT WAT WAT WAT WAT WAT WAT WAT WAT WAT WAT WAT WAT WAT WAT WAT 
WAT WAT WAT WAT WAT WAT WAT WAT WAT WAT WAT WAT WAT WAT WAT WAT WAT WAT WAT WAT 
WAT WAT WAT WAT WAT WAT WAT WAT WAT WAT WAT WAT WAT WAT WAT WAT WAT WAT WAT WAT 
WAT WAT WAT WAT WAT WAT WAT WAT WAT WAT WAT WAT WAT WAT WAT WAT WAT WAT WAT WAT 
WAT WAT WAT WAT WAT WAT WAT WAT WAT WAT WAT WAT WAT WAT WAT WAT WAT WAT WAT WAT 
WAT WAT WAT WAT WAT WAT WAT WAT WAT WAT WAT WAT WAT WAT WAT WAT WAT WAT WAT WAT 
WAT WAT WAT WAT WAT WAT WAT WAT WAT WAT WAT WAT WAT WAT WAT WAT WAT WAT WAT WAT 
WAT WAT WAT WAT WAT WAT WAT WAT WAT WAT WAT WAT WAT WAT WAT WAT WAT WAT WAT WAT 
WAT WAT WAT WAT WAT WAT WAT WAT WAT WAT WAT WAT WAT WAT WAT WAT WAT WAT WAT WAT 
WAT WAT WAT WAT WAT WAT WAT WAT WAT WAT WAT WAT WAT WAT WAT WAT WAT WAT WAT WAT 
WAT WAT WAT WAT WAT WAT WAT WAT WAT WAT WAT WAT WAT WAT WAT WAT WAT WAT WAT WAT 
WAT WAT WAT WAT WAT WAT WAT WAT WAT WAT WAT WAT WAT WAT WAT WAT WAT WAT WAT WAT 
WAT WAT WAT WAT WAT WAT WAT WAT WAT WAT WAT WAT WAT WAT WAT WAT WAT WAT WAT WAT 
WAT WAT WAT WAT WAT WAT WAT WAT WAT WAT WAT WAT WAT WAT WAT WAT WAT WAT WAT WAT 
WAT WAT WAT WAT WAT WAT WAT WAT WAT WAT WAT WAT WAT WAT WAT WAT WAT WAT WAT WAT 
WAT WAT WAT WAT WAT WAT WAT WAT WAT WAT WAT WAT WAT WAT WAT WAT WAT WAT WAT WAT 
WAT WAT WAT WAT WAT WAT WAT WAT WAT WAT WAT WAT WAT WAT WAT WAT WAT WAT WAT WAT 
WAT WAT WAT WAT WAT WAT WAT WAT WAT WAT WAT WAT WAT WAT WAT WAT WAT WAT WAT WAT 
WAT WAT WAT WAT WAT WAT WAT WAT WAT WAT WAT WAT WAT WAT WAT WAT WAT WAT WAT WAT 
WAT WAT WAT WAT WAT WAT WAT WAT WAT WAT WAT WAT WAT WAT WAT WAT WAT WAT WAT WAT 
WAT WAT WAT WAT WAT WAT WAT WAT WAT WAT WAT WAT WAT WAT WAT WAT WAT WAT WAT WAT 
WAT WAT WAT WAT WAT WAT WAT WAT WAT WAT WAT WAT WAT WAT WAT WAT WAT WAT WAT WAT 
WAT WAT WAT WAT WAT WAT WAT WAT WAT WAT WAT WAT WAT WAT WAT WAT WAT WAT WAT WAT 
WAT WAT WAT WAT WAT WAT WAT WAT WAT WAT WAT WAT WAT WAT WAT WAT WAT WAT WAT WAT 
WAT WAT WAT WAT WAT WAT WAT WAT WAT WAT WAT WAT WAT WAT WAT WAT WAT WAT WAT WAT 
WAT WAT WAT WAT WAT WAT WAT WAT WAT WAT WAT WAT WAT WAT WAT WAT WAT WAT WAT WAT 
WAT WAT WAT WAT WAT WAT WAT WAT WAT WAT WAT WAT WAT WAT WAT WAT WAT WAT WAT WAT 
WAT WAT WAT WAT WAT WAT WAT WAT WAT WAT WAT WAT WAT WAT WAT WAT WAT WAT WAT WAT 
WAT WAT WAT WAT WAT WAT WAT WAT WAT WAT WAT WAT WAT WAT WAT WAT WAT WAT WAT WAT 
WAT WAT WAT WAT WAT WAT WAT WAT WAT WAT WAT WAT WAT WAT WAT WAT WAT WAT WAT WAT 
WAT WAT WAT WAT WAT WAT WAT WAT WAT WAT WAT WAT WAT WAT WAT WAT WAT WAT WAT WAT 
WAT WAT WAT WAT WAT WAT WAT WAT WAT WAT WAT WAT WAT WAT WAT WAT WAT WAT WAT WAT 
WAT WAT WAT WAT WAT WAT WAT WAT WAT WAT WAT WAT WAT WAT WAT WAT WAT WAT WAT WAT 
WAT WAT WAT WAT WAT WAT WAT WAT WAT WAT WAT WAT WAT WAT WAT WAT WAT WAT WAT WAT 
WAT WAT WAT WAT WAT WAT WAT WAT WAT WAT WAT WAT WAT WAT WAT WAT WAT WAT WAT WAT 
WAT WAT WAT WAT WAT WAT WAT WAT WAT WAT WAT WAT WAT WAT WAT WAT WAT WAT WAT WAT 
WAT WAT WAT WAT WAT WAT WAT WAT WAT WAT WAT WAT WAT WAT WAT WAT WAT WAT WAT WAT 
WAT WAT WAT WAT WAT WAT WAT WAT WAT WAT WAT WAT WAT WAT WAT WAT WAT WAT WAT WAT 
WAT WAT WAT WAT WAT WAT WAT WAT WAT WAT WAT WAT WAT WAT WAT WAT WAT WAT WAT WAT 
WAT WAT WAT WAT WAT WAT WAT WAT WAT WAT WAT WAT WAT WAT WAT WAT WAT WAT WAT WAT 
WAT WAT WAT WAT WAT WAT WAT WAT WAT WAT WAT WAT WAT WAT WAT WAT WAT WAT WAT WAT 
WAT WAT WAT WAT WAT WAT WAT WAT WAT WAT WAT WAT WAT WAT WAT WAT WAT WAT WAT WAT 
WAT WAT WAT WAT WAT WAT WAT WAT WAT WAT WAT WAT WAT WAT WAT WAT WAT WAT WAT WAT 
WAT WAT WAT WAT WAT WAT WAT WAT WAT WAT WAT WAT WAT WAT WAT WAT WAT WAT WAT WAT 
WAT WAT WAT WAT WAT WAT WAT WAT WAT WAT WAT WAT WAT WAT WAT WAT WAT WAT WAT WAT 
WAT WAT WAT WAT WAT WAT WAT WAT WAT WAT WAT WAT WAT WAT WAT WAT WAT WAT WAT WAT 
WAT WAT WAT WAT WAT WAT WAT WAT WAT WAT WAT WAT WAT WAT WAT WAT WAT WAT WAT WAT 
WAT WAT WAT WAT WAT WAT WAT WAT WAT WAT WAT WAT WAT WAT WAT WAT WAT WAT WAT WAT 
WAT WAT WAT WAT WAT WAT WAT WAT WAT WAT WAT WAT WAT WAT WAT WAT WAT WAT WAT WAT 
WAT WAT WAT WAT WAT WAT WAT WAT WAT WAT WAT WAT WAT WAT WAT WAT WAT WAT WAT WAT 
WAT WAT WAT WAT WAT WAT WAT WAT WAT WAT WAT WAT WAT WAT WAT WAT WAT WAT WAT WAT 
WAT WAT WAT WAT WAT WAT WAT WAT WAT WAT WAT WAT WAT WAT WAT WAT WAT WAT WAT WAT 
WAT WAT WAT WAT WAT WAT WAT WAT WAT WAT WAT WAT WAT WAT WAT WAT WAT WAT WAT WAT 
WAT WAT WAT WAT WAT WAT WAT WAT WAT WAT WAT WAT WAT WAT WAT WAT WAT WAT WAT WAT 
WAT WAT WAT WAT WAT WAT WAT WAT WAT WAT WAT WAT WAT WAT WAT WAT WAT WAT WAT WAT 
WAT WAT WAT WAT WAT WAT WAT WAT WAT WAT WAT WAT WAT WAT WAT WAT WAT WAT WAT WAT 
WAT WAT WAT WAT WAT WAT WAT WAT WAT WAT WAT WAT WAT WAT WAT WAT WAT WAT WAT WAT 
WAT WAT WAT WAT WAT WAT WAT WAT WAT WAT WAT WAT WAT WAT WAT WAT WAT WAT WAT WAT 
WAT WAT WAT WAT WAT WAT WAT WAT WAT WAT WAT WAT WAT WAT WAT WAT WAT WAT WAT WAT 
WAT WAT WAT WAT WAT WAT WAT WAT WAT WAT WAT WAT WAT WAT WAT WAT WAT WAT WAT WAT 
WAT WAT WAT WAT WAT WAT WAT WAT WAT WAT WAT WAT WAT WAT WAT WAT WAT WAT WAT WAT 
WAT WAT WAT WAT WAT WAT WAT WAT WAT WAT WAT WAT WAT WAT WAT WAT WAT WAT WAT WAT 
WAT WAT WAT WAT WAT WAT WAT WAT WAT WAT WAT WAT WAT WAT WAT WAT WAT WAT WAT WAT 
WAT WAT WAT WAT WAT WAT WAT WAT WAT WAT WAT WAT WAT WAT WAT WAT WAT WAT WAT WAT 
WAT WAT WAT WAT WAT WAT WAT WAT WAT WAT WAT WAT WAT WAT WAT WAT WAT WAT WAT WAT 
WAT WAT WAT WAT WAT WAT WAT WAT WAT WAT WAT WAT WAT WAT WAT WAT WAT WAT WAT WAT 
WAT WAT WAT WAT WAT WAT WAT WAT WAT WAT WAT WAT WAT WAT WAT WAT WAT WAT WAT WAT 
WAT WAT WAT WAT WAT WAT WAT WAT WAT WAT WAT WAT WAT WAT WAT WAT WAT WAT WAT WAT 
WAT WAT WAT WAT WAT WAT WAT WAT WAT WAT WAT WAT WAT WAT WAT WAT WAT WAT WAT WAT 
WAT WAT WAT WAT WAT WAT WAT WAT WAT WAT WAT WAT WAT WAT WAT WAT WAT WAT WAT WAT 
WAT WAT WAT WAT WAT WAT WAT WAT WAT WAT WAT WAT WAT WAT WAT WAT WAT WAT WAT WAT 
WAT WAT WAT WAT WAT WAT WAT WAT WAT WAT WAT WAT WAT WAT WAT WAT WAT WAT WAT WAT 
WAT WAT WAT WAT WAT WAT WAT WAT WAT WAT WAT WAT WAT WAT WAT WAT WAT WAT WAT WAT 
WAT WAT WAT WAT WAT WAT WAT WAT WAT WAT WAT WAT WAT WAT WAT WAT WAT WAT WAT WAT 
WAT WAT WAT WAT WAT WAT WAT WAT WAT WAT WAT WAT WAT WAT WAT WAT WAT WAT WAT WAT 
WAT WAT WAT WAT WAT WAT WAT WAT WAT WAT WAT WAT WAT WAT WAT WAT WAT WAT WAT WAT 
WAT WAT WAT WAT WAT WAT WAT WAT WAT WAT WAT WAT WAT WAT WAT WAT WAT WAT WAT WAT 
WAT WAT WAT WAT WAT WAT WAT WAT WAT WAT WAT WAT WAT WAT WAT WAT WAT WAT WAT WAT 
WAT WAT WAT WAT WAT WAT WAT WAT WAT WAT WAT WAT WAT WAT WAT WAT WAT WAT WAT WAT 
WAT WAT WAT WAT WAT WAT WAT WAT WAT WAT WAT WAT WAT WAT WAT WAT WAT WAT WAT WAT 
WAT WAT WAT WAT WAT WAT WAT WAT WAT WAT WAT WAT WAT WAT WAT WAT WAT WAT WAT WAT 
WAT WAT WAT WAT WAT WAT WAT WAT WAT WAT WAT WAT WAT WAT WAT WAT WAT WAT WAT WAT 
WAT WAT WAT WAT WAT WAT WAT WAT WAT WAT WAT WAT WAT WAT WAT WAT WAT WAT WAT WAT 
WAT WAT WAT WAT WAT WAT WAT WAT WAT WAT WAT WAT WAT WAT WAT WAT WAT WAT WAT WAT 
WAT WAT WAT WAT WAT WAT WAT WAT WAT WAT WAT WAT WAT WAT WAT WAT WAT WAT WAT WAT 
WAT WAT WAT WAT WAT WAT WAT WAT WAT WAT WAT WAT WAT WAT WAT WAT WAT WAT WAT WAT 
WAT WAT WAT WAT WAT WAT WAT WAT WAT WAT WAT WAT WAT WAT WAT WAT WAT WAT WAT WAT 
WAT WAT WAT WAT WAT WAT WAT WAT WAT WAT WAT WAT WAT WAT WAT WAT WAT WAT WAT WAT 
WAT WAT WAT WAT WAT WAT WAT WAT WAT WAT WAT WAT WAT WAT WAT WAT WAT WAT WAT WAT 
WAT WAT WAT WAT WAT WAT WAT WAT WAT WAT WAT WAT WAT WAT WAT WAT WAT WAT WAT WAT 
WAT WAT WAT WAT WAT WAT WAT WAT WAT WAT WAT WAT WAT WAT WAT WAT WAT WAT WAT WAT 
WAT WAT WAT WAT WAT WAT WAT WAT WAT WAT WAT WAT WAT WAT WAT WAT WAT WAT WAT WAT 
WAT WAT WAT WAT WAT WAT WAT WAT WAT WAT WAT WAT WAT WAT WAT WAT WAT WAT WAT WAT 
WAT WAT WAT WAT WAT WAT WAT WAT WAT WAT WAT WAT WAT WAT WAT WAT WAT WAT WAT WAT 
WAT WAT WAT WAT WAT WAT WAT WAT WAT WAT WAT WAT WAT WAT WAT WAT WAT WAT WAT WAT 
WAT WAT WAT WAT WAT WAT WAT WAT WAT WAT WAT WAT WAT WAT WAT WAT WAT WAT WAT WAT 
WAT WAT WAT WAT WAT WAT WAT WAT WAT WAT WAT WAT WAT WAT WAT WAT WAT WAT WAT WAT 
WAT WAT WAT WAT WAT WAT WAT WAT WAT WAT WAT WAT WAT WAT WAT WAT WAT WAT WAT WAT 
WAT WAT WAT WAT WAT WAT WAT WAT WAT WAT WAT WAT WAT WAT WAT WAT WAT WAT WAT WAT 
WAT WAT WAT WAT WAT WAT WAT WAT WAT WAT WAT WAT WAT WAT WAT WAT WAT WAT WAT WAT 
WAT WAT WAT WAT WAT WAT WAT WAT WAT WAT WAT WAT WAT WAT WAT WAT WAT WAT WAT WAT 
WAT WAT WAT WAT WAT WAT WAT WAT WAT WAT WAT WAT WAT WAT WAT WAT WAT WAT WAT WAT 
WAT WAT WAT WAT WAT WAT WAT WAT WAT WAT WAT WAT WAT WAT WAT WAT WAT WAT WAT WAT 
WAT WAT WAT WAT WAT WAT WAT WAT WAT WAT WAT WAT WAT WAT WAT WAT WAT WAT WAT WAT 
WAT WAT WAT WAT WAT WAT WAT WAT WAT WAT WAT WAT WAT WAT WAT WAT WAT WAT WAT WAT 
WAT WAT WAT WAT WAT WAT WAT WAT WAT WAT WAT WAT WAT WAT WAT WAT WAT WAT WAT WAT 
WAT WAT WAT WAT WAT WAT WAT WAT WAT WAT WAT WAT WAT WAT WAT WAT WAT WAT WAT WAT 
WAT WAT WAT WAT WAT WAT WAT WAT WAT WAT WAT WAT WAT WAT WAT WAT WAT WAT WAT WAT 
WAT WAT WAT WAT WAT WAT WAT WAT WAT WAT WAT WAT WAT WAT WAT WAT WAT WAT WAT WAT 
WAT WAT WAT WAT WAT WAT WAT WAT WAT WAT WAT WAT WAT WAT WAT WAT WAT WAT WAT WAT 
WAT WAT WAT WAT WAT WAT WAT WAT WAT WAT WAT WAT WAT WAT WAT WAT WAT WAT WAT WAT 
WAT WAT WAT WAT WAT WAT WAT WAT WAT WAT WAT WAT WAT WAT WAT WAT WAT WAT WAT WAT 
WAT WAT WAT WAT WAT WAT WAT WAT WAT WAT WAT WAT WAT WAT WAT WAT WAT WAT WAT WAT 
WAT WAT WAT WAT WAT WAT WAT WAT WAT WAT WAT WAT WAT WAT WAT WAT WAT WAT WAT WAT 
WAT WAT WAT WAT WAT WAT WAT WAT WAT WAT WAT WAT WAT WAT WAT WAT WAT WAT WAT WAT 
WAT WAT WAT WAT WAT WAT WAT WAT WAT WAT WAT WAT WAT WAT WAT WAT WAT WAT WAT WAT 
WAT WAT WAT WAT WAT WAT WAT WAT WAT WAT WAT WAT WAT WAT WAT WAT WAT WAT WAT WAT 
WAT WAT WAT WAT WAT WAT WAT WAT WAT WAT WAT WAT WAT WAT WAT WAT WAT WAT WAT WAT 
WAT WAT WAT WAT WAT WAT WAT WAT WAT WAT WAT WAT WAT WAT WAT WAT WAT WAT WAT WAT 
WAT WAT WAT WAT WAT WAT WAT WAT WAT WAT WAT WAT WAT WAT WAT WAT WAT WAT WAT WAT 
WAT WAT WAT WAT WAT WAT WAT WAT WAT WAT WAT WAT WAT WAT WAT WAT WAT WAT WAT WAT 
WAT WAT WAT WAT WAT WAT WAT WAT WAT WAT WAT WAT WAT WAT WAT WAT WAT WAT WAT WAT 
WAT WAT WAT WAT WAT WAT WAT WAT WAT WAT WAT WAT WAT WAT WAT WAT WAT WAT WAT WAT 
WAT WAT WAT WAT WAT WAT WAT WAT WAT WAT WAT WAT WAT WAT WAT WAT WAT WAT WAT WAT 
WAT WAT WAT WAT WAT WAT WAT WAT WAT WAT WAT WAT WAT WAT WAT WAT WAT WAT WAT WAT 
WAT WAT WAT WAT WAT WAT WAT WAT WAT WAT WAT WAT WAT WAT WAT WAT WAT WAT WAT WAT 
WAT WAT WAT WAT WAT WAT WAT WAT WAT WAT WAT WAT WAT WAT WAT WAT WAT WAT WAT WAT 
WAT WAT WAT WAT WAT WAT WAT WAT WAT WAT WAT WAT WAT WAT WAT WAT WAT WAT WAT WAT 
WAT WAT WAT WAT WAT WAT WAT WAT WAT WAT WAT WAT WAT WAT WAT WAT WAT WAT WAT WAT 
WAT WAT WAT WAT WAT WAT WAT WAT WAT WAT WAT WAT WAT WAT WAT WAT WAT WAT WAT WAT 
WAT WAT WAT WAT WAT WAT WAT WAT WAT WAT WAT WAT WAT WAT WAT WAT WAT WAT WAT WAT 
WAT WAT WAT WAT WAT WAT WAT WAT WAT WAT WAT WAT WAT WAT WAT WAT WAT WAT WAT WAT 
WAT WAT WAT WAT WAT WAT WAT WAT WAT WAT WAT WAT WAT WAT WAT WAT WAT WAT WAT WAT 
WAT WAT WAT WAT WAT WAT WAT WAT WAT WAT WAT WAT WAT WAT WAT WAT WAT WAT WAT WAT 
WAT WAT WAT WAT WAT WAT WAT WAT WAT WAT WAT WAT WAT WAT WAT WAT WAT WAT WAT WAT 
WAT WAT WAT WAT WAT WAT WAT WAT WAT WAT WAT WAT WAT WAT WAT WAT WAT WAT WAT WAT 
WAT WAT WAT WAT WAT WAT WAT WAT WAT WAT WAT WAT WAT WAT WAT WAT WAT WAT WAT WAT 
WAT WAT WAT WAT WAT WAT WAT WAT WAT WAT WAT WAT WAT WAT WAT WAT WAT WAT WAT WAT 
WAT WAT WAT WAT WAT WAT WAT WAT WAT WAT WAT WAT WAT WAT WAT WAT WAT WAT WAT WAT 
WAT WAT WAT WAT WAT WAT WAT WAT WAT WAT WAT WAT WAT WAT WAT WAT WAT WAT WAT WAT 
WAT WAT WAT WAT WAT WAT WAT WAT WAT WAT WAT WAT WAT WAT WAT WAT WAT WAT WAT WAT 
WAT WAT WAT WAT WAT WAT WAT WAT WAT WAT WAT WAT WAT WAT WAT WAT WAT WAT WAT WAT 
WAT WAT WAT WAT WAT WAT WAT WAT WAT WAT WAT WAT WAT WAT WAT WAT WAT WAT WAT WAT 
WAT WAT WAT WAT WAT WAT WAT WAT WAT WAT WAT WAT WAT WAT WAT WAT WAT WAT WAT WAT 
WAT WAT WAT WAT WAT WAT WAT WAT WAT WAT WAT WAT WAT WAT WAT WAT WAT WAT WAT WAT 
WAT WAT WAT WAT WAT WAT WAT WAT WAT WAT WAT WAT WAT WAT WAT WAT WAT WAT WAT WAT 
WAT WAT WAT WAT WAT WAT WAT WAT WAT WAT WAT WAT WAT WAT WAT WAT WAT WAT WAT WAT 
WAT WAT WAT WAT WAT WAT WAT WAT WAT WAT WAT WAT WAT WAT WAT WAT WAT WAT WAT WAT 
WAT WAT WAT WAT WAT WAT WAT WAT WAT WAT WAT WAT WAT WAT WAT WAT WAT WAT WAT WAT 
WAT WAT WAT WAT WAT WAT WAT WAT WAT WAT WAT WAT WAT WAT WAT WAT WAT WAT WAT WAT 
WAT WAT WAT WAT WAT WAT WAT WAT WAT WAT WAT WAT WAT WAT WAT WAT WAT WAT WAT WAT 
WAT WAT WAT WAT WAT WAT WAT WAT WAT WAT WAT WAT WAT WAT WAT WAT WAT WAT WAT WAT 
WAT WAT WAT WAT WAT WAT WAT WAT WAT WAT WAT WAT WAT WAT WAT WAT WAT WAT WAT WAT 
WAT WAT WAT WAT WAT WAT WAT WAT WAT WAT WAT WAT WAT WAT WAT WAT WAT WAT WAT WAT 
WAT WAT WAT WAT WAT WAT WAT WAT WAT WAT WAT WAT WAT WAT WAT WAT WAT WAT WAT WAT 
WAT WAT WAT WAT WAT WAT WAT WAT WAT WAT WAT WAT WAT WAT WAT WAT WAT WAT WAT WAT 
WAT WAT WAT WAT WAT WAT WAT WAT WAT WAT WAT WAT WAT WAT WAT WAT WAT WAT WAT WAT 
WAT WAT WAT WAT WAT WAT WAT WAT WAT WAT WAT WAT WAT WAT WAT WAT WAT WAT WAT WAT 
WAT WAT WAT WAT WAT WAT WAT WAT WAT WAT WAT WAT WAT WAT WAT WAT WAT WAT WAT WAT 
WAT WAT WAT WAT WAT WAT WAT WAT WAT WAT WAT WAT WAT WAT WAT WAT WAT WAT WAT WAT 
WAT WAT WAT WAT WAT WAT WAT WAT WAT WAT WAT WAT WAT WAT WAT WAT WAT WAT WAT WAT 
WAT WAT WAT WAT WAT WAT WAT WAT WAT WAT WAT WAT WAT WAT WAT WAT WAT WAT WAT WAT 
WAT WAT WAT WAT WAT WAT WAT WAT WAT WAT WAT WAT WAT WAT WAT WAT WAT WAT WAT WAT 
WAT WAT WAT WAT WAT WAT WAT WAT WAT WAT WAT WAT WAT WAT WAT WAT WAT WAT WAT WAT 
WAT WAT WAT WAT WAT WAT WAT WAT WAT WAT WAT WAT WAT WAT WAT WAT WAT WAT WAT WAT 
WAT WAT WAT WAT WAT WAT WAT WAT WAT WAT WAT WAT WAT WAT WAT WAT WAT WAT WAT WAT 
WAT WAT WAT WAT WAT WAT WAT WAT WAT WAT WAT WAT WAT WAT WAT WAT WAT WAT WAT WAT 
WAT WAT WAT WAT WAT WAT WAT WAT WAT WAT WAT WAT WAT WAT WAT WAT WAT WAT WAT WAT 
WAT WAT WAT WAT WAT WAT WAT WAT WAT WAT WAT WAT WAT WAT WAT WAT WAT WAT WAT WAT 
WAT WAT WAT WAT WAT WAT WAT WAT WAT WAT WAT WAT WAT WAT WAT WAT WAT WAT WAT WAT 
WAT WAT WAT WAT WAT WAT WAT WAT WAT WAT WAT WAT WAT WAT WAT WAT WAT WAT WAT WAT 
WAT WAT WAT WAT WAT WAT WAT WAT WAT WAT WAT WAT WAT WAT WAT WAT WAT WAT WAT WAT 
WAT WAT WAT WAT WAT WAT WAT WAT WAT WAT WAT WAT WAT WAT WAT WAT WAT WAT WAT WAT 
WAT WAT WAT WAT WAT WAT WAT WAT WAT WAT WAT WAT WAT WAT WAT WAT WAT WAT WAT WAT 
WAT WAT WAT WAT WAT WAT WAT WAT WAT WAT WAT WAT WAT WAT WAT WAT WAT WAT WAT WAT 
WAT WAT WAT WAT WAT WAT WAT WAT WAT WAT WAT WAT WAT WAT WAT WAT WAT WAT WAT WAT 
WAT WAT WAT WAT WAT WAT WAT WAT WAT WAT WAT WAT WAT WAT WAT WAT WAT WAT WAT WAT 
WAT WAT WAT WAT WAT WAT WAT WAT WAT WAT WAT WAT WAT WAT WAT WAT WAT WAT WAT WAT 
WAT WAT WAT WAT WAT WAT WAT WAT WAT WAT WAT WAT WAT WAT WAT WAT WAT WAT WAT WAT 
WAT WAT WAT WAT WAT WAT WAT WAT WAT WAT WAT WAT WAT WAT WAT WAT WAT WAT WAT WAT 
WAT WAT WAT WAT WAT WAT WAT WAT WAT WAT WAT WAT WAT WAT WAT WAT WAT WAT WAT WAT 
WAT WAT WAT WAT WAT WAT WAT WAT WAT WAT WAT WAT WAT WAT WAT WAT WAT WAT WAT WAT 
WAT WAT WAT WAT WAT WAT WAT WAT WAT WAT WAT WAT WAT WAT WAT WAT WAT WAT WAT WAT 
WAT WAT WAT WAT WAT WAT WAT WAT WAT WAT WAT WAT WAT WAT WAT WAT WAT WAT WAT WAT 
WAT WAT WAT WAT WAT WAT WAT WAT WAT WAT WAT WAT WAT WAT WAT WAT WAT WAT WAT WAT 
WAT WAT WAT WAT WAT WAT WAT WAT WAT WAT WAT WAT WAT WAT WAT WAT WAT WAT WAT WAT 
WAT WAT WAT WAT WAT WAT WAT WAT WAT WAT WAT WAT WAT WAT WAT WAT WAT WAT WAT WAT 
WAT WAT WAT WAT WAT WAT WAT WAT WAT WAT WAT WAT WAT WAT WAT WAT WAT WAT WAT WAT 
WAT WAT WAT WAT WAT WAT WAT WAT WAT WAT WAT WAT WAT WAT WAT WAT WAT WAT WAT WAT 
WAT WAT WAT WAT WAT WAT WAT WAT WAT WAT WAT WAT WAT WAT WAT WAT WAT WAT WAT WAT 
WAT WAT WAT WAT WAT WAT WAT WAT WAT WAT WAT WAT WAT WAT WAT WAT WAT WAT WAT WAT 
WAT WAT WAT WAT WAT WAT WAT WAT WAT WAT WAT WAT WAT WAT WAT WAT WAT WAT WAT WAT 
WAT WAT WAT WAT WAT WAT WAT WAT WAT WAT WAT WAT WAT WAT WAT WAT WAT WAT WAT WAT 
WAT WAT WAT WAT WAT WAT WAT WAT WAT WAT WAT WAT WAT WAT WAT WAT WAT WAT WAT WAT 
WAT WAT WAT WAT WAT WAT WAT WAT WAT WAT WAT WAT WAT WAT WAT WAT WAT WAT WAT WAT 
WAT WAT WAT WAT WAT WAT WAT WAT WAT WAT WAT WAT WAT WAT WAT WAT WAT WAT WAT WAT 
WAT WAT WAT WAT WAT WAT WAT WAT WAT WAT WAT WAT WAT WAT WAT WAT WAT WAT WAT WAT 
WAT WAT WAT WAT WAT WAT WAT WAT WAT WAT WAT WAT WAT WAT WAT WAT WAT WAT WAT WAT 
WAT WAT WAT WAT WAT WAT WAT WAT WAT WAT WAT WAT WAT WAT WAT WAT WAT WAT WAT WAT 
WAT WAT WAT WAT WAT WAT WAT WAT WAT WAT WAT WAT WAT WAT WAT WAT WAT WAT WAT WAT 
WAT WAT WAT WAT WAT WAT WAT WAT WAT WAT WAT WAT WAT WAT WAT WAT WAT WAT WAT WAT 
WAT WAT WAT WAT WAT WAT WAT WAT WAT WAT WAT WAT WAT WAT WAT WAT WAT WAT WAT WAT 
WAT WAT WAT WAT WAT WAT WAT WAT WAT WAT WAT WAT WAT WAT WAT WAT WAT WAT WAT WAT 
WAT WAT WAT WAT WAT WAT WAT WAT WAT WAT WAT WAT WAT WAT WAT WAT WAT WAT WAT WAT 
WAT WAT WAT WAT WAT WAT WAT WAT WAT WAT WAT WAT WAT WAT WAT WAT WAT WAT WAT WAT 
WAT WAT WAT WAT WAT WAT WAT WAT WAT WAT WAT WAT WAT WAT WAT WAT WAT WAT WAT WAT 
WAT WAT WAT WAT WAT WAT WAT WAT WAT WAT WAT WAT WAT WAT WAT WAT WAT WAT WAT WAT 
WAT WAT WAT WAT WAT WAT WAT WAT WAT WAT WAT WAT WAT WAT WAT WAT WAT WAT WAT WAT 
WAT WAT WAT WAT WAT WAT WAT WAT WAT WAT WAT WAT WAT WAT WAT WAT WAT WAT WAT WAT 
WAT WAT WAT WAT WAT WAT WAT WAT WAT WAT WAT WAT WAT WAT WAT WAT WAT WAT WAT WAT 
WAT WAT WAT WAT WAT WAT WAT WAT WAT WAT WAT WAT WAT WAT WAT WAT WAT WAT WAT WAT 
WAT WAT WAT WAT WAT WAT WAT WAT WAT WAT WAT WAT WAT WAT WAT WAT WAT WAT WAT WAT 
WAT WAT WAT WAT WAT WAT WAT WAT WAT WAT WAT WAT WAT WAT WAT WAT WAT WAT WAT WAT 
WAT WAT WAT WAT WAT WAT WAT WAT WAT WAT WAT WAT WAT WAT WAT WAT WAT WAT WAT WAT 
WAT WAT WAT WAT WAT WAT WAT WAT WAT WAT WAT WAT WAT WAT WAT WAT WAT WAT WAT WAT 
WAT WAT WAT WAT WAT WAT WAT WAT WAT WAT WAT WAT WAT WAT WAT WAT WAT WAT WAT WAT 
WAT WAT WAT WAT WAT WAT WAT WAT WAT WAT WAT WAT WAT WAT WAT WAT WAT WAT WAT WAT 
WAT WAT WAT WAT WAT WAT WAT WAT WAT WAT WAT WAT WAT WAT WAT WAT WAT WAT WAT WAT 
WAT WAT WAT WAT WAT WAT WAT WAT WAT WAT WAT WAT WAT WAT WAT WAT WAT WAT WAT WAT 
WAT WAT WAT WAT WAT WAT WAT WAT WAT WAT WAT WAT WAT WAT WAT WAT WAT WAT WAT WAT 
WAT WAT WAT WAT WAT WAT WAT WAT WAT WAT WAT WAT WAT WAT WAT WAT WAT WAT WAT WAT 
WAT WAT WAT WAT WAT WAT WAT WAT WAT WAT WAT WAT WAT WAT WAT WAT WAT WAT WAT WAT 
WAT WAT WAT WAT WAT WAT WAT WAT WAT WAT WAT WAT WAT WAT WAT WAT WAT WAT WAT WAT 
WAT WAT WAT WAT WAT WAT WAT WAT WAT WAT WAT WAT WAT WAT WAT WAT WAT WAT WAT WAT 
WAT WAT WAT WAT WAT WAT WAT WAT WAT WAT WAT WAT WAT WAT WAT WAT WAT WAT WAT WAT 
WAT WAT WAT WAT WAT WAT WAT WAT WAT WAT WAT WAT WAT WAT WAT WAT WAT WAT WAT WAT 
WAT WAT WAT WAT WAT WAT WAT WAT WAT WAT WAT WAT WAT WAT WAT WAT WAT WAT WAT WAT 
WAT WAT WAT WAT WAT WAT WAT WAT WAT WAT WAT WAT WAT WAT WAT WAT WAT WAT WAT WAT 
WAT WAT WAT WAT WAT WAT WAT WAT WAT WAT WAT WAT WAT WAT WAT WAT WAT WAT WAT WAT 
WAT WAT WAT WAT WAT WAT WAT WAT WAT WAT WAT WAT WAT WAT WAT WAT WAT WAT WAT WAT 
WAT WAT WAT WAT WAT WAT WAT WAT WAT WAT WAT WAT WAT WAT WAT WAT WAT WAT WAT WAT 
WAT WAT WAT WAT WAT WAT WAT WAT WAT WAT WAT WAT WAT WAT WAT WAT WAT WAT WAT WAT 
WAT WAT WAT WAT WAT WAT WAT WAT WAT WAT WAT WAT WAT WAT WAT WAT WAT WAT WAT WAT 
WAT WAT WAT WAT WAT WAT WAT WAT WAT WAT WAT WAT WAT WAT WAT WAT WAT WAT WAT WAT 
WAT WAT WAT WAT WAT WAT WAT WAT WAT WAT WAT WAT WAT WAT WAT WAT WAT WAT WAT WAT 
WAT WAT WAT WAT WAT WAT WAT WAT WAT WAT WAT WAT WAT WAT WAT WAT WAT WAT WAT WAT 
WAT WAT WAT WAT WAT WAT WAT WAT WAT WAT WAT WAT WAT WAT WAT WAT WAT WAT WAT WAT 
WAT WAT WAT WAT WAT WAT WAT WAT WAT WAT WAT WAT WAT WAT WAT WAT WAT WAT WAT WAT 
WAT WAT WAT WAT WAT WAT WAT WAT WAT WAT WAT WAT WAT WAT WAT WAT WAT WAT WAT WAT 
WAT WAT WAT WAT WAT WAT WAT WAT WAT WAT WAT WAT WAT WAT WAT WAT WAT WAT WAT WAT 
WAT WAT WAT WAT WAT WAT WAT WAT WAT WAT WAT WAT WAT WAT WAT WAT WAT WAT WAT WAT 
WAT WAT WAT WAT WAT WAT WAT WAT WAT WAT WAT WAT WAT WAT WAT WAT WAT WAT WAT WAT 
WAT WAT WAT WAT WAT WAT WAT WAT WAT WAT WAT WAT WAT WAT WAT WAT WAT WAT WAT WAT 
WAT WAT WAT WAT WAT WAT WAT WAT WAT WAT WAT WAT WAT WAT WAT WAT WAT WAT WAT WAT 
WAT WAT WAT WAT WAT WAT WAT WAT WAT WAT WAT WAT WAT WAT WAT WAT WAT WAT WAT WAT 
WAT WAT WAT WAT WAT WAT WAT WAT WAT WAT WAT WAT WAT WAT WAT WAT WAT WAT WAT WAT 
WAT WAT WAT WAT WAT WAT WAT WAT WAT WAT WAT WAT WAT WAT WAT WAT WAT WAT WAT WAT 
WAT WAT WAT WAT WAT WAT WAT WAT WAT WAT WAT WAT WAT WAT WAT WAT WAT WAT WAT WAT 
WAT WAT WAT WAT WAT WAT WAT WAT WAT WAT WAT WAT WAT WAT WAT WAT WAT WAT WAT WAT 
WAT WAT WAT WAT WAT WAT WAT WAT WAT WAT WAT WAT WAT WAT WAT WAT WAT WAT WAT WAT 
WAT WAT WAT WAT WAT WAT WAT WAT WAT WAT WAT WAT WAT WAT WAT WAT WAT WAT WAT WAT 
WAT WAT WAT WAT WAT WAT WAT WAT WAT WAT WAT WAT WAT WAT WAT WAT WAT WAT WAT WAT 
WAT WAT WAT WAT WAT WAT WAT WAT WAT WAT WAT WAT WAT WAT WAT WAT WAT WAT WAT WAT 
WAT WAT WAT WAT WAT WAT WAT WAT WAT WAT WAT WAT WAT WAT WAT WAT WAT WAT WAT WAT 
WAT WAT WAT WAT WAT WAT WAT WAT WAT WAT WAT WAT WAT WAT WAT WAT WAT WAT WAT WAT 
WAT WAT WAT WAT WAT WAT WAT WAT WAT WAT WAT WAT WAT WAT WAT WAT WAT WAT WAT WAT 
WAT WAT WAT WAT WAT WAT WAT WAT WAT WAT WAT WAT WAT WAT WAT WAT WAT WAT WAT WAT 
WAT WAT WAT WAT WAT WAT WAT WAT WAT WAT WAT WAT WAT WAT WAT WAT WAT WAT WAT WAT 
WAT WAT WAT WAT WAT WAT WAT WAT WAT WAT WAT WAT WAT WAT WAT WAT WAT WAT WAT WAT 
WAT WAT WAT WAT WAT WAT WAT WAT WAT WAT WAT WAT WAT WAT WAT WAT WAT WAT WAT WAT 
WAT WAT WAT WAT WAT WAT WAT WAT WAT WAT WAT WAT WAT WAT WAT WAT WAT WAT WAT WAT 
WAT WAT WAT WAT WAT WAT WAT WAT WAT WAT WAT WAT WAT WAT WAT WAT WAT WAT WAT WAT 
WAT WAT WAT WAT WAT WAT WAT WAT WAT WAT WAT WAT WAT WAT WAT WAT WAT WAT WAT WAT 
WAT WAT WAT WAT WAT WAT WAT WAT WAT WAT WAT WAT WAT WAT WAT WAT WAT WAT WAT WAT 
WAT WAT WAT WAT WAT WAT WAT WAT WAT WAT WAT WAT WAT WAT WAT WAT WAT WAT WAT WAT 
WAT WAT WAT WAT WAT WAT WAT WAT WAT WAT WAT WAT WAT WAT WAT WAT WAT WAT WAT WAT 
WAT WAT WAT WAT WAT WAT WAT WAT WAT WAT WAT WAT WAT WAT WAT WAT WAT WAT WAT WAT 
WAT WAT WAT WAT WAT WAT WAT WAT WAT WAT WAT WAT WAT WAT WAT WAT WAT WAT WAT WAT 
WAT WAT WAT WAT WAT WAT WAT WAT WAT WAT WAT WAT WAT WAT WAT WAT WAT WAT WAT WAT 
WAT WAT WAT WAT WAT WAT WAT WAT WAT WAT WAT WAT WAT WAT WAT WAT WAT WAT WAT WAT 
WAT WAT WAT WAT WAT WAT WAT WAT WAT WAT WAT WAT WAT WAT WAT WAT WAT WAT WAT WAT 
WAT WAT WAT WAT WAT WAT WAT WAT WAT WAT WAT WAT WAT WAT WAT WAT WAT WAT WAT WAT 
WAT WAT WAT WAT WAT WAT WAT WAT WAT WAT WAT WAT WAT WAT WAT WAT WAT WAT WAT WAT 
WAT WAT WAT WAT WAT WAT WAT WAT WAT WAT WAT WAT WAT WAT WAT WAT WAT WAT WAT WAT 
WAT WAT WAT WAT WAT WAT WAT WAT WAT WAT WAT WAT WAT WAT WAT WAT WAT WAT WAT WAT 
WAT WAT WAT WAT WAT WAT WAT WAT WAT WAT WAT WAT WAT WAT WAT WAT WAT WAT WAT WAT 
WAT WAT WAT WAT WAT WAT WAT WAT WAT WAT WAT WAT WAT WAT WAT WAT WAT WAT WAT WAT 
WAT WAT WAT WAT WAT WAT WAT WAT WAT WAT WAT WAT WAT WAT WAT WAT WAT WAT WAT WAT 
WAT WAT WAT WAT WAT WAT WAT WAT WAT WAT WAT WAT WAT WAT WAT WAT WAT WAT WAT WAT 
WAT WAT WAT WAT WAT WAT WAT WAT WAT WAT WAT WAT WAT WAT WAT WAT WAT WAT WAT WAT 
WAT WAT WAT WAT WAT WAT WAT WAT WAT WAT WAT WAT WAT WAT WAT WAT WAT WAT WAT WAT 
WAT WAT WAT WAT WAT WAT WAT WAT WAT WAT WAT WAT WAT WAT WAT WAT WAT WAT WAT WAT 
WAT WAT WAT WAT WAT WAT WAT WAT WAT WAT WAT WAT WAT WAT WAT WAT WAT WAT WAT WAT 
WAT WAT WAT WAT WAT WAT WAT WAT WAT WAT WAT WAT WAT WAT WAT WAT WAT WAT WAT WAT 
WAT WAT WAT WAT WAT WAT WAT WAT WAT WAT WAT WAT WAT WAT WAT WAT WAT WAT WAT WAT 
WAT WAT WAT WAT WAT WAT WAT WAT WAT WAT WAT WAT WAT WAT WAT WAT WAT WAT WAT WAT 
WAT WAT WAT WAT WAT WAT WAT WAT WAT WAT WAT WAT WAT WAT WAT WAT WAT WAT WAT WAT 
WAT WAT WAT WAT WAT WAT WAT WAT WAT WAT WAT WAT WAT WAT WAT WAT WAT WAT WAT WAT 
WAT WAT WAT WAT WAT WAT WAT WAT WAT WAT WAT WAT WAT WAT WAT WAT WAT WAT WAT WAT 
WAT WAT WAT WAT WAT WAT WAT WAT WAT WAT WAT WAT WAT WAT WAT WAT WAT WAT WAT WAT 
WAT WAT WAT WAT WAT WAT WAT WAT WAT WAT WAT WAT WAT WAT WAT WAT WAT WAT WAT WAT 
WAT WAT WAT WAT WAT WAT WAT WAT WAT WAT WAT WAT WAT WAT WAT WAT WAT WAT WAT WAT 
WAT WAT WAT WAT WAT WAT WAT WAT WAT WAT WAT WAT WAT WAT WAT WAT WAT WAT WAT WAT 
WAT WAT WAT WAT WAT WAT WAT WAT WAT WAT WAT WAT WAT WAT WAT WAT WAT WAT WAT WAT 
WAT WAT WAT WAT WAT WAT WAT WAT WAT WAT WAT WAT WAT WAT WAT WAT WAT WAT WAT WAT 
WAT WAT WAT WAT WAT WAT WAT WAT WAT WAT WAT WAT WAT WAT WAT WAT WAT WAT WAT WAT 
WAT WAT WAT WAT WAT WAT WAT WAT WAT WAT WAT WAT WAT WAT WAT WAT WAT WAT WAT WAT 
WAT WAT WAT WAT WAT WAT WAT WAT WAT WAT WAT WAT WAT WAT WAT WAT WAT WAT WAT WAT 
WAT WAT WAT WAT WAT WAT WAT WAT WAT WAT WAT WAT WAT WAT WAT WAT WAT WAT WAT WAT 
WAT WAT WAT WAT WAT WAT WAT WAT WAT WAT WAT WAT WAT WAT WAT WAT WAT WAT WAT WAT 
WAT WAT WAT WAT WAT WAT WAT WAT WAT WAT WAT WAT WAT WAT WAT WAT WAT WAT WAT WAT 
WAT WAT WAT WAT WAT WAT WAT WAT WAT WAT WAT WAT WAT WAT WAT WAT WAT WAT WAT WAT 
WAT WAT WAT WAT WAT WAT WAT WAT WAT WAT WAT WAT WAT WAT WAT WAT WAT WAT WAT WAT 
WAT WAT WAT WAT WAT WAT WAT WAT WAT WAT WAT WAT WAT WAT WAT WAT WAT WAT WAT WAT 
WAT WAT WAT WAT WAT WAT WAT WAT WAT WAT WAT WAT WAT WAT WAT WAT WAT WAT WAT WAT 
WAT WAT WAT WAT WAT WAT WAT WAT WAT WAT WAT WAT WAT WAT WAT WAT WAT WAT WAT WAT 
WAT WAT WAT WAT WAT WAT WAT WAT WAT WAT WAT WAT WAT WAT WAT WAT WAT WAT WAT WAT 
WAT WAT WAT WAT WAT WAT WAT WAT WAT WAT WAT WAT WAT WAT WAT WAT WAT WAT WAT WAT 
WAT WAT WAT WAT WAT WAT WAT WAT WAT WAT WAT WAT WAT WAT WAT WAT WAT WAT WAT WAT 
WAT WAT WAT WAT WAT WAT WAT WAT WAT WAT WAT WAT WAT WAT WAT WAT WAT WAT WAT WAT 
WAT WAT WAT WAT WAT WAT WAT WAT WAT WAT WAT WAT WAT WAT WAT WAT WAT WAT WAT WAT 
WAT WAT WAT WAT WAT WAT WAT WAT WAT WAT WAT WAT WAT WAT WAT WAT WAT WAT WAT WAT 
WAT WAT WAT WAT WAT WAT WAT WAT WAT WAT WAT WAT WAT WAT WAT WAT WAT WAT WAT WAT 
WAT WAT WAT WAT WAT WAT WAT WAT WAT WAT WAT WAT WAT WAT WAT WAT WAT WAT WAT WAT 
WAT WAT WAT WAT WAT WAT WAT WAT WAT WAT WAT WAT WAT WAT WAT WAT WAT WAT WAT WAT 
WAT WAT WAT WAT WAT WAT WAT WAT WAT WAT WAT WAT WAT WAT WAT WAT WAT WAT WAT WAT 
WAT WAT WAT WAT WAT WAT WAT WAT WAT WAT WAT WAT WAT WAT WAT WAT WAT WAT WAT WAT 
WAT WAT WAT WAT WAT WAT WAT WAT WAT WAT WAT WAT WAT WAT WAT WAT WAT WAT WAT WAT 
WAT WAT WAT WAT WAT WAT WAT WAT WAT WAT WAT WAT WAT WAT WAT WAT WAT WAT WAT WAT 
WAT WAT WAT WAT WAT WAT WAT WAT WAT WAT WAT WAT WAT WAT WAT WAT WAT WAT WAT WAT 
WAT WAT WAT WAT WAT WAT WAT WAT WAT WAT WAT WAT WAT WAT WAT WAT WAT WAT WAT WAT 
WAT WAT WAT WAT WAT WAT WAT WAT WAT WAT WAT WAT WAT WAT WAT WAT WAT WAT WAT WAT 
WAT WAT WAT WAT WAT WAT WAT WAT WAT WAT WAT WAT WAT WAT WAT WAT WAT WAT WAT WAT 
WAT WAT WAT WAT WAT WAT WAT WAT WAT WAT WAT WAT WAT WAT WAT WAT WAT WAT WAT WAT 
WAT WAT WAT WAT WAT WAT WAT WAT WAT WAT WAT WAT WAT WAT WAT WAT WAT WAT WAT WAT 
WAT WAT WAT WAT WAT WAT WAT WAT WAT WAT WAT WAT WAT WAT WAT WAT WAT WAT WAT WAT 
WAT WAT WAT WAT WAT WAT WAT WAT WAT WAT WAT WAT WAT WAT WAT WAT WAT WAT WAT WAT 
WAT WAT WAT WAT WAT WAT WAT WAT WAT WAT WAT WAT WAT WAT WAT WAT WAT WAT WAT WAT 
WAT WAT WAT WAT WAT WAT WAT WAT WAT WAT WAT WAT WAT WAT WAT WAT WAT WAT WAT WAT 
WAT WAT WAT WAT WAT WAT WAT WAT WAT WAT WAT WAT WAT WAT WAT WAT WAT WAT WAT WAT 
WAT WAT WAT WAT WAT WAT WAT WAT WAT WAT WAT WAT WAT WAT WAT WAT WAT WAT WAT WAT 
WAT WAT WAT WAT WAT WAT WAT WAT WAT WAT WAT WAT WAT WAT WAT WAT WAT WAT WAT WAT 
WAT WAT WAT WAT WAT WAT WAT WAT WAT WAT WAT WAT WAT WAT WAT WAT WAT WAT WAT WAT 
WAT WAT WAT WAT WAT WAT WAT WAT WAT WAT WAT WAT WAT WAT WAT WAT WAT WAT WAT WAT 
WAT WAT WAT WAT WAT WAT WAT WAT WAT WAT WAT WAT WAT WAT WAT WAT WAT WAT WAT WAT 
WAT WAT WAT WAT WAT WAT WAT WAT WAT WAT WAT WAT WAT WAT WAT WAT WAT WAT WAT WAT 
WAT WAT WAT WAT WAT WAT WAT WAT WAT WAT WAT WAT WAT WAT WAT WAT WAT WAT WAT WAT 
WAT WAT WAT WAT WAT WAT WAT WAT WAT WAT WAT WAT WAT WAT WAT WAT WAT WAT WAT WAT 
WAT WAT WAT WAT WAT WAT WAT WAT WAT WAT WAT WAT WAT WAT WAT WAT WAT WAT WAT WAT 
WAT WAT WAT WAT WAT WAT WAT WAT WAT WAT WAT WAT WAT WAT WAT WAT WAT WAT WAT WAT 
WAT WAT WAT WAT WAT WAT WAT WAT WAT WAT WAT WAT WAT WAT WAT WAT WAT WAT WAT WAT 
WAT WAT WAT WAT WAT WAT WAT WAT WAT WAT WAT WAT WAT WAT WAT WAT WAT WAT WAT WAT 
WAT WAT WAT WAT WAT WAT WAT WAT WAT WAT WAT WAT WAT WAT WAT WAT WAT WAT WAT WAT 
WAT WAT WAT WAT WAT WAT WAT WAT WAT WAT WAT WAT WAT WAT WAT WAT WAT WAT WAT WAT 
WAT WAT WAT WAT WAT WAT WAT WAT WAT WAT WAT WAT WAT WAT WAT WAT WAT WAT WAT WAT 
WAT WAT WAT WAT WAT WAT WAT WAT WAT WAT WAT WAT WAT WAT WAT WAT WAT WAT WAT WAT 
WAT WAT WAT WAT WAT WAT WAT WAT WAT WAT WAT WAT WAT WAT WAT WAT WAT WAT WAT WAT 
WAT WAT WAT WAT WAT WAT WAT WAT WAT WAT WAT WAT WAT WAT WAT WAT WAT WAT WAT WAT 
WAT WAT WAT WAT WAT WAT WAT WAT WAT WAT WAT WAT WAT WAT WAT WAT WAT WAT WAT WAT 
WAT WAT WAT WAT WAT WAT WAT WAT WAT WAT WAT WAT WAT WAT WAT WAT WAT WAT WAT WAT 
WAT WAT WAT WAT WAT WAT WAT WAT WAT WAT WAT WAT WAT WAT WAT WAT WAT WAT WAT WAT 
WAT WAT WAT WAT WAT WAT WAT WAT WAT WAT WAT WAT WAT WAT WAT WAT WAT WAT WAT WAT 
WAT WAT WAT WAT WAT WAT WAT WAT WAT WAT WAT WAT WAT WAT WAT WAT WAT WAT WAT WAT 
WAT WAT WAT WAT WAT WAT WAT WAT WAT WAT WAT WAT WAT WAT WAT WAT WAT WAT WAT WAT 
WAT WAT WAT WAT WAT WAT WAT WAT WAT WAT WAT WAT WAT WAT WAT WAT WAT WAT WAT WAT 
WAT WAT WAT WAT WAT WAT WAT WAT WAT WAT WAT WAT WAT WAT WAT WAT WAT WAT WAT WAT 
WAT WAT WAT WAT WAT WAT WAT WAT WAT WAT WAT WAT WAT WAT WAT WAT WAT WAT WAT WAT 
WAT WAT WAT WAT WAT WAT WAT WAT WAT WAT WAT WAT WAT WAT WAT WAT WAT WAT WAT WAT 
WAT WAT WAT WAT WAT WAT WAT WAT WAT WAT WAT WAT WAT WAT WAT WAT WAT WAT WAT WAT 
WAT WAT WAT WAT WAT WAT WAT WAT WAT WAT WAT WAT WAT WAT WAT WAT WAT WAT WAT WAT 
WAT WAT WAT WAT WAT WAT WAT WAT WAT WAT WAT WAT WAT WAT WAT WAT WAT WAT WAT WAT 
WAT WAT WAT WAT WAT WAT WAT WAT WAT WAT WAT WAT WAT WAT WAT WAT WAT WAT WAT WAT 
WAT WAT WAT WAT WAT WAT WAT WAT WAT WAT WAT WAT WAT WAT WAT WAT WAT WAT WAT WAT 
WAT WAT WAT WAT WAT WAT WAT WAT WAT WAT WAT WAT WAT WAT WAT WAT WAT WAT WAT WAT 
WAT WAT WAT WAT WAT WAT WAT WAT WAT WAT WAT WAT WAT WAT WAT WAT WAT WAT WAT WAT 
WAT WAT WAT WAT WAT WAT WAT WAT WAT WAT WAT WAT WAT WAT WAT WAT WAT WAT WAT WAT 
WAT WAT WAT WAT WAT WAT WAT WAT WAT WAT WAT WAT WAT WAT WAT WAT WAT WAT WAT WAT 
WAT WAT WAT WAT WAT WAT WAT WAT WAT WAT WAT WAT WAT WAT WAT WAT WAT WAT WAT WAT 
WAT WAT WAT WAT WAT WAT WAT WAT WAT WAT WAT WAT WAT WAT WAT WAT WAT WAT WAT WAT 
WAT WAT WAT WAT WAT WAT WAT WAT WAT WAT WAT WAT WAT WAT WAT WAT WAT WAT WAT WAT 
WAT WAT WAT WAT WAT WAT WAT WAT WAT WAT WAT WAT WAT WAT WAT WAT WAT WAT WAT WAT 
WAT WAT WAT WAT WAT WAT WAT WAT WAT WAT WAT WAT WAT WAT WAT WAT WAT WAT WAT WAT 
WAT WAT WAT WAT WAT WAT WAT WAT WAT WAT WAT WAT WAT WAT WAT WAT WAT WAT WAT WAT 
WAT WAT WAT WAT WAT WAT WAT WAT WAT WAT WAT WAT WAT WAT WAT WAT WAT WAT WAT WAT 
WAT WAT WAT WAT WAT WAT WAT WAT WAT WAT WAT WAT WAT WAT WAT WAT WAT WAT WAT WAT 
WAT WAT WAT WAT WAT WAT WAT WAT WAT WAT WAT WAT WAT WAT WAT WAT WAT WAT WAT WAT 
WAT WAT WAT WAT WAT WAT WAT WAT WAT WAT WAT WAT WAT WAT WAT WAT WAT WAT WAT WAT 
WAT WAT WAT WAT WAT WAT WAT WAT WAT WAT WAT WAT WAT WAT WAT WAT WAT WAT WAT WAT 
WAT WAT WAT WAT WAT WAT WAT WAT WAT WAT WAT WAT WAT WAT WAT WAT WAT WAT WAT WAT 
WAT WAT WAT WAT WAT WAT WAT WAT WAT WAT WAT WAT WAT WAT WAT WAT WAT WAT WAT WAT 
WAT WAT WAT WAT WAT WAT WAT WAT WAT WAT WAT WAT WAT WAT WAT WAT WAT WAT WAT WAT 
WAT WAT WAT WAT WAT WAT WAT WAT WAT WAT WAT WAT WAT WAT WAT WAT WAT WAT WAT WAT 
WAT WAT WAT WAT WAT WAT WAT WAT WAT WAT WAT WAT WAT WAT WAT WAT WAT WAT WAT WAT 
WAT WAT WAT WAT WAT WAT WAT WAT WAT WAT WAT WAT WAT WAT WAT WAT WAT WAT WAT WAT 
WAT WAT WAT WAT WAT WAT WAT WAT WAT WAT WAT WAT WAT WAT WAT WAT WAT WAT WAT WAT 
WAT WAT WAT WAT WAT WAT WAT WAT WAT WAT WAT WAT WAT WAT WAT WAT WAT WAT WAT WAT 
WAT WAT WAT WAT WAT WAT WAT WAT WAT WAT WAT WAT WAT WAT WAT WAT WAT WAT WAT WAT 
WAT WAT WAT WAT WAT WAT WAT WAT WAT WAT WAT WAT WAT WAT WAT WAT WAT WAT WAT WAT 
WAT WAT WAT WAT WAT WAT WAT WAT WAT WAT WAT WAT WAT WAT WAT WAT WAT WAT WAT WAT 
WAT WAT WAT WAT WAT WAT WAT WAT WAT WAT WAT WAT WAT WAT WAT WAT WAT WAT WAT WAT 
WAT WAT WAT WAT WAT WAT WAT WAT WAT WAT WAT WAT WAT WAT WAT WAT WAT WAT WAT WAT 
WAT WAT WAT WAT WAT WAT WAT WAT WAT WAT WAT WAT WAT WAT WAT WAT WAT WAT WAT WAT 
WAT WAT WAT WAT WAT WAT WAT WAT WAT WAT WAT WAT WAT WAT WAT WAT WAT WAT WAT WAT 
WAT WAT WAT WAT WAT WAT WAT WAT WAT WAT WAT WAT WAT WAT WAT WAT WAT WAT WAT WAT 
WAT WAT WAT WAT WAT WAT WAT WAT WAT WAT WAT WAT WAT WAT WAT WAT WAT WAT WAT WAT 
WAT WAT WAT WAT WAT WAT WAT WAT WAT WAT WAT WAT WAT WAT WAT WAT WAT WAT WAT WAT 
WAT WAT WAT WAT WAT WAT WAT WAT WAT WAT WAT WAT WAT WAT WAT WAT WAT WAT WAT WAT 
WAT WAT WAT WAT WAT WAT WAT WAT WAT WAT WAT WAT WAT WAT WAT WAT WAT WAT WAT WAT 
WAT WAT WAT WAT WAT WAT WAT WAT WAT WAT WAT WAT WAT WAT WAT WAT WAT WAT WAT WAT 
WAT WAT WAT WAT WAT WAT WAT WAT WAT WAT WAT WAT WAT WAT WAT WAT WAT WAT WAT WAT 
WAT WAT WAT WAT WAT WAT WAT WAT WAT WAT WAT WAT WAT WAT WAT WAT WAT WAT WAT WAT 
WAT WAT WAT WAT WAT WAT WAT WAT WAT WAT WAT WAT WAT WAT WAT WAT WAT WAT WAT WAT 
WAT WAT WAT WAT WAT WAT WAT WAT WAT WAT WAT WAT WAT WAT WAT WAT WAT WAT WAT WAT 
WAT WAT WAT WAT WAT WAT WAT WAT WAT WAT WAT WAT WAT WAT WAT WAT WAT WAT WAT WAT 
WAT WAT WAT WAT WAT WAT WAT WAT WAT WAT WAT WAT WAT WAT WAT WAT WAT WAT WAT WAT 
WAT WAT WAT WAT WAT WAT WAT WAT WAT WAT WAT WAT WAT WAT WAT WAT WAT WAT WAT WAT 
WAT WAT WAT WAT WAT WAT WAT WAT WAT WAT WAT WAT WAT WAT WAT WAT WAT WAT WAT WAT 
WAT WAT WAT WAT WAT WAT WAT WAT WAT WAT WAT WAT WAT WAT WAT WAT WAT WAT WAT WAT 
WAT WAT WAT WAT WAT WAT WAT WAT WAT WAT WAT WAT WAT WAT WAT WAT WAT WAT WAT WAT 
WAT WAT WAT WAT WAT WAT WAT WAT WAT WAT WAT WAT WAT WAT WAT WAT WAT WAT WAT WAT 
WAT WAT WAT WAT WAT WAT WAT WAT WAT WAT WAT WAT WAT WAT WAT WAT WAT WAT WAT WAT 
WAT WAT WAT WAT WAT WAT WAT WAT WAT WAT WAT WAT WAT WAT WAT WAT WAT WAT WAT WAT 
WAT WAT WAT WAT WAT WAT WAT WAT WAT WAT WAT WAT WAT WAT WAT WAT WAT WAT WAT WAT 
WAT WAT WAT WAT WAT WAT WAT WAT WAT WAT WAT WAT WAT WAT WAT WAT WAT WAT WAT WAT 
WAT WAT WAT WAT WAT WAT WAT WAT WAT WAT WAT WAT WAT WAT WAT WAT WAT WAT WAT WAT 
WAT WAT WAT WAT WAT WAT WAT WAT WAT WAT WAT WAT WAT WAT WAT WAT WAT WAT WAT WAT 
WAT WAT WAT WAT WAT WAT WAT WAT WAT WAT WAT WAT WAT WAT WAT WAT WAT WAT WAT WAT 
WAT WAT WAT WAT WAT WAT WAT WAT WAT WAT WAT WAT WAT WAT WAT WAT WAT WAT WAT WAT 
WAT WAT WAT WAT WAT WAT WAT WAT WAT WAT WAT WAT WAT WAT WAT WAT WAT WAT WAT WAT 
WAT WAT WAT WAT WAT WAT WAT WAT WAT WAT WAT WAT WAT WAT WAT WAT WAT WAT WAT WAT 
WAT WAT WAT WAT WAT WAT WAT WAT WAT WAT WAT WAT WAT WAT WAT WAT WAT WAT WAT WAT 
WAT WAT WAT WAT WAT WAT WAT WAT WAT WAT WAT WAT WAT WAT WAT WAT WAT WAT WAT WAT 
WAT WAT WAT WAT WAT WAT WAT WAT WAT WAT WAT WAT WAT WAT WAT WAT WAT WAT WAT WAT 
WAT WAT WAT WAT WAT WAT WAT WAT WAT WAT WAT WAT WAT WAT WAT WAT WAT WAT WAT WAT 
WAT WAT WAT WAT WAT WAT WAT WAT WAT WAT WAT WAT WAT WAT WAT WAT WAT WAT WAT WAT 
WAT WAT WAT WAT WAT WAT WAT WAT WAT WAT WAT WAT WAT WAT WAT WAT WAT WAT WAT WAT 
WAT WAT WAT WAT WAT WAT WAT WAT WAT WAT WAT WAT WAT WAT WAT WAT WAT WAT WAT WAT 
WAT WAT WAT WAT WAT WAT WAT WAT WAT WAT WAT WAT WAT WAT WAT WAT WAT WAT WAT WAT 
WAT WAT WAT WAT WAT WAT WAT WAT WAT WAT WAT WAT WAT WAT WAT WAT WAT WAT WAT WAT 
WAT WAT WAT WAT WAT WAT WAT WAT WAT WAT WAT WAT WAT WAT WAT WAT WAT WAT WAT WAT 
WAT WAT WAT WAT WAT WAT WAT WAT WAT WAT WAT WAT WAT WAT WAT WAT WAT WAT WAT WAT 
WAT WAT WAT WAT WAT WAT WAT WAT WAT WAT WAT WAT WAT WAT WAT WAT WAT WAT WAT WAT 
WAT WAT WAT WAT WAT WAT WAT WAT WAT WAT WAT WAT WAT WAT WAT WAT WAT WAT WAT WAT 
WAT WAT WAT WAT WAT WAT WAT WAT WAT WAT WAT WAT WAT WAT WAT WAT WAT WAT WAT WAT 
WAT WAT WAT WAT WAT WAT WAT WAT WAT WAT WAT WAT WAT WAT WAT WAT WAT WAT WAT WAT 
WAT WAT WAT WAT WAT WAT WAT WAT WAT WAT WAT WAT WAT WAT WAT WAT WAT WAT WAT WAT 
WAT WAT WAT WAT WAT WAT WAT WAT WAT WAT WAT WAT WAT WAT WAT WAT WAT WAT WAT WAT 
WAT WAT WAT WAT WAT WAT WAT WAT WAT WAT WAT WAT WAT WAT WAT WAT WAT WAT WAT WAT 
WAT WAT WAT WAT WAT WAT WAT WAT WAT WAT WAT WAT WAT WAT WAT WAT WAT WAT WAT WAT 
WAT WAT WAT WAT WAT WAT WAT WAT WAT WAT WAT WAT WAT WAT WAT WAT WAT WAT WAT WAT 
WAT WAT WAT WAT WAT WAT WAT WAT WAT WAT WAT WAT WAT WAT WAT WAT WAT WAT WAT WAT 
WAT WAT WAT WAT WAT WAT WAT WAT WAT WAT WAT WAT WAT WAT WAT WAT WAT WAT WAT WAT 
WAT WAT WAT WAT WAT WAT WAT WAT WAT WAT WAT WAT WAT WAT WAT WAT WAT WAT WAT WAT 
WAT WAT WAT WAT WAT WAT WAT WAT WAT WAT WAT WAT WAT WAT WAT WAT WAT WAT WAT WAT 
WAT WAT WAT WAT WAT WAT WAT WAT WAT WAT WAT WAT WAT WAT WAT WAT WAT WAT WAT WAT 
WAT WAT WAT WAT WAT WAT WAT WAT WAT WAT WAT WAT WAT WAT WAT WAT WAT WAT WAT WAT 
WAT WAT WAT WAT WAT WAT WAT WAT WAT WAT WAT WAT WAT WAT WAT WAT WAT WAT WAT WAT 
WAT WAT WAT WAT WAT WAT WAT WAT WAT WAT WAT WAT WAT WAT WAT WAT WAT WAT WAT WAT 
WAT WAT WAT WAT WAT WAT WAT WAT WAT WAT WAT WAT WAT WAT WAT WAT WAT WAT WAT WAT 
WAT WAT WAT WAT WAT WAT WAT WAT WAT WAT WAT WAT WAT WAT WAT WAT WAT WAT WAT WAT 
WAT WAT WAT WAT WAT WAT WAT WAT WAT WAT WAT WAT WAT WAT WAT WAT WAT WAT WAT WAT 
WAT WAT WAT WAT WAT WAT WAT WAT WAT WAT WAT WAT WAT WAT WAT WAT WAT WAT WAT WAT 
WAT WAT WAT WAT WAT WAT WAT WAT WAT WAT WAT WAT WAT WAT WAT WAT WAT WAT WAT WAT 
WAT WAT WAT WAT WAT WAT WAT WAT WAT WAT WAT WAT WAT WAT WAT WAT WAT WAT WAT WAT 
WAT WAT WAT WAT WAT WAT WAT WAT WAT WAT WAT WAT WAT WAT WAT WAT WAT WAT WAT WAT 
WAT WAT WAT WAT WAT WAT WAT WAT WAT WAT WAT WAT WAT WAT WAT WAT WAT WAT WAT WAT 
WAT WAT WAT WAT WAT WAT WAT WAT WAT WAT WAT WAT WAT WAT WAT WAT WAT WAT WAT WAT 
WAT WAT WAT WAT WAT WAT WAT WAT WAT WAT WAT WAT WAT WAT WAT WAT WAT WAT WAT WAT 
WAT WAT WAT WAT WAT WAT WAT WAT WAT WAT WAT WAT WAT WAT WAT WAT WAT WAT WAT WAT 
WAT WAT WAT WAT WAT WAT WAT WAT WAT WAT WAT WAT WAT WAT WAT WAT WAT WAT WAT WAT 
WAT WAT WAT WAT WAT WAT WAT WAT WAT WAT WAT WAT WAT WAT WAT WAT WAT WAT WAT WAT 
WAT WAT WAT WAT WAT WAT WAT WAT WAT WAT WAT WAT WAT WAT WAT WAT WAT WAT WAT WAT 
WAT WAT WAT WAT WAT WAT WAT WAT WAT WAT WAT WAT WAT WAT WAT WAT WAT WAT WAT WAT 
WAT WAT WAT WAT WAT WAT WAT WAT WAT WAT WAT WAT WAT WAT WAT WAT WAT WAT WAT WAT 
WAT WAT WAT WAT WAT WAT WAT WAT WAT WAT WAT WAT WAT WAT WAT WAT WAT WAT WAT WAT 
WAT WAT WAT WAT WAT WAT WAT WAT WAT WAT WAT WAT WAT WAT WAT WAT WAT WAT WAT WAT 
WAT WAT WAT WAT WAT WAT WAT WAT WAT WAT WAT WAT WAT WAT WAT WAT WAT WAT WAT WAT 
WAT WAT WAT WAT WAT WAT WAT WAT WAT WAT WAT WAT WAT WAT WAT WAT WAT WAT WAT WAT 
WAT WAT WAT WAT WAT WAT WAT WAT WAT WAT WAT WAT WAT WAT WAT WAT WAT WAT WAT WAT 
WAT WAT WAT WAT WAT WAT WAT WAT WAT WAT WAT WAT WAT WAT WAT WAT WAT WAT WAT WAT 
WAT WAT WAT WAT WAT WAT WAT WAT WAT WAT WAT WAT WAT WAT WAT WAT WAT WAT WAT WAT 
WAT WAT WAT WAT WAT WAT WAT WAT WAT WAT WAT WAT WAT WAT WAT WAT WAT WAT WAT WAT 
WAT WAT WAT WAT WAT WAT WAT WAT WAT WAT WAT WAT WAT WAT WAT WAT WAT WAT WAT WAT 
WAT WAT WAT WAT WAT WAT WAT WAT WAT WAT WAT WAT WAT WAT WAT WAT WAT WAT WAT WAT 
WAT WAT WAT WAT WAT WAT WAT WAT WAT WAT WAT WAT WAT WAT WAT WAT WAT WAT WAT WAT 
WAT WAT WAT WAT WAT WAT WAT WAT WAT WAT WAT WAT WAT WAT WAT WAT WAT WAT WAT WAT 
WAT WAT WAT WAT WAT WAT WAT WAT WAT WAT WAT WAT WAT WAT WAT WAT WAT WAT WAT WAT 
WAT WAT WAT WAT WAT WAT WAT WAT WAT WAT WAT WAT WAT WAT WAT WAT WAT WAT WAT WAT 
WAT WAT WAT WAT WAT WAT WAT WAT WAT WAT WAT WAT WAT WAT WAT WAT WAT WAT WAT WAT 
WAT WAT WAT WAT WAT WAT WAT WAT WAT WAT WAT WAT WAT WAT WAT WAT WAT WAT WAT WAT 
WAT WAT WAT WAT WAT WAT WAT WAT WAT WAT WAT WAT WAT WAT WAT WAT WAT WAT WAT WAT 
WAT WAT WAT WAT WAT WAT WAT WAT WAT WAT WAT WAT WAT WAT WAT WAT WAT WAT WAT WAT 
WAT WAT WAT WAT WAT WAT WAT WAT WAT WAT WAT WAT WAT WAT WAT WAT WAT WAT WAT WAT 
WAT WAT WAT WAT WAT WAT WAT WAT WAT WAT WAT WAT WAT WAT WAT WAT WAT WAT WAT WAT 
WAT WAT WAT WAT WAT WAT WAT WAT WAT WAT WAT WAT WAT WAT WAT WAT WAT WAT WAT WAT 
WAT WAT WAT WAT WAT WAT WAT WAT WAT WAT WAT WAT WAT WAT WAT WAT WAT WAT WAT WAT 
WAT WAT WAT WAT WAT WAT WAT WAT WAT WAT WAT WAT WAT WAT WAT WAT WAT WAT WAT WAT 
WAT WAT WAT WAT WAT WAT WAT WAT WAT WAT WAT WAT WAT WAT WAT WAT WAT WAT WAT WAT 
WAT WAT WAT WAT WAT WAT WAT WAT WAT WAT WAT WAT WAT WAT WAT WAT WAT WAT WAT WAT 
WAT WAT WAT WAT WAT WAT WAT WAT WAT WAT WAT WAT WAT WAT WAT WAT WAT WAT WAT WAT 
WAT WAT WAT WAT WAT WAT WAT WAT WAT WAT WAT WAT WAT WAT WAT WAT WAT WAT WAT WAT 
WAT WAT WAT WAT WAT WAT WAT WAT WAT WAT WAT WAT WAT WAT WAT WAT WAT WAT WAT WAT 
WAT WAT WAT WAT WAT WAT WAT WAT WAT WAT WAT WAT WAT WAT WAT WAT WAT WAT WAT WAT 
WAT WAT WAT WAT WAT WAT WAT WAT WAT WAT WAT WAT WAT WAT WAT WAT WAT WAT WAT WAT 
WAT WAT WAT WAT WAT WAT WAT WAT WAT WAT WAT WAT WAT WAT WAT WAT WAT WAT WAT WAT 
WAT WAT WAT WAT WAT WAT WAT WAT WAT WAT WAT WAT WAT WAT WAT WAT WAT WAT WAT WAT 
WAT WAT WAT WAT WAT WAT WAT WAT WAT WAT WAT WAT WAT WAT WAT WAT WAT WAT WAT WAT 
WAT WAT WAT WAT WAT WAT WAT WAT WAT WAT WAT WAT WAT WAT WAT WAT WAT WAT WAT WAT 
WAT WAT WAT WAT WAT WAT WAT WAT WAT WAT WAT WAT WAT WAT WAT WAT WAT WAT WAT WAT 
WAT WAT WAT WAT WAT WAT WAT WAT WAT WAT WAT WAT WAT WAT WAT WAT WAT WAT WAT WAT 
WAT WAT WAT WAT WAT WAT WAT WAT WAT WAT WAT WAT WAT WAT WAT WAT WAT WAT WAT WAT 
WAT WAT WAT WAT WAT WAT WAT WAT WAT WAT WAT WAT WAT WAT WAT WAT WAT WAT WAT WAT 
WAT WAT WAT WAT WAT WAT WAT WAT WAT WAT WAT WAT WAT WAT WAT WAT WAT WAT WAT WAT 
WAT WAT WAT WAT WAT WAT WAT WAT WAT WAT WAT WAT WAT WAT WAT WAT WAT WAT WAT WAT 
WAT WAT WAT WAT WAT WAT WAT WAT WAT WAT WAT WAT WAT WAT WAT WAT WAT WAT WAT WAT 
WAT WAT WAT WAT WAT WAT WAT WAT WAT WAT WAT WAT WAT WAT WAT WAT WAT WAT WAT WAT 
WAT WAT WAT WAT WAT WAT WAT WAT WAT WAT WAT WAT WAT WAT WAT WAT WAT WAT WAT WAT 
WAT WAT WAT WAT WAT WAT WAT WAT WAT WAT WAT WAT WAT WAT WAT WAT WAT WAT WAT WAT 
WAT WAT WAT WAT WAT WAT WAT WAT WAT WAT WAT WAT WAT WAT WAT WAT WAT WAT WAT WAT 
WAT WAT WAT WAT WAT WAT WAT WAT WAT WAT WAT WAT WAT WAT WAT WAT WAT WAT WAT WAT 
WAT WAT WAT WAT WAT WAT WAT WAT WAT WAT WAT WAT WAT WAT WAT WAT WAT WAT WAT WAT 
WAT WAT WAT WAT WAT WAT WAT WAT WAT WAT WAT WAT WAT WAT WAT WAT WAT WAT WAT WAT 
WAT WAT WAT WAT WAT WAT WAT WAT WAT WAT WAT WAT WAT WAT WAT WAT WAT WAT WAT WAT 
WAT WAT WAT WAT WAT WAT WAT WAT WAT WAT WAT WAT WAT WAT WAT WAT WAT WAT WAT WAT 
WAT WAT WAT WAT WAT WAT WAT WAT WAT WAT WAT WAT WAT WAT WAT WAT WAT WAT WAT WAT 
WAT WAT WAT WAT WAT WAT WAT WAT WAT WAT WAT WAT WAT WAT WAT WAT WAT WAT WAT WAT 
WAT WAT WAT WAT WAT WAT WAT WAT WAT WAT WAT WAT WAT WAT WAT WAT WAT WAT WAT WAT 
WAT WAT WAT WAT WAT WAT WAT WAT WAT WAT WAT WAT WAT WAT WAT WAT WAT WAT WAT WAT 
WAT WAT WAT WAT WAT WAT WAT WAT WAT WAT WAT WAT WAT WAT WAT WAT WAT WAT WAT WAT 
WAT WAT WAT WAT WAT WAT WAT WAT WAT WAT WAT WAT WAT WAT WAT WAT WAT WAT WAT WAT 
WAT WAT WAT WAT WAT WAT WAT WAT WAT WAT WAT WAT WAT WAT WAT WAT WAT WAT WAT WAT 
WAT WAT WAT WAT WAT WAT WAT WAT WAT WAT WAT WAT WAT WAT WAT WAT WAT WAT WAT WAT 
WAT WAT WAT WAT WAT WAT WAT WAT WAT WAT WAT WAT WAT WAT WAT WAT WAT WAT WAT WAT 
WAT WAT WAT WAT WAT WAT WAT WAT WAT WAT WAT WAT WAT WAT WAT WAT WAT WAT WAT WAT 
WAT WAT WAT WAT WAT WAT WAT WAT WAT WAT WAT WAT WAT WAT WAT WAT WAT WAT WAT WAT 
WAT WAT WAT WAT WAT WAT WAT WAT WAT WAT WAT WAT WAT WAT WAT WAT WAT WAT WAT WAT 
WAT WAT WAT WAT WAT WAT WAT WAT WAT WAT WAT WAT WAT WAT WAT WAT WAT WAT WAT WAT 
WAT WAT WAT WAT WAT WAT WAT WAT WAT WAT WAT WAT WAT WAT WAT WAT WAT WAT WAT WAT 
WAT WAT WAT WAT WAT WAT WAT WAT WAT WAT WAT WAT WAT WAT WAT WAT WAT WAT WAT WAT 
WAT WAT WAT WAT WAT WAT WAT WAT WAT WAT WAT WAT WAT WAT WAT WAT WAT WAT WAT WAT 
WAT WAT WAT WAT WAT WAT WAT WAT WAT WAT WAT WAT WAT WAT WAT WAT WAT WAT WAT WAT 
WAT WAT WAT WAT WAT WAT WAT WAT WAT WAT WAT WAT WAT WAT WAT WAT WAT WAT WAT WAT 
WAT WAT WAT WAT WAT WAT WAT WAT WAT WAT WAT WAT WAT WAT WAT WAT WAT WAT WAT WAT 
WAT WAT WAT WAT WAT WAT WAT WAT WAT WAT WAT WAT WAT WAT WAT WAT WAT WAT WAT WAT 
WAT WAT WAT WAT WAT WAT WAT WAT WAT WAT WAT WAT WAT WAT WAT WAT WAT WAT WAT WAT 
WAT WAT WAT WAT WAT WAT WAT WAT WAT WAT WAT WAT WAT WAT WAT WAT WAT WAT WAT WAT 
WAT WAT WAT WAT WAT WAT WAT WAT WAT WAT WAT WAT WAT WAT WAT WAT WAT WAT WAT WAT 
WAT WAT WAT WAT WAT WAT WAT WAT WAT WAT WAT WAT WAT WAT WAT WAT WAT WAT WAT WAT 
WAT WAT WAT WAT WAT WAT WAT WAT WAT WAT WAT WAT WAT WAT WAT WAT WAT WAT WAT WAT 
WAT WAT WAT WAT WAT WAT WAT WAT WAT WAT WAT WAT WAT WAT WAT WAT WAT WAT WAT WAT 
WAT WAT WAT WAT WAT WAT WAT WAT WAT WAT WAT WAT WAT WAT WAT WAT WAT WAT WAT WAT 
WAT WAT WAT WAT WAT WAT WAT WAT WAT WAT WAT WAT WAT WAT WAT WAT WAT WAT WAT WAT 
WAT WAT WAT WAT WAT WAT WAT WAT WAT WAT WAT WAT WAT WAT WAT WAT WAT WAT WAT WAT 
WAT WAT WAT WAT WAT WAT WAT WAT WAT WAT WAT WAT WAT WAT WAT WAT WAT WAT WAT WAT 
WAT WAT WAT WAT WAT WAT WAT WAT WAT WAT WAT WAT WAT WAT WAT WAT WAT WAT WAT WAT 
WAT WAT WAT WAT WAT WAT WAT WAT WAT WAT WAT WAT WAT WAT WAT WAT WAT WAT WAT WAT 
WAT WAT WAT WAT WAT WAT WAT WAT WAT WAT WAT WAT WAT WAT WAT WAT WAT WAT WAT WAT 
WAT WAT WAT WAT WAT WAT WAT WAT WAT WAT WAT WAT WAT WAT WAT WAT WAT WAT WAT WAT 
WAT WAT WAT WAT WAT WAT WAT WAT WAT WAT WAT WAT WAT WAT WAT WAT WAT WAT WAT WAT 
WAT WAT WAT WAT WAT WAT WAT WAT WAT WAT WAT WAT WAT WAT WAT WAT WAT WAT WAT WAT 
WAT WAT WAT WAT WAT WAT WAT WAT WAT WAT WAT WAT WAT WAT WAT WAT WAT WAT WAT WAT 
WAT WAT WAT WAT WAT WAT WAT WAT WAT WAT WAT WAT WAT WAT WAT WAT WAT WAT WAT WAT 
WAT WAT WAT WAT WAT WAT WAT WAT WAT WAT WAT WAT WAT WAT WAT WAT WAT WAT WAT WAT 
WAT WAT WAT WAT WAT WAT WAT WAT WAT WAT WAT WAT WAT WAT WAT WAT WAT WAT WAT WAT 
WAT WAT WAT WAT WAT WAT WAT WAT WAT WAT WAT WAT WAT WAT WAT WAT WAT WAT WAT WAT 
WAT WAT WAT WAT WAT WAT WAT WAT WAT WAT WAT WAT WAT WAT WAT WAT WAT WAT WAT WAT 
WAT WAT WAT WAT WAT WAT WAT WAT WAT WAT WAT WAT WAT WAT WAT WAT WAT WAT WAT WAT 
WAT WAT WAT WAT WAT WAT WAT WAT WAT WAT WAT WAT WAT WAT WAT WAT WAT WAT WAT WAT 
WAT WAT WAT WAT WAT WAT WAT WAT WAT WAT WAT WAT WAT WAT WAT WAT WAT WAT WAT WAT 
WAT WAT WAT WAT WAT WAT WAT WAT WAT WAT WAT WAT WAT WAT WAT WAT WAT WAT WAT WAT 
WAT WAT WAT WAT WAT WAT WAT WAT WAT WAT WAT WAT WAT WAT WAT WAT WAT WAT WAT WAT 
WAT WAT WAT WAT WAT WAT WAT WAT WAT WAT WAT WAT WAT WAT WAT WAT WAT WAT WAT WAT 
WAT WAT WAT WAT WAT WAT WAT WAT WAT WAT WAT WAT WAT WAT WAT WAT WAT WAT WAT WAT 
WAT WAT WAT WAT WAT WAT WAT WAT WAT WAT WAT WAT WAT WAT WAT WAT WAT WAT WAT WAT 
WAT WAT WAT WAT WAT WAT WAT WAT WAT WAT WAT WAT WAT WAT WAT WAT WAT WAT WAT WAT 
WAT WAT WAT WAT WAT WAT WAT WAT WAT WAT WAT WAT WAT WAT WAT WAT WAT WAT WAT WAT 
WAT WAT WAT WAT WAT WAT WAT WAT WAT WAT WAT WAT WAT WAT WAT WAT WAT WAT WAT WAT 
WAT WAT WAT WAT WAT WAT WAT WAT WAT WAT WAT WAT WAT WAT WAT WAT WAT WAT WAT WAT 
WAT WAT WAT WAT WAT WAT WAT WAT WAT WAT WAT WAT WAT WAT WAT WAT WAT WAT WAT WAT 
WAT WAT WAT WAT WAT WAT WAT WAT WAT WAT WAT WAT WAT WAT WAT WAT WAT WAT WAT WAT 
WAT WAT WAT WAT WAT WAT WAT WAT WAT WAT WAT WAT WAT WAT WAT WAT WAT WAT WAT WAT 
WAT WAT WAT WAT WAT WAT WAT WAT WAT WAT WAT WAT WAT WAT WAT WAT WAT WAT WAT WAT 
WAT WAT WAT WAT WAT WAT WAT WAT WAT WAT WAT WAT WAT WAT WAT WAT WAT WAT WAT WAT 
WAT WAT WAT WAT WAT WAT WAT WAT WAT WAT WAT WAT WAT WAT WAT WAT WAT WAT WAT WAT 
WAT WAT WAT WAT WAT WAT WAT WAT WAT WAT WAT WAT WAT WAT WAT WAT WAT WAT WAT WAT 
WAT WAT WAT WAT WAT WAT WAT WAT WAT WAT WAT WAT WAT WAT WAT WAT WAT WAT WAT WAT 
WAT WAT WAT WAT WAT WAT WAT WAT WAT WAT WAT WAT WAT WAT WAT WAT WAT WAT WAT WAT 
WAT WAT WAT WAT WAT WAT WAT WAT WAT WAT WAT WAT WAT WAT WAT WAT WAT WAT WAT WAT 
WAT WAT WAT WAT WAT WAT WAT WAT WAT WAT WAT WAT WAT WAT WAT WAT WAT WAT WAT WAT 
WAT WAT WAT WAT WAT WAT WAT WAT WAT WAT WAT WAT WAT WAT WAT WAT WAT WAT WAT WAT 
WAT WAT WAT WAT WAT WAT WAT WAT WAT WAT WAT WAT WAT WAT WAT WAT WAT WAT WAT WAT 
WAT WAT WAT WAT WAT WAT WAT WAT WAT WAT WAT WAT WAT WAT WAT WAT WAT WAT WAT WAT 
WAT WAT WAT WAT WAT WAT WAT WAT WAT WAT WAT WAT WAT WAT WAT WAT WAT WAT WAT WAT 
WAT WAT WAT WAT WAT WAT WAT WAT WAT WAT WAT WAT WAT WAT WAT WAT WAT WAT WAT WAT 
WAT WAT WAT WAT WAT WAT WAT WAT WAT WAT WAT WAT WAT WAT WAT WAT WAT WAT WAT WAT 
WAT WAT WAT WAT WAT WAT WAT WAT WAT WAT WAT WAT WAT WAT WAT WAT WAT WAT WAT WAT 
WAT WAT WAT WAT WAT WAT WAT WAT WAT WAT WAT WAT WAT WAT WAT WAT WAT WAT WAT WAT 
WAT WAT WAT WAT WAT WAT WAT WAT WAT WAT WAT WAT WAT WAT WAT WAT WAT WAT WAT WAT 
WAT WAT WAT WAT WAT WAT WAT WAT WAT WAT WAT WAT WAT WAT WAT WAT WAT WAT WAT WAT 
WAT WAT WAT WAT WAT WAT WAT WAT WAT WAT WAT WAT WAT WAT WAT WAT WAT WAT WAT WAT 
WAT WAT WAT WAT WAT WAT WAT WAT WAT WAT WAT WAT WAT WAT WAT WAT WAT WAT WAT WAT 
WAT WAT WAT WAT WAT WAT WAT WAT WAT WAT WAT WAT WAT WAT WAT WAT WAT WAT WAT WAT 
WAT WAT WAT WAT WAT WAT WAT WAT WAT WAT WAT WAT WAT WAT WAT WAT WAT WAT WAT WAT 
WAT WAT WAT WAT WAT WAT WAT WAT WAT WAT WAT WAT WAT WAT WAT WAT WAT WAT WAT WAT 
WAT WAT WAT WAT WAT WAT WAT WAT WAT WAT WAT WAT WAT WAT WAT 
%FLAG RESIDUE_POINTER                                                           
%FORMAT(10I8)                                                                   
       1      33      67     100     130     161     194     224     257     287
     320     353     383     414     448     479     513     543     577     611
     644     674     707     737     771     805     836     869     900     934
     965     998    1031    1065    1095    1125    1155    1186    1216    1249
    1280    1311    1345    1379    1413    1444    1477    1508    1539    1573
    1603    1636    1669    1702    1732    1766    1796    1827    1858    1892
    1925    1956    1986    2019    2049    2083    2117    2147    2179    2180
    2181    2182    2183    2184    2185    2186    2187    2188    2189    2190
    2191    2192    2193    2194    2195    2196    2197    2198    2199    2200
    2201    2202    2203    2204    2205    2206    2207    2208    2209    2210
    2211    2212    2213    2214    2215    2216    2217    2218    2219    2220
    2221    2222    2223    2224    2225    2226    2227    2228    2229    2230
    2231    2232    2233    2234    2235    2236    2237    2238    2239    2240
    2241    2242    2243    2244    2245    2246    2247    2248    2249    2250
    2251    2252    2253    2254    2255    2256    2257    2258    2259    2260
    2261    2262    2263    2264    2265    2266    2267    2268    2269    2270
    2271    2272    2273    2274    2275    2276    2277    2278    2279    2280
    2281    2282    2283    2284    2285    2286    2287    2288    2289    2290
    2291    2292    2293    2294    2295    2296    2297    2298    2299    2300
    2301    2302    2303    2304    2305    2306    2307    2308    2309    2310
    2340    2344    2348    2352    2356    2360    2364    2368    2372    2376
    2380    2384    2388    2392    2396    2400    2404    2408    2412    2416
    2420    2424    2428    2432    2436    2440    2444    2448    2452    2456
    2460    2464    2468    2472    2476    2480    2484    2488    2492    2496
    2500    2504    2508    2512    2516    2520    2524    2528    2532    2536
    2540    2544    2548    2552    2556    2560    2564    2568    2572    2576
    2580    2584    2588    2592    2596    2600    2604    2608    2612    2616
    2620    2624    2628    2632    2636    2640    2644    2648    2652    2656
    2660    2664    2668    2672    2676    2680    2684    2688    2692    2696
    2700    2704    2708    2712    2716    2720    2724    2728    2732    2736
    2740    2744    2748    2752    2756    2760    2764    2768    2772    2776
    2780    2784    2788    2792    2796    2800    2804    2808    2812    2816
    2820    2824    2828    2832    2836    2840    2844    2848    2852    2856
    2860    2864    2868    2872    2876    2880    2884    2888    2892    2896
    2900    2904    2908    2912    2916    2920    2924    2928    2932    2936
    2940    2944    2948    2952    2956    2960    2964    2968    2972    2976
    2980    2984    2988    2992    2996    3000    3004    3008    3012    3016
    3020    3024    3028    3032    3036    3040    3044    3048    3052    3056
    3060    3064    3068    3072    3076    3080    3084    3088    3092    3096
    3100    3104    3108    3112    3116    3120    3124    3128    3132    3136
    3140    3144    3148    3152    3156    3160    3164    3168    3172    3176
    3180    3184    3188    3192    3196    3200    3204    3208    3212    3216
    3220    3224    3228    3232    3236    3240    3244    3248    3252    3256
    3260    3264    3268    3272    3276    3280    3284    3288    3292    3296
    3300    3304    3308    3312    3316    3320    3324    3328    3332    3336
    3340    3344    3348    3352    3356    3360    3364    3368    3372    3376
    3380    3384    3388    3392    3396    3400    3404    3408    3412    3416
    3420    3424    3428    3432    3436    3440    3444    3448    3452    3456
    3460    3464    3468    3472    3476    3480    3484    3488    3492    3496
    3500    3504    3508    3512    3516    3520    3524    3528    3532    3536
    3540    3544    3548    3552    3556    3560    3564    3568    3572    3576
    3580    3584    3588    3592    3596    3600    3604    3608    3612    3616
    3620    3624    3628    3632    3636    3640    3644    3648    3652    3656
    3660    3664    3668    3672    3676    3680    3684    3688    3692    3696
    3700    3704    3708    3712    3716    3720    3724    3728    3732    3736
    3740    3744    3748    3752    3756    3760    3764    3768    3772    3776
    3780    3784    3788    3792    3796    3800    3804    3808    3812    3816
    3820    3824    3828    3832    3836    3840    3844    3848    3852    3856
    3860    3864    3868    3872    3876    3880    3884    3888    3892    3896
    3900    3904    3908    3912    3916    3920    3924    3928    3932    3936
    3940    3944    3948    3952    3956    3960    3964    3968    3972    3976
    3980    3984    3988    3992    3996    4000    4004    4008    4012    4016
    4020    4024    4028    4032    4036    4040    4044    4048    4052    4056
    4060    4064    4068    4072    4076    4080    4084    4088    4092    4096
    4100    4104    4108    4112    4116    4120    4124    4128    4132    4136
    4140    4144    4148    4152    4156    4160    4164    4168    4172    4176
    4180    4184    4188    4192    4196    4200    4204    4208    4212    4216
    4220    4224    4228    4232    4236    4240    4244    4248    4252    4256
    4260    4264    4268    4272    4276    4280    4284    4288    4292    4296
    4300    4304    4308    4312    4316    4320    4324    4328    4332    4336
    4340    4344    4348    4352    4356    4360    4364    4368    4372    4376
    4380    4384    4388    4392    4396    4400    4404    4408    4412    4416
    4420    4424    4428    4432    4436    4440    4444    4448    4452    4456
    4460    4464    4468    4472    4476    4480    4484    4488    4492    4496
    4500    4504    4508    4512    4516    4520    4524    4528    4532    4536
    4540    4544    4548    4552    4556    4560    4564    4568    4572    4576
    4580    4584    4588    4592    4596    4600    4604    4608    4612    4616
    4620    4624    4628    4632    4636    4640    4644    4648    4652    4656
    4660    4664    4668    4672    4676    4680    4684    4688    4692    4696
    4700    4704    4708    4712    4716    4720    4724    4728    4732    4736
    4740    4744    4748    4752    4756    4760    4764    4768    4772    4776
    4780    4784    4788    4792    4796    4800    4804    4808    4812    4816
    4820    4824    4828    4832    4836    4840    4844    4848    4852    4856
    4860    4864    4868    4872    4876    4880    4884    4888    4892    4896
    4900    4904    4908    4912    4916    4920    4924    4928    4932    4936
    4940    4944    4948    4952    4956    4960    4964    4968    4972    4976
    4980    4984    4988    4992    4996    5000    5004    5008    5012    5016
    5020    5024    5028    5032    5036    5040    5044    5048    5052    5056
    5060    5064    5068    5072    5076    5080    5084    5088    5092    5096
    5100    5104    5108    5112    5116    5120    5124    5128    5132    5136
    5140    5144    5148    5152    5156    5160    5164    5168    5172    5176
    5180    5184    5188    5192    5196    5200    5204    5208    5212    5216
    5220    5224    5228    5232    5236    5240    5244    5248    5252    5256
    5260    5264    5268    5272    5276    5280    5284    5288    5292    5296
    5300    5304    5308    5312    5316    5320    5324    5328    5332    5336
    5340    5344    5348    5352    5356    5360    5364    5368    5372    5376
    5380    5384    5388    5392    5396    5400    5404    5408    5412    5416
    5420    5424    5428    5432    5436    5440    5444    5448    5452    5456
    5460    5464    5468    5472    5476    5480    5484    5488    5492    5496
    5500    5504    5508    5512    5516    5520    5524    5528    5532    5536
    5540    5544    5548    5552    5556    5560    5564    5568    5572    5576
    5580    5584    5588    5592    5596    5600    5604    5608    5612    5616
    5620    5624    5628    5632    5636    5640    5644    5648    5652    5656
    5660    5664    5668    5672    5676    5680    5684    5688    5692    5696
    5700    5704    5708    5712    5716    5720    5724    5728    5732    5736
    5740    5744    5748    5752    5756    5760    5764    5768    5772    5776
    5780    5784    5788    5792    5796    5800    5804    5808    5812    5816
    5820    5824    5828    5832    5836    5840    5844    5848    5852    5856
    5860    5864    5868    5872    5876    5880    5884    5888    5892    5896
    5900    5904    5908    5912    5916    5920    5924    5928    5932    5936
    5940    5944    5948    5952    5956    5960    5964    5968    5972    5976
    5980    5984    5988    5992    5996    6000    6004    6008    6012    6016
    6020    6024    6028    6032    6036    6040    6044    6048    6052    6056
    6060    6064    6068    6072    6076    6080    6084    6088    6092    6096
    6100    6104    6108    6112    6116    6120    6124    6128    6132    6136
    6140    6144    6148    6152    6156    6160    6164    6168    6172    6176
    6180    6184    6188    6192    6196    6200    6204    6208    6212    6216
    6220    6224    6228    6232    6236    6240    6244    6248    6252    6256
    6260    6264    6268    6272    6276    6280    6284    6288    6292    6296
    6300    6304    6308    6312    6316    6320    6324    6328    6332    6336
    6340    6344    6348    6352    6356    6360    6364    6368    6372    6376
    6380    6384    6388    6392    6396    6400    6404    6408    6412    6416
    6420    6424    6428    6432    6436    6440    6444    6448    6452    6456
    6460    6464    6468    6472    6476    6480    6484    6488    6492    6496
    6500    6504    6508    6512    6516    6520    6524    6528    6532    6536
    6540    6544    6548    6552    6556    6560    6564    6568    6572    6576
    6580    6584    6588    6592    6596    6600    6604    6608    6612    6616
    6620    6624    6628    6632    6636    6640    6644    6648    6652    6656
    6660    6664    6668    6672    6676    6680    6684    6688    6692    6696
    6700    6704    6708    6712    6716    6720    6724    6728    6732    6736
    6740    6744    6748    6752    6756    6760    6764    6768    6772    6776
    6780    6784    6788    6792    6796    6800    6804    6808    6812    6816
    6820    6824    6828    6832    6836    6840    6844    6848    6852    6856
    6860    6864    6868    6872    6876    6880    6884    6888    6892    6896
    6900    6904    6908    6912    6916    6920    6924    6928    6932    6936
    6940    6944    6948    6952    6956    6960    6964    6968    6972    6976
    6980    6984    6988    6992    6996    7000    7004    7008    7012    7016
    7020    7024    7028    7032    7036    7040    7044    7048    7052    7056
    7060    7064    7068    7072    7076    7080    7084    7088    7092    7096
    7100    7104    7108    7112    7116    7120    7124    7128    7132    7136
    7140    7144    7148    7152    7156    7160    7164    7168    7172    7176
    7180    7184    7188    7192    7196    7200    7204    7208    7212    7216
    7220    7224    7228    7232    7236    7240    7244    7248    7252    7256
    7260    7264    7268    7272    7276    7280    7284    7288    7292    7296
    7300    7304    7308    7312    7316    7320    7324    7328    7332    7336
    7340    7344    7348    7352    7356    7360    7364    7368    7372    7376
    7380    7384    7388    7392    7396    7400    7404    7408    7412    7416
    7420    7424    7428    7432    7436    7440    7444    7448    7452    7456
    7460    7464    7468    7472    7476    7480    7484    7488    7492    7496
    7500    7504    7508    7512    7516    7520    7524    7528    7532    7536
    7540    7544    7548    7552    7556    7560    7564    7568    7572    7576
    7580    7584    7588    7592    7596    7600    7604    7608    7612    7616
    7620    7624    7628    7632    7636    7640    7644    7648    7652    7656
    7660    7664    7668    7672    7676    7680    7684    7688    7692    7696
    7700    7704    7708    7712    7716    7720    7724    7728    7732    7736
    7740    7744    7748    7752    7756    7760    7764    7768    7772    7776
    7780    7784    7788    7792    7796    7800    7804    7808    7812    7816
    7820    7824    7828    7832    7836    7840    7844    7848    7852    7856
    7860    7864    7868    7872    7876    7880    7884    7888    7892    7896
    7900    7904    7908    7912    7916    7920    7924    7928    7932    7936
    7940    7944    7948    7952    7956    7960    7964    7968    7972    7976
    7980    7984    7988    7992    7996    8000    8004    8008    8012    8016
    8020    8024    8028    8032    8036    8040    8044    8048    8052    8056
    8060    8064    8068    8072    8076    8080    8084    8088    8092    8096
    8100    8104    8108    8112    8116    8120    8124    8128    8132    8136
    8140    8144    8148    8152    8156    8160    8164    8168    8172    8176
    8180    8184    8188    8192    8196    8200    8204    8208    8212    8216
    8220    8224    8228    8232    8236    8240    8244    8248    8252    8256
    8260    8264    8268    8272    8276    8280    8284    8288    8292    8296
    8300    8304    8308    8312    8316    8320    8324    8328    8332    8336
    8340    8344    8348    8352    8356    8360    8364    8368    8372    8376
    8380    8384    8388    8392    8396    8400    8404    8408    8412    8416
    8420    8424    8428    8432    8436    8440    8444    8448    8452    8456
    8460    8464    8468    8472    8476    8480    8484    8488    8492    8496
    8500    8504    8508    8512    8516    8520    8524    8528    8532    8536
    8540    8544    8548    8552    8556    8560    8564    8568    8572    8576
    8580    8584    8588    8592    8596    8600    8604    8608    8612    8616
    8620    8624    8628    8632    8636    8640    8644    8648    8652    8656
    8660    8664    8668    8672    8676    8680    8684    8688    8692    8696
    8700    8704    8708    8712    8716    8720    8724    8728    8732    8736
    8740    8744    8748    8752    8756    8760    8764    8768    8772    8776
    8780    8784    8788    8792    8796    8800    8804    8808    8812    8816
    8820    8824    8828    8832    8836    8840    8844    8848    8852    8856
    8860    8864    8868    8872    8876    8880    8884    8888    8892    8896
    8900    8904    8908    8912    8916    8920    8924    8928    8932    8936
    8940    8944    8948    8952    8956    8960    8964    8968    8972    8976
    8980    8984    8988    8992    8996    9000    9004    9008    9012    9016
    9020    9024    9028    9032    9036    9040    9044    9048    9052    9056
    9060    9064    9068    9072    9076    9080    9084    9088    9092    9096
    9100    9104    9108    9112    9116    9120    9124    9128    9132    9136
    9140    9144    9148    9152    9156    9160    9164    9168    9172    9176
    9180    9184    9188    9192    9196    9200    9204    9208    9212    9216
    9220    9224    9228    9232    9236    9240    9244    9248    9252    9256
    9260    9264    9268    9272    9276    9280    9284    9288    9292    9296
    9300    9304    9308    9312    9316    9320    9324    9328    9332    9336
    9340    9344    9348    9352    9356    9360    9364    9368    9372    9376
    9380    9384    9388    9392    9396    9400    9404    9408    9412    9416
    9420    9424    9428    9432    9436    9440    9444    9448    9452    9456
    9460    9464    9468    9472    9476    9480    9484    9488    9492    9496
    9500    9504    9508    9512    9516    9520    9524    9528    9532    9536
    9540    9544    9548    9552    9556    9560    9564    9568    9572    9576
    9580    9584    9588    9592    9596    9600    9604    9608    9612    9616
    9620    9624    9628    9632    9636    9640    9644    9648    9652    9656
    9660    9664    9668    9672    9676    9680    9684    9688    9692    9696
    9700    9704    9708    9712    9716    9720    9724    9728    9732    9736
    9740    9744    9748    9752    9756    9760    9764    9768    9772    9776
    9780    9784    9788    9792    9796    9800    9804    9808    9812    9816
    9820    9824    9828    9832    9836    9840    9844    9848    9852    9856
    9860    9864    9868    9872    9876    9880    9884    9888    9892    9896
    9900    9904    9908    9912    9916    9920    9924    9928    9932    9936
    9940    9944    9948    9952    9956    9960    9964    9968    9972    9976
    9980    9984    9988    9992    9996   10000   10004   10008   10012   10016
   10020   10024   10028   10032   10036   10040   10044   10048   10052   10056
   10060   10064   10068   10072   10076   10080   10084   10088   10092   10096
   10100   10104   10108   10112   10116   10120   10124   10128   10132   10136
   10140   10144   10148   10152   10156   10160   10164   10168   10172   10176
   10180   10184   10188   10192   10196   10200   10204   10208   10212   10216
   10220   10224   10228   10232   10236   10240   10244   10248   10252   10256
   10260   10264   10268   10272   10276   10280   10284   10288   10292   10296
   10300   10304   10308   10312   10316   10320   10324   10328   10332   10336
   10340   10344   10348   10352   10356   10360   10364   10368   10372   10376
   10380   10384   10388   10392   10396   10400   10404   10408   10412   10416
   10420   10424   10428   10432   10436   10440   10444   10448   10452   10456
   10460   10464   10468   10472   10476   10480   10484   10488   10492   10496
   10500   10504   10508   10512   10516   10520   10524   10528   10532   10536
   10540   10544   10548   10552   10556   10560   10564   10568   10572   10576
   10580   10584   10588   10592   10596   10600   10604   10608   10612   10616
   10620   10624   10628   10632   10636   10640   10644   10648   10652   10656
   10660   10664   10668   10672   10676   10680   10684   10688   10692   10696
   10700   10704   10708   10712   10716   10720   10724   10728   10732   10736
   10740   10744   10748   10752   10756   10760   10764   10768   10772   10776
   10780   10784   10788   10792   10796   10800   10804   10808   10812   10816
   10820   10824   10828   10832   10836   10840   10844   10848   10852   10856
   10860   10864   10868   10872   10876   10880   10884   10888   10892   10896
   10900   10904   10908   10912   10916   10920   10924   10928   10932   10936
   10940   10944   10948   10952   10956   10960   10964   10968   10972   10976
   10980   10984   10988   10992   10996   11000   11004   11008   11012   11016
   11020   11024   11028   11032   11036   11040   11044   11048   11052   11056
   11060   11064   11068   11072   11076   11080   11084   11088   11092   11096
   11100   11104   11108   11112   11116   11120   11124   11128   11132   11136
   11140   11144   11148   11152   11156   11160   11164   11168   11172   11176
   11180   11184   11188   11192   11196   11200   11204   11208   11212   11216
   11220   11224   11228   11232   11236   11240   11244   11248   11252   11256
   11260   11264   11268   11272   11276   11280   11284   11288   11292   11296
   11300   11304   11308   11312   11316   11320   11324   11328   11332   11336
   11340   11344   11348   11352   11356   11360   11364   11368   11372   11376
   11380   11384   11388   11392   11396   11400   11404   11408   11412   11416
   11420   11424   11428   11432   11436   11440   11444   11448   11452   11456
   11460   11464   11468   11472   11476   11480   11484   11488   11492   11496
   11500   11504   11508   11512   11516   11520   11524   11528   11532   11536
   11540   11544   11548   11552   11556   11560   11564   11568   11572   11576
   11580   11584   11588   11592   11596   11600   11604   11608   11612   11616
   11620   11624   11628   11632   11636   11640   11644   11648   11652   11656
   11660   11664   11668   11672   11676   11680   11684   11688   11692   11696
   11700   11704   11708   11712   11716   11720   11724   11728   11732   11736
   11740   11744   11748   11752   11756   11760   11764   11768   11772   11776
   11780   11784   11788   11792   11796   11800   11804   11808   11812   11816
   11820   11824   11828   11832   11836   11840   11844   11848   11852   11856
   11860   11864   11868   11872   11876   11880   11884   11888   11892   11896
   11900   11904   11908   11912   11916   11920   11924   11928   11932   11936
   11940   11944   11948   11952   11956   11960   11964   11968   11972   11976
   11980   11984   11988   11992   11996   12000   12004   12008   12012   12016
   12020   12024   12028   12032   12036   12040   12044   12048   12052   12056
   12060   12064   12068   12072   12076   12080   12084   12088   12092   12096
   12100   12104   12108   12112   12116   12120   12124   12128   12132   12136
   12140   12144   12148   12152   12156   12160   12164   12168   12172   12176
   12180   12184   12188   12192   12196   12200   12204   12208   12212   12216
   12220   12224   12228   12232   12236   12240   12244   12248   12252   12256
   12260   12264   12268   12272   12276   12280   12284   12288   12292   12296
   12300   12304   12308   12312   12316   12320   12324   12328   12332   12336
   12340   12344   12348   12352   12356   12360   12364   12368   12372   12376
   12380   12384   12388   12392   12396   12400   12404   12408   12412   12416
   12420   12424   12428   12432   12436   12440   12444   12448   12452   12456
   12460   12464   12468   12472   12476   12480   12484   12488   12492   12496
   12500   12504   12508   12512   12516   12520   12524   12528   12532   12536
   12540   12544   12548   12552   12556   12560   12564   12568   12572   12576
   12580   12584   12588   12592   12596   12600   12604   12608   12612   12616
   12620   12624   12628   12632   12636   12640   12644   12648   12652   12656
   12660   12664   12668   12672   12676   12680   12684   12688   12692   12696
   12700   12704   12708   12712   12716   12720   12724   12728   12732   12736
   12740   12744   12748   12752   12756   12760   12764   12768   12772   12776
   12780   12784   12788   12792   12796   12800   12804   12808   12812   12816
   12820   12824   12828   12832   12836   12840   12844   12848   12852   12856
   12860   12864   12868   12872   12876   12880   12884   12888   12892   12896
   12900   12904   12908   12912   12916   12920   12924   12928   12932   12936
   12940   12944   12948   12952   12956   12960   12964   12968   12972   12976
   12980   12984   12988   12992   12996   13000   13004   13008   13012   13016
   13020   13024   13028   13032   13036   13040   13044   13048   13052   13056
   13060   13064   13068   13072   13076   13080   13084   13088   13092   13096
   13100   13104   13108   13112   13116   13120   13124   13128   13132   13136
   13140   13144   13148   13152   13156   13160   13164   13168   13172   13176
   13180   13184   13188   13192   13196   13200   13204   13208   13212   13216
   13220   13224   13228   13232   13236   13240   13244   13248   13252   13256
   13260   13264   13268   13272   13276   13280   13284   13288   13292   13296
   13300   13304   13308   13312   13316   13320   13324   13328   13332   13336
   13340   13344   13348   13352   13356   13360   13364   13368   13372   13376
   13380   13384   13388   13392   13396   13400   13404   13408   13412   13416
   13420   13424   13428   13432   13436   13440   13444   13448   13452   13456
   13460   13464   13468   13472   13476   13480   13484   13488   13492   13496
   13500   13504   13508   13512   13516   13520   13524   13528   13532   13536
   13540   13544   13548   13552   13556   13560   13564   13568   13572   13576
   13580   13584   13588   13592   13596   13600   13604   13608   13612   13616
   13620   13624   13628   13632   13636   13640   13644   13648   13652   13656
   13660   13664   13668   13672   13676   13680   13684   13688   13692   13696
   13700   13704   13708   13712   13716   13720   13724   13728   13732   13736
   13740   13744   13748   13752   13756   13760   13764   13768   13772   13776
   13780   13784   13788   13792   13796   13800   13804   13808   13812   13816
   13820   13824   13828   13832   13836   13840   13844   13848   13852   13856
   13860   13864   13868   13872   13876   13880   13884   13888   13892   13896
   13900   13904   13908   13912   13916   13920   13924   13928   13932   13936
   13940   13944   13948   13952   13956   13960   13964   13968   13972   13976
   13980   13984   13988   13992   13996   14000   14004   14008   14012   14016
   14020   14024   14028   14032   14036   14040   14044   14048   14052   14056
   14060   14064   14068   14072   14076   14080   14084   14088   14092   14096
   14100   14104   14108   14112   14116   14120   14124   14128   14132   14136
   14140   14144   14148   14152   14156   14160   14164   14168   14172   14176
   14180   14184   14188   14192   14196   14200   14204   14208   14212   14216
   14220   14224   14228   14232   14236   14240   14244   14248   14252   14256
   14260   14264   14268   14272   14276   14280   14284   14288   14292   14296
   14300   14304   14308   14312   14316   14320   14324   14328   14332   14336
   14340   14344   14348   14352   14356   14360   14364   14368   14372   14376
   14380   14384   14388   14392   14396   14400   14404   14408   14412   14416
   14420   14424   14428   14432   14436   14440   14444   14448   14452   14456
   14460   14464   14468   14472   14476   14480   14484   14488   14492   14496
   14500   14504   14508   14512   14516   14520   14524   14528   14532   14536
   14540   14544   14548   14552   14556   14560   14564   14568   14572   14576
   14580   14584   14588   14592   14596   14600   14604   14608   14612   14616
   14620   14624   14628   14632   14636   14640   14644   14648   14652   14656
   14660   14664   14668   14672   14676   14680   14684   14688   14692   14696
   14700   14704   14708   14712   14716   14720   14724   14728   14732   14736
   14740   14744   14748   14752   14756   14760   14764   14768   14772   14776
   14780   14784   14788   14792   14796   14800   14804   14808   14812   14816
   14820   14824   14828   14832   14836   14840   14844   14848   14852   14856
   14860   14864   14868   14872   14876   14880   14884   14888   14892   14896
   14900   14904   14908   14912   14916   14920   14924   14928   14932   14936
   14940   14944   14948   14952   14956   14960   14964   14968   14972   14976
   14980   14984   14988   14992   14996   15000   15004   15008   15012   15016
   15020   15024   15028   15032   15036   15040   15044   15048   15052   15056
   15060   15064   15068   15072   15076   15080   15084   15088   15092   15096
   15100   15104   15108   15112   15116   15120   15124   15128   15132   15136
   15140   15144   15148   15152   15156   15160   15164   15168   15172   15176
   15180   15184   15188   15192   15196   15200   15204   15208   15212   15216
   15220   15224   15228   15232   15236   15240   15244   15248   15252   15256
   15260   15264   15268   15272   15276   15280   15284   15288   15292   15296
   15300   15304   15308   15312   15316   15320   15324   15328   15332   15336
   15340   15344   15348   15352   15356   15360   15364   15368   15372   15376
   15380   15384   15388   15392   15396   15400   15404   15408   15412   15416
   15420   15424   15428   15432   15436   15440   15444   15448   15452   15456
   15460   15464   15468   15472   15476   15480   15484   15488   15492   15496
   15500   15504   15508   15512   15516   15520   15524   15528   15532   15536
   15540   15544   15548   15552   15556   15560   15564   15568   15572   15576
   15580   15584   15588   15592   15596   15600   15604   15608   15612   15616
   15620   15624   15628   15632   15636   15640   15644   15648   15652   15656
   15660   15664   15668   15672   15676   15680   15684   15688   15692   15696
   15700   15704   15708   15712   15716   15720   15724   15728   15732   15736
   15740   15744   15748   15752   15756   15760   15764   15768   15772   15776
   15780   15784   15788   15792   15796   15800   15804   15808   15812   15816
   15820   15824   15828   15832   15836   15840   15844   15848   15852   15856
   15860   15864   15868   15872   15876   15880   15884   15888   15892   15896
   15900   15904   15908   15912   15916   15920   15924   15928   15932   15936
   15940   15944   15948   15952   15956   15960   15964   15968   15972   15976
   15980   15984   15988   15992   15996   16000   16004   16008   16012   16016
   16020   16024   16028   16032   16036   16040   16044   16048   16052   16056
   16060   16064   16068   16072   16076   16080   16084   16088   16092   16096
   16100   16104   16108   16112   16116   16120   16124   16128   16132   16136
   16140   16144   16148   16152   16156   16160   16164   16168   16172   16176
   16180   16184   16188   16192   16196   16200   16204   16208   16212   16216
   16220   16224   16228   16232   16236   16240   16244   16248   16252   16256
   16260   16264   16268   16272   16276   16280   16284   16288   16292   16296
   16300   16304   16308   16312   16316   16320   16324   16328   16332   16336
   16340   16344   16348   16352   16356   16360   16364   16368   16372   16376
   16380   16384   16388   16392   16396   16400   16404   16408   16412   16416
   16420   16424   16428   16432   16436   16440   16444   16448   16452   16456
   16460   16464   16468   16472   16476   16480   16484   16488   16492   16496
   16500   16504   16508   16512   16516   16520   16524   16528   16532   16536
   16540   16544   16548   16552   16556   16560   16564   16568   16572   16576
   16580   16584   16588   16592   16596   16600   16604   16608   16612   16616
   16620   16624   16628   16632   16636   16640   16644   16648   16652   16656
   16660   16664   16668   16672   16676   16680   16684   16688   16692   16696
   16700   16704   16708   16712   16716   16720   16724   16728   16732   16736
   16740   16744   16748   16752   16756   16760   16764   16768   16772   16776
   16780   16784   16788   16792   16796   16800   16804   16808   16812   16816
   16820   16824   16828   16832   16836   16840   16844   16848   16852   16856
   16860   16864   16868   16872   16876   16880   16884   16888   16892   16896
   16900   16904   16908   16912   16916   16920   16924   16928   16932   16936
   16940   16944   16948   16952   16956   16960   16964   16968   16972   16976
   16980   16984   16988   16992   16996   17000   17004   17008   17012   17016
   17020   17024   17028   17032   17036   17040   17044   17048   17052   17056
   17060   17064   17068   17072   17076   17080   17084   17088   17092   17096
   17100   17104   17108   17112   17116   17120   17124   17128   17132   17136
   17140   17144   17148   17152   17156   17160   17164   17168   17172   17176
   17180   17184   17188   17192   17196   17200   17204   17208   17212   17216
   17220   17224   17228   17232   17236   17240   17244   17248   17252   17256
   17260   17264   17268   17272   17276   17280   17284   17288   17292   17296
   17300   17304   17308   17312   17316   17320   17324   17328   17332   17336
   17340   17344   17348   17352   17356   17360   17364   17368   17372   17376
   17380   17384   17388   17392   17396   17400   17404   17408   17412   17416
   17420   17424   17428   17432   17436   17440   17444   17448   17452   17456
   17460   17464   17468   17472   17476   17480   17484   17488   17492   17496
   17500   17504   17508   17512   17516   17520   17524   17528   17532   17536
   17540   17544   17548   17552   17556   17560   17564   17568   17572   17576
   17580   17584   17588   17592   17596   17600   17604   17608   17612   17616
   17620   17624   17628   17632   17636   17640   17644   17648   17652   17656
   17660   17664   17668   17672   17676   17680   17684   17688   17692   17696
   17700   17704   17708   17712   17716   17720   17724   17728   17732   17736
   17740   17744   17748   17752   17756   17760   17764   17768   17772   17776
   17780   17784   17788   17792   17796   17800   17804   17808   17812   17816
   17820   17824   17828   17832   17836   17840   17844   17848   17852   17856
   17860   17864   17868   17872   17876   17880   17884   17888   17892   17896
   17900   17904   17908   17912   17916   17920   17924   17928   17932   17936
   17940   17944   17948   17952   17956   17960   17964   17968   17972   17976
   17980   17984   17988   17992   17996   18000   18004   18008   18012   18016
   18020   18024   18028   18032   18036   18040   18044   18048   18052   18056
   18060   18064   18068   18072   18076   18080   18084   18088   18092   18096
   18100   18104   18108   18112   18116   18120   18124   18128   18132   18136
   18140   18144   18148   18152   18156   18160   18164   18168   18172   18176
   18180   18184   18188   18192   18196   18200   18204   18208   18212   18216
   18220   18224   18228   18232   18236   18240   18244   18248   18252   18256
   18260   18264   18268   18272   18276   18280   18284   18288   18292   18296
   18300   18304   18308   18312   18316   18320   18324   18328   18332   18336
   18340   18344   18348   18352   18356   18360   18364   18368   18372   18376
   18380   18384   18388   18392   18396   18400   18404   18408   18412   18416
   18420   18424   18428   18432   18436   18440   18444   18448   18452   18456
   18460   18464   18468   18472   18476   18480   18484   18488   18492   18496
   18500   18504   18508   18512   18516   18520   18524   18528   18532   18536
   18540   18544   18548   18552   18556   18560   18564   18568   18572   18576
   18580   18584   18588   18592   18596   18600   18604   18608   18612   18616
   18620   18624   18628   18632   18636   18640   18644   18648   18652   18656
   18660   18664   18668   18672   18676   18680   18684   18688   18692   18696
   18700   18704   18708   18712   18716   18720   18724   18728   18732   18736
   18740   18744   18748   18752   18756   18760   18764   18768   18772   18776
   18780   18784   18788   18792   18796   18800   18804   18808   18812   18816
   18820   18824   18828   18832   18836   18840   18844   18848   18852   18856
   18860   18864   18868   18872   18876   18880   18884   18888   18892   18896
   18900   18904   18908   18912   18916   18920   18924   18928   18932   18936
   18940   18944   18948   18952   18956   18960   18964   18968   18972   18976
   18980   18984   18988   18992   18996   19000   19004   19008   19012   19016
   19020   19024   19028   19032   19036   19040   19044   19048   19052   19056
   19060   19064   19068   19072   19076   19080   19084   19088   19092   19096
   19100   19104   19108   19112   19116   19120   19124   19128   19132   19136
   19140   19144   19148   19152   19156   19160   19164   19168   19172   19176
   19180   19184   19188   19192   19196   19200   19204   19208   19212   19216
   19220   19224   19228   19232   19236   19240   19244   19248   19252   19256
   19260   19264   19268   19272   19276   19280   19284   19288   19292   19296
   19300   19304   19308   19312   19316   19320   19324   19328   19332   19336
   19340   19344   19348   19352   19356   19360   19364   19368   19372   19376
   19380   19384   19388   19392   19396   19400   19404   19408   19412   19416
   19420   19424   19428   19432   19436   19440   19444   19448   19452   19456
   19460   19464   19468   19472   19476   19480   19484   19488   19492   19496
   19500   19504   19508   19512   19516   19520   19524   19528   19532   19536
   19540   19544   19548   19552   19556   19560   19564   19568   19572   19576
   19580   19584   19588   19592   19596   19600   19604   19608   19612   19616
   19620   19624   19628   19632   19636   19640   19644   19648   19652   19656
   19660   19664   19668   19672   19676   19680   19684   19688   19692   19696
   19700   19704   19708   19712   19716   19720   19724   19728   19732   19736
   19740   19744   19748   19752   19756   19760   19764   19768   19772   19776
   19780   19784   19788   19792   19796   19800   19804   19808   19812   19816
   19820   19824   19828   19832   19836   19840   19844   19848   19852   19856
   19860   19864   19868   19872   19876   19880   19884   19888   19892   19896
   19900   19904   19908   19912   19916   19920   19924   19928   19932   19936
   19940   19944   19948   19952   19956   19960   19964   19968   19972   19976
   19980   19984   19988   19992   19996   20000   20004   20008   20012   20016
   20020   20024   20028   20032   20036   20040   20044   20048   20052   20056
   20060   20064   20068   20072   20076   20080   20084   20088   20092   20096
   20100   20104   20108   20112   20116   20120   20124   20128   20132   20136
   20140   20144   20148   20152   20156   20160   20164   20168   20172   20176
   20180   20184   20188   20192   20196   20200   20204   20208   20212   20216
   20220   20224   20228   20232   20236   20240   20244   20248   20252   20256
   20260   20264   20268   20272   20276   20280   20284   20288   20292   20296
   20300   20304   20308   20312   20316   20320   20324   20328   20332   20336
   20340   20344   20348   20352   20356   20360   20364   20368   20372   20376
   20380   20384   20388   20392   20396   20400   20404   20408   20412   20416
   20420   20424   20428   20432   20436   20440   20444   20448   20452   20456
   20460   20464   20468   20472   20476   20480   20484   20488   20492   20496
   20500   20504   20508   20512   20516   20520   20524   20528   20532   20536
   20540   20544   20548   20552   20556   20560   20564   20568   20572   20576
   20580   20584   20588   20592   20596   20600   20604   20608   20612   20616
   20620   20624   20628   20632   20636   20640   20644   20648   20652   20656
   20660   20664   20668   20672   20676   20680   20684   20688   20692   20696
   20700   20704   20708   20712   20716   20720   20724   20728   20732   20736
   20740   20744   20748   20752   20756   20760   20764   20768   20772   20776
   20780   20784   20788   20792   20796   20800   20804   20808   20812   20816
   20820   20824   20828   20832   20836   20840   20844   20848   20852   20856
   20860   20864   20868   20872   20876   20880   20884   20888   20892   20896
   20900   20904   20908   20912   20916   20920   20924   20928   20932   20936
   20940   20944   20948   20952   20956   20960   20964   20968   20972   20976
   20980   20984   20988   20992   20996   21000   21004   21008   21012   21016
   21020   21024   21028   21032   21036   21040   21044   21048   21052   21056
   21060   21064   21068   21072   21076   21080   21084   21088   21092   21096
   21100   21104   21108   21112   21116   21120   21124   21128   21132   21136
   21140   21144   21148   21152   21156   21160   21164   21168   21172   21176
   21180   21184   21188   21192   21196   21200   21204   21208   21212   21216
   21220   21224   21228   21232   21236   21240   21244   21248   21252   21256
   21260   21264   21268   21272   21276   21280   21284   21288   21292   21296
   21300   21304   21308   21312   21316   21320   21324   21328   21332   21336
   21340   21344   21348   21352   21356   21360   21364   21368   21372   21376
   21380   21384   21388   21392   21396   21400   21404   21408   21412   21416
   21420   21424   21428   21432   21436   21440   21444   21448   21452   21456
   21460   21464   21468   21472   21476   21480   21484   21488   21492   21496
   21500   21504   21508   21512   21516   21520   21524   21528   21532   21536
   21540   21544   21548   21552   21556   21560   21564   21568   21572   21576
   21580   21584   21588   21592   21596   21600   21604   21608   21612   21616
   21620   21624   21628   21632   21636   21640   21644   21648   21652   21656
   21660   21664   21668   21672   21676   21680   21684   21688   21692   21696
   21700   21704   21708   21712   21716   21720   21724   21728   21732   21736
   21740   21744   21748   21752   21756   21760   21764   21768   21772   21776
   21780   21784   21788   21792   21796   21800   21804   21808   21812   21816
   21820   21824   21828   21832   21836   21840   21844   21848   21852   21856
   21860   21864   21868   21872   21876   21880   21884   21888   21892   21896
   21900   21904   21908   21912   21916   21920   21924   21928   21932   21936
   21940   21944   21948   21952   21956   21960   21964   21968   21972   21976
   21980   21984   21988   21992   21996   22000   22004   22008   22012   22016
   22020   22024   22028   22032   22036   22040   22044   22048   22052   22056
   22060   22064   22068   22072   22076   22080   22084   22088   22092   22096
   22100   22104   22108   22112   22116   22120   22124   22128   22132   22136
   22140   22144   22148   22152   22156   22160   22164   22168   22172   22176
   22180   22184   22188   22192   22196   22200   22204   22208   22212   22216
   22220   22224   22228   22232   22236   22240   22244   22248   22252   22256
   22260   22264   22268   22272   22276   22280   22284   22288   22292   22296
   22300   22304   22308   22312   22316   22320   22324   22328   22332   22336
   22340   22344   22348   22352   22356   22360   22364   22368   22372   22376
   22380   22384   22388   22392   22396   22400   22404   22408   22412   22416
   22420   22424   22428   22432   22436   22440   22444   22448   22452   22456
   22460   22464   22468   22472   22476   22480   22484   22488   22492   22496
   22500   22504   22508   22512   22516   22520   22524   22528   22532   22536
   22540   22544   22548   22552   22556   22560   22564   22568   22572   22576
   22580   22584   22588   22592   22596   22600   22604   22608   22612   22616
   22620   22624   22628   22632   22636   22640   22644   22648   22652   22656
   22660   22664   22668   22672   22676   22680   22684   22688   22692   22696
   22700   22704   22708   22712   22716   22720   22724   22728   22732   22736
   22740   22744   22748   22752   22756   22760   22764   22768   22772   22776
   22780   22784   22788   22792   22796   22800   22804   22808   22812   22816
   22820   22824   22828   22832   22836   22840   22844   22848   22852   22856
   22860   22864   22868   22872   22876   22880   22884   22888   22892   22896
   22900   22904   22908   22912   22916   22920   22924   22928   22932   22936
   22940   22944   22948   22952   22956   22960   22964   22968   22972   22976
   22980   22984   22988   22992   22996   23000   23004   23008   23012   23016
   23020   23024   23028   23032   23036   23040   23044   23048   23052   23056
   23060   23064   23068   23072   23076   23080   23084   23088   23092   23096
   23100   23104   23108   23112   23116   23120   23124   23128   23132   23136
   23140   23144   23148   23152   23156   23160   23164   23168   23172   23176
   23180   23184   23188   23192   23196   23200   23204   23208   23212   23216
   23220   23224   23228   23232   23236   23240   23244   23248   23252   23256
   23260   23264   23268   23272   23276   23280   23284   23288   23292   23296
   23300   23304   23308   23312   23316   23320   23324   23328   23332   23336
   23340   23344   23348   23352   23356   23360   23364   23368   23372   23376
   23380   23384   23388   23392   23396   23400   23404   23408   23412   23416
   23420   23424   23428   23432   23436   23440   23444   23448   23452   23456
   23460   23464   23468   23472   23476   23480   23484   23488   23492   23496
   23500   23504   23508   23512   23516   23520   23524   23528   23532   23536
   23540   23544   23548   23552   23556   23560   23564   23568   23572   23576
   23580   23584   23588   23592   23596   23600   23604   23608   23612   23616
   23620   23624   23628   23632   23636   23640   23644   23648   23652   23656
   23660   23664   23668   23672   23676   23680   23684   23688   23692   23696
   23700   23704   23708   23712   23716   23720   23724   23728   23732   23736
   23740   23744   23748   23752   23756   23760   23764   23768   23772   23776
   23780   23784   23788   23792   23796   23800   23804   23808   23812   23816
   23820   23824   23828   23832   23836   23840   23844   23848   23852   23856
   23860   23864   23868   23872   23876   23880   23884   23888   23892   23896
   23900   23904   23908   23912   23916   23920   23924   23928   23932   23936
   23940   23944   23948   23952   23956   23960   23964   23968   23972   23976
   23980   23984   23988   23992   23996   24000   24004   24008   24012   24016
   24020   24024   24028   24032   24036   24040   24044   24048   24052   24056
   24060   24064   24068   24072   24076   24080   24084   24088   24092   24096
   24100   24104   24108   24112   24116   24120   24124   24128   24132   24136
   24140   24144   24148   24152   24156   24160   24164   24168   24172   24176
   24180   24184   24188   24192   24196   24200   24204   24208   24212   24216
   24220   24224   24228   24232   24236   24240   24244   24248   24252   24256
   24260   24264   24268   24272   24276   24280   24284   24288   24292   24296
   24300   24304   24308   24312   24316   24320   24324   24328   24332   24336
   24340   24344   24348   24352   24356   24360   24364   24368   24372   24376
   24380   24384   24388   24392   24396   24400   24404   24408   24412   24416
   24420   24424   24428   24432   24436   24440   24444   24448   24452   24456
   24460   24464   24468   24472   24476   24480   24484   24488   24492   24496
   24500   24504   24508   24512   24516   24520   24524   24528   24532   24536
   24540   24544   24548   24552   24556   24560   24564   24568   24572   24576
   24580   24584   24588   24592   24596   24600   24604   24608   24612   24616
   24620   24624   24628   24632   24636   24640   24644   24648   24652   24656
   24660   24664   24668   24672   24676   24680   24684   24688   24692   24696
   24700   24704   24708   24712   24716   24720   24724   24728   24732   24736
   24740   24744   24748   24752   24756   24760   24764   24768   24772   24776
   24780   24784   24788   24792   24796   24800   24804   24808   24812   24816
   24820   24824   24828   24832   24836   24840   24844   24848   24852   24856
   24860   24864   24868   24872   24876   24880   24884   24888   24892   24896
   24900   24904   24908   24912   24916   24920   24924   24928   24932   24936
   24940   24944   24948   24952   24956   24960   24964   24968   24972   24976
   24980   24984   24988   24992   24996   25000   25004   25008   25012   25016
   25020   25024   25028   25032   25036   25040   25044   25048   25052   25056
   25060   25064   25068   25072   25076   25080   25084   25088   25092   25096
   25100   25104   25108   25112   25116   25120   25124   25128   25132   25136
   25140   25144   25148   25152   25156   25160   25164   25168   25172   25176
   25180   25184   25188   25192   25196   25200   25204   25208   25212   25216
   25220   25224   25228   25232   25236   25240   25244   25248   25252   25256
   25260   25264   25268   25272   25276   25280   25284   25288   25292   25296
   25300   25304   25308   25312   25316   25320   25324   25328   25332   25336
   25340   25344   25348   25352   25356   25360   25364   25368   25372   25376
   25380   25384   25388   25392   25396   25400   25404   25408   25412   25416
   25420   25424   25428   25432   25436   25440   25444   25448   25452   25456
   25460   25464   25468   25472   25476   25480   25484   25488   25492   25496
   25500   25504   25508   25512   25516   25520   25524   25528   25532   25536
   25540   25544   25548   25552   25556   25560   25564   25568   25572   25576
   25580   25584   25588   25592   25596   25600   25604   25608   25612   25616
   25620   25624   25628   25632   25636   25640   25644   25648   25652   25656
   25660   25664   25668   25672   25676   25680   25684   25688   25692   25696
   25700   25704   25708   25712   25716   25720   25724   25728   25732   25736
   25740   25744   25748   25752   25756   25760   25764   25768   25772   25776
   25780   25784   25788   25792   25796   25800   25804   25808   25812   25816
   25820   25824   25828   25832   25836   25840   25844   25848   25852   25856
   25860   25864   25868   25872   25876   25880   25884   25888   25892   25896
   25900   25904   25908   25912   25916   25920   25924   25928   25932   25936
   25940   25944   25948   25952   25956   25960   25964   25968   25972   25976
   25980   25984   25988   25992   25996   26000   26004   26008   26012   26016
   26020   26024   26028   26032   26036   26040   26044   26048   26052   26056
   26060   26064   26068   26072   26076   26080   26084   26088   26092   26096
   26100   26104   26108   26112   26116   26120   26124   26128   26132   26136
   26140   26144   26148   26152   26156   26160   26164   26168   26172   26176
   26180   26184   26188   26192   26196   26200   26204   26208   26212   26216
   26220   26224   26228   26232   26236   26240   26244   26248   26252   26256
   26260   26264   26268   26272   26276   26280   26284   26288   26292   26296
   26300   26304   26308   26312   26316   26320   26324   26328   26332   26336
   26340   26344   26348   26352   26356   26360   26364   26368   26372   26376
   26380   26384   26388   26392   26396   26400   26404   26408   26412   26416
   26420   26424   26428   26432   26436   26440   26444   26448   26452   26456
   26460   26464   26468   26472   26476   26480   26484   26488   26492   26496
   26500   26504   26508   26512   26516   26520   26524   26528   26532   26536
   26540   26544   26548   26552   26556   26560   26564   26568   26572   26576
   26580   26584   26588   26592   26596   26600   26604   26608   26612   26616
   26620   26624   26628   26632   26636   26640   26644   26648   26652   26656
   26660   26664   26668   26672   26676   26680   26684   26688   26692   26696
   26700   26704   26708   26712   26716   26720   26724   26728   26732   26736
   26740   26744   26748   26752   26756   26760   26764   26768   26772   26776
   26780   26784   26788   26792   26796   26800   26804   26808   26812   26816
   26820   26824   26828   26832   26836   26840   26844   26848   26852   26856
   26860   26864   26868   26872   26876   26880   26884   26888   26892   26896
   26900   26904   26908   26912   26916   26920   26924   26928   26932   26936
   26940   26944   26948   26952   26956   26960   26964   26968   26972   26976
   26980   26984   26988   26992   26996   27000   27004   27008   27012   27016
   27020   27024   27028   27032   27036   27040   27044   27048   27052   27056
   27060   27064   27068   27072   27076   27080   27084   27088   27092   27096
   27100   27104   27108   27112   27116   27120   27124   27128   27132   27136
   27140   27144   27148   27152   27156   27160   27164   27168   27172   27176
   27180   27184   27188   27192   27196   27200   27204   27208   27212   27216
   27220   27224   27228   27232   27236   27240   27244   27248   27252   27256
   27260   27264   27268   27272   27276   27280   27284   27288   27292   27296
   27300   27304   27308   27312   27316   27320   27324   27328   27332   27336
   27340   27344   27348   27352   27356   27360   27364   27368   27372   27376
   27380   27384   27388   27392   27396   27400   27404   27408   27412   27416
   27420   27424   27428   27432   27436   27440   27444   27448   27452   27456
   27460   27464   27468   27472   27476   27480   27484   27488   27492   27496
   27500   27504   27508   27512   27516   27520   27524   27528   27532   27536
   27540   27544   27548   27552   27556   27560   27564   27568   27572   27576
   27580   27584   27588   27592   27596   27600   27604   27608   27612   27616
   27620   27624   27628   27632   27636   27640   27644   27648   27652   27656
   27660   27664   27668   27672   27676   27680   27684   27688   27692   27696
   27700   27704   27708   27712   27716   27720   27724   27728   27732   27736
   27740   27744   27748   27752   27756   27760   27764   27768   27772   27776
   27780   27784   27788   27792   27796   27800   27804   27808   27812   27816
   27820   27824   27828   27832   27836   27840   27844   27848   27852   27856
   27860   27864   27868   27872   27876   27880   27884   27888   27892   27896
   27900   27904   27908   27912   27916   27920   27924   27928   27932   27936
   27940   27944   27948   27952   27956   27960   27964   27968   27972   27976
   27980   27984   27988   27992   27996   28000   28004   28008   28012   28016
   28020   28024   28028   28032   28036   28040   28044   28048   28052   28056
   28060   28064   28068   28072   28076   28080   28084   28088   28092   28096
   28100   28104   28108   28112   28116   28120   28124   28128   28132   28136
   28140   28144   28148   28152   28156   28160   28164   28168   28172   28176
   28180   28184   28188   28192   28196   28200   28204   28208   28212   28216
   28220   28224   28228   28232   28236   28240   28244   28248   28252   28256
   28260   28264   28268   28272   28276   28280   28284   28288   28292   28296
   28300   28304   28308   28312   28316   28320   28324   28328   28332   28336
   28340   28344   28348   28352   28356   28360   28364   28368   28372   28376
   28380   28384   28388   28392   28396   28400   28404   28408   28412   28416
   28420   28424   28428   28432   28436   28440   28444   28448   28452   28456
   28460   28464   28468   28472   28476   28480   28484   28488   28492   28496
   28500   28504   28508   28512   28516   28520   28524   28528   28532   28536
   28540   28544   28548   28552   28556   28560   28564   28568   28572   28576
   28580   28584   28588   28592   28596   28600   28604   28608   28612   28616
   28620   28624   28628   28632   28636   28640   28644   28648   28652   28656
   28660   28664   28668   28672   28676   28680   28684   28688   28692   28696
   28700   28704   28708   28712   28716   28720   28724   28728   28732   28736
   28740   28744   28748   28752   28756   28760   28764   28768   28772   28776
   28780   28784   28788   28792   28796   28800   28804   28808   28812   28816
   28820   28824   28828   28832   28836   28840   28844   28848   28852   28856
   28860   28864   28868   28872   28876   28880   28884   28888   28892   28896
   28900   28904   28908   28912   28916   28920   28924   28928   28932   28936
   28940   28944   28948   28952   28956   28960   28964   28968   28972   28976
   28980   28984   28988   28992   28996   29000   29004   29008   29012   29016
   29020   29024   29028   29032   29036   29040   29044   29048   29052   29056
   29060   29064   29068   29072   29076   29080   29084   29088   29092   29096
   29100   29104   29108   29112   29116   29120   29124   29128   29132   29136
   29140   29144   29148   29152   29156   29160   29164   29168   29172   29176
   29180   29184   29188   29192   29196   29200   29204   29208   29212   29216
   29220   29224   29228   29232   29236   29240   29244   29248   29252   29256
   29260   29264   29268   29272   29276   29280   29284   29288   29292   29296
   29300   29304   29308   29312   29316   29320   29324   29328   29332   29336
   29340   29344   29348   29352   29356   29360   29364   29368   29372   29376
   29380   29384   29388   29392   29396   29400   29404   29408   29412   29416
   29420   29424   29428   29432   29436   29440   29444   29448   29452   29456
   29460   29464   29468   29472   29476   29480   29484   29488   29492   29496
   29500   29504   29508   29512   29516   29520   29524   29528   29532   29536
   29540   29544   29548   29552   29556   29560   29564   29568   29572   29576
   29580   29584   29588   29592   29596   29600   29604   29608   29612   29616
   29620   29624   29628   29632   29636   29640   29644   29648   29652   29656
   29660   29664   29668   29672   29676   29680   29684   29688   29692   29696
   29700   29704   29708   29712   29716   29720   29724   29728   29732   29736
   29740   29744   29748   29752   29756   29760   29764   29768   29772   29776
   29780   29784   29788   29792   29796   29800   29804   29808   29812   29816
   29820   29824   29828   29832   29836   29840   29844   29848   29852   29856
   29860   29864   29868   29872   29876   29880   29884   29888   29892   29896
   29900   29904   29908   29912   29916   29920   29924   29928   29932   29936
   29940   29944   29948   29952   29956   29960   29964   29968   29972   29976
   29980   29984   29988   29992   29996   30000   30004   30008   30012   30016
   30020   30024   30028   30032   30036   30040   30044   30048   30052   30056
   30060   30064   30068   30072   30076   30080   30084   30088   30092   30096
   30100   30104   30108   30112   30116   30120   30124   30128   30132   30136
   30140   30144   30148   30152   30156   30160   30164   30168   30172   30176
   30180   30184   30188   30192   30196   30200   30204   30208   30212   30216
   30220   30224   30228   30232   30236   30240   30244   30248   30252   30256
   30260   30264   30268   30272   30276   30280   30284   30288   30292   30296
   30300   30304   30308   30312   30316   30320   30324   30328   30332   30336
   30340   30344   30348   30352   30356   30360   30364   30368   30372   30376
   30380   30384   30388   30392   30396   30400   30404   30408   30412   30416
   30420   30424   30428   30432   30436   30440   30444   30448   30452   30456
   30460   30464   30468   30472   30476   30480   30484   30488   30492   30496
   30500   30504   30508   30512   30516   30520   30524   30528   30532   30536
   30540   30544   30548   30552   30556   30560   30564   30568   30572   30576
   30580   30584   30588   30592   30596   30600   30604   30608   30612   30616
   30620   30624   30628   30632   30636   30640   30644   30648   30652   30656
   30660   30664   30668   30672   30676   30680   30684   30688   30692   30696
   30700   30704   30708   30712   30716   30720   30724   30728   30732   30736
   30740   30744   30748   30752   30756   30760   30764   30768   30772   30776
   30780   30784   30788   30792   30796   30800   30804   30808   30812   30816
   30820   30824   30828   30832   30836   30840   30844   30848   30852   30856
   30860   30864   30868   30872   30876   30880   30884   30888   30892   30896
   30900   30904   30908   30912   30916   30920   30924   30928   30932   30936
   30940   30944   30948   30952   30956   30960   30964   30968   30972   30976
   30980   30984   30988   30992   30996   31000   31004   31008   31012   31016
   31020   31024   31028   31032   31036   31040   31044   31048   31052   31056
   31060   31064   31068   31072   31076   31080   31084   31088   31092   31096
   31100   31104   31108   31112   31116   31120   31124   31128   31132   31136
   31140   31144   31148   31152   31156   31160   31164   31168   31172   31176
   31180   31184   31188   31192   31196   31200   31204   31208   31212   31216
   31220   31224   31228   31232   31236   31240   31244   31248   31252   31256
   31260   31264   31268   31272   31276   31280   31284   31288   31292   31296
   31300   31304   31308   31312   31316   31320   31324   31328   31332   31336
   31340   31344   31348   31352   31356   31360   31364   31368   31372   31376
   31380   31384   31388   31392   31396   31400   31404   31408   31412   31416
   31420   31424   31428   31432   31436   31440   31444   31448   31452   31456
   31460   31464   31468   31472   31476   31480   31484   31488   31492   31496
   31500   31504   31508   31512   31516   31520   31524   31528   31532   31536
   31540   31544   31548   31552   31556   31560   31564   31568   31572   31576
   31580   31584   31588   31592   31596   31600   31604   31608   31612   31616
   31620   31624   31628   31632   31636   31640   31644   31648   31652   31656
   31660   31664   31668   31672   31676   31680   31684   31688   31692   31696
   31700   31704   31708   31712   31716   31720   31724   31728   31732   31736
   31740   31744   31748   31752   31756   31760   31764   31768   31772   31776
   31780   31784   31788   31792   31796   31800   31804   31808   31812   31816
   31820   31824   31828   31832   31836   31840   31844   31848   31852   31856
   31860   31864   31868   31872   31876   31880   31884   31888   31892   31896
   31900   31904   31908   31912   31916   31920   31924   31928   31932   31936
   31940   31944   31948   31952   31956   31960   31964   31968   31972   31976
   31980   31984   31988   31992   31996   32000   32004   32008   32012   32016
   32020   32024   32028   32032   32036   32040   32044   32048   32052   32056
   32060   32064   32068   32072   32076   32080   32084   32088   32092   32096
   32100   32104   32108   32112   32116   32120   32124   32128   32132   32136
   32140   32144   32148   32152   32156   32160   32164   32168   32172   32176
   32180   32184   32188   32192   32196   32200   32204   32208   32212   32216
   32220   32224   32228   32232   32236   32240   32244   32248   32252   32256
   32260   32264   32268   32272   32276   32280   32284   32288   32292   32296
   32300   32304   32308   32312   32316   32320   32324   32328   32332   32336
   32340   32344   32348   32352   32356   32360   32364   32368   32372   32376
   32380   32384   32388   32392   32396   32400   32404   32408   32412   32416
   32420   32424   32428   32432   32436   32440   32444   32448   32452   32456
   32460   32464   32468   32472   32476   32480   32484   32488   32492   32496
   32500   32504   32508   32512   32516   32520   32524   32528   32532   32536
   32540   32544   32548   32552   32556   32560   32564   32568   32572   32576
   32580   32584   32588   32592   32596   32600   32604   32608   32612   32616
   32620   32624   32628   32632   32636   32640   32644   32648   32652   32656
   32660   32664   32668   32672   32676   32680   32684   32688   32692   32696
   32700   32704   32708   32712   32716   32720   32724   32728   32732   32736
   32740   32744   32748   32752   32756   32760   32764   32768   32772   32776
   32780   32784   32788   32792   32796   32800   32804   32808   32812   32816
   32820   32824   32828   32832   32836   32840   32844   32848   32852   32856
   32860   32864   32868   32872   32876   32880   32884   32888   32892   32896
   32900   32904   32908   32912   32916   32920   32924   32928   32932   32936
   32940   32944   32948   32952   32956   32960   32964   32968   32972   32976
   32980   32984   32988   32992   32996   33000   33004   33008   33012   33016
   33020   33024   33028   33032   33036   33040   33044   33048   33052   33056
   33060   33064   33068   33072   33076   33080   33084   33088   33092   33096
   33100   33104   33108   33112   33116   33120   33124   33128   33132   33136
   33140   33144   33148   33152   33156   33160   33164   33168   33172   33176
   33180   33184   33188   33192   33196   33200   33204   33208   33212   33216
   33220   33224   33228   33232   33236   33240   33244   33248   33252   33256
   33260   33264   33268   33272   33276   33280   33284   33288   33292   33296
   33300   33304   33308   33312   33316   33320   33324   33328   33332   33336
   33340   33344   33348   33352   33356   33360   33364   33368   33372   33376
   33380   33384   33388   33392   33396   33400   33404   33408   33412   33416
   33420   33424   33428   33432   33436   33440   33444   33448   33452   33456
   33460   33464   33468   33472   33476   33480   33484   33488   33492   33496
   33500   33504   33508   33512   33516   33520   33524   33528   33532   33536
   33540   33544   33548   33552   33556   33560   33564   33568   33572   33576
   33580   33584   33588   33592   33596   33600   33604   33608   33612   33616
   33620   33624   33628   33632   33636   33640   33644   33648   33652   33656
   33660   33664   33668   33672   33676   33680   33684   33688   33692   33696
   33700   33704   33708   33712   33716   33720   33724   33728   33732   33736
   33740   33744   33748   33752   33756   33760   33764   33768   33772   33776
   33780   33784   33788   33792   33796   33800   33804   33808   33812   33816
   33820   33824   33828   33832   33836   33840   33844   33848   33852   33856
   33860   33864   33868   33872   33876   33880   33884   33888   33892   33896
   33900   33904   33908   33912   33916   33920   33924   33928   33932   33936
   33940   33944   33948   33952   33956   33960   33964   33968   33972   33976
   33980   33984   33988   33992   33996   34000   34004   34008   34012   34016
   34020   34024   34028   34032   34036   34040   34044   34048   34052   34056
   34060   34064   34068   34072   34076   34080   34084   34088   34092   34096
   34100   34104   34108   34112   34116   34120   34124   34128   34132   34136
   34140   34144   34148   34152   34156   34160   34164   34168   34172   34176
   34180   34184   34188   34192   34196   34200   34204   34208   34212   34216
   34220   34224   34228   34232   34236   34240   34244   34248   34252   34256
   34260   34264   34268   34272   34276   34280   34284   34288   34292   34296
   34300   34304   34308   34312   34316   34320   34324   34328   34332   34336
   34340   34344   34348   34352   34356   34360   34364   34368   34372   34376
   34380   34384   34388   34392   34396   34400   34404   34408   34412   34416
   34420   34424   34428   34432   34436   34440   34444   34448   34452   34456
   34460   34464   34468   34472   34476   34480   34484   34488   34492   34496
   34500   34504   34508   34512   34516   34520   34524   34528   34532   34536
   34540   34544   34548   34552   34556   34560   34564   34568   34572   34576
   34580   34584   34588   34592   34596   34600   34604   34608   34612   34616
   34620   34624   34628   34632   34636   34640   34644   34648   34652   34656
   34660   34664   34668   34672   34676   34680   34684   34688   34692   34696
   34700   34704   34708   34712   34716   34720   34724   34728   34732   34736
   34740   34744   34748   34752   34756   34760   34764   34768   34772   34776
   34780   34784   34788   34792   34796   34800   34804   34808   34812   34816
   34820   34824   34828   34832   34836   34840   34844   34848   34852   34856
   34860   34864   34868   34872   34876   34880   34884   34888   34892   34896
   34900   34904   34908   34912   34916   34920   34924   34928   34932   34936
   34940   34944   34948   34952   34956   34960   34964   34968   34972   34976
   34980   34984   34988   34992   34996   35000   35004   35008   35012   35016
   35020   35024   35028   35032   35036   35040   35044   35048   35052   35056
   35060   35064   35068   35072   35076   35080   35084   35088   35092   35096
   35100   35104   35108   35112   35116   35120   35124   35128   35132   35136
   35140   35144   35148   35152   35156   35160   35164   35168   35172   35176
   35180   35184   35188   35192   35196   35200   35204   35208   35212   35216
   35220   35224   35228   35232   35236   35240   35244   35248   35252   35256
   35260   35264   35268   35272   35276   35280   35284   35288   35292   35296
   35300   35304   35308   35312   35316   35320   35324   35328   35332   35336
   35340   35344   35348   35352   35356   35360   35364   35368   35372   35376
   35380   35384   35388   35392   35396   35400   35404   35408   35412   35416
   35420   35424   35428   35432   35436   35440   35444   35448   35452   35456
   35460   35464   35468   35472   35476   35480   35484   35488   35492   35496
   35500   35504   35508   35512   35516   35520   35524   35528   35532   35536
   35540   35544   35548   35552   35556   35560   35564   35568   35572   35576
   35580   35584   35588   35592   35596   35600   35604   35608   35612   35616
   35620   35624   35628   35632   35636   35640   35644   35648   35652   35656
   35660   35664   35668   35672   35676   35680   35684   35688   35692   35696
   35700   35704   35708   35712   35716   35720   35724   35728   35732   35736
   35740   35744   35748   35752   35756   35760   35764   35768   35772   35776
   35780   35784   35788   35792   35796   35800   35804   35808   35812   35816
   35820   35824   35828   35832   35836   35840   35844   35848   35852   35856
   35860   35864   35868   35872   35876   35880   35884   35888   35892   35896
   35900   35904   35908   35912   35916   35920   35924   35928   35932   35936
   35940   35944   35948   35952   35956   35960   35964   35968   35972   35976
   35980   35984   35988   35992   35996   36000   36004   36008   36012   36016
   36020   36024   36028   36032   36036   36040   36044   36048   36052   36056
   36060   36064   36068   36072   36076   36080   36084   36088   36092   36096
   36100   36104   36108   36112   36116   36120   36124   36128   36132   36136
   36140   36144   36148   36152   36156   36160   36164   36168   36172   36176
   36180   36184   36188   36192   36196   36200   36204   36208   36212   36216
   36220   36224   36228   36232   36236   36240   36244   36248   36252   36256
   36260   36264   36268   36272   36276   36280   36284   36288   36292   36296
   36300   36304   36308   36312   36316   36320   36324   36328   36332   36336
   36340   36344   36348   36352   36356   36360   36364   36368   36372   36376
   36380   36384   36388   36392   36396   36400   36404   36408   36412   36416
   36420   36424   36428   36432   36436   36440   36444   36448   36452   36456
   36460   36464   36468   36472   36476   36480   36484   36488   36492   36496
   36500   36504   36508   36512   36516   36520   36524   36528   36532   36536
   36540   36544   36548   36552   36556   36560   36564   36568   36572   36576
   36580   36584   36588   36592   36596   36600   36604   36608   36612   36616
   36620   36624   36628   36632   36636   36640   36644   36648   36652   36656
   36660   36664   36668   36672   36676   36680   36684   36688   36692   36696
   36700   36704   36708   36712   36716   36720   36724   36728   36732   36736
   36740   36744   36748   36752   36756   36760   36764   36768   36772   36776
   36780   36784   36788   36792   36796   36800   36804   36808   36812   36816
   36820   36824   36828   36832   36836   36840   36844   36848   36852   36856
   36860   36864   36868   36872   36876   36880   36884   36888   36892   36896
   36900   36904   36908   36912   36916   36920   36924   36928   36932   36936
   36940   36944   36948   36952   36956   36960   36964   36968   36972   36976
   36980   36984   36988   36992   36996   37000   37004   37008   37012   37016
   37020   37024   37028   37032   37036   37040   37044   37048   37052   37056
   37060   37064   37068   37072   37076   37080   37084   37088   37092   37096
   37100   37104   37108   37112   37116   37120   37124   37128   37132   37136
   37140   37144   37148   37152   37156   37160   37164   37168   37172   37176
   37180   37184   37188   37192   37196   37200   37204   37208   37212   37216
   37220   37224   37228   37232   37236   37240   37244   37248   37252   37256
   37260   37264   37268   37272   37276   37280   37284   37288   37292   37296
   37300   37304   37308   37312   37316   37320   37324   37328   37332   37336
   37340   37344   37348   37352   37356   37360   37364   37368   37372   37376
   37380   37384   37388   37392   37396   37400   37404   37408   37412   37416
   37420   37424   37428   37432   37436   37440   37444   37448   37452   37456
   37460   37464   37468   37472   37476   37480   37484   37488   37492   37496
   37500   37504   37508   37512   37516   37520   37524   37528   37532   37536
   37540   37544   37548   37552   37556   37560   37564   37568   37572   37576
   37580   37584   37588   37592   37596   37600   37604   37608   37612   37616
   37620   37624   37628   37632   37636   37640   37644   37648   37652   37656
   37660   37664   37668   37672   37676   37680   37684   37688   37692   37696
   37700   37704   37708   37712   37716   37720   37724   37728   37732   37736
   37740   37744   37748   37752   37756   37760   37764   37768   37772   37776
   37780   37784   37788   37792   37796   37800   37804   37808   37812   37816
   37820   37824   37828   37832   37836   37840   37844   37848   37852   37856
   37860   37864   37868   37872   37876   37880   37884   37888   37892   37896
   37900   37904   37908   37912   37916   37920   37924   37928   37932   37936
   37940   37944   37948   37952   37956   37960   37964   37968   37972   37976
   37980   37984   37988   37992   37996   38000   38004   38008   38012   38016
   38020   38024   38028   38032   38036   38040   38044   38048   38052   38056
   38060   38064   38068   38072   38076   38080   38084   38088   38092   38096
   38100   38104   38108   38112   38116   38120   38124   38128   38132   38136
   38140   38144   38148   38152   38156   38160   38164   38168   38172   38176
   38180   38184   38188   38192   38196   38200   38204   38208   38212   38216
   38220   38224   38228   38232   38236   38240   38244   38248   38252   38256
   38260   38264   38268   38272   38276   38280   38284   38288   38292   38296
   38300   38304   38308   38312   38316   38320   38324   38328   38332   38336
   38340   38344   38348   38352   38356   38360   38364   38368   38372   38376
   38380   38384   38388   38392   38396   38400   38404   38408   38412   38416
   38420   38424   38428   38432   38436   38440   38444   38448   38452   38456
   38460   38464   38468   38472   38476   38480   38484   38488   38492   38496
   38500   38504   38508   38512   38516   38520   38524   38528   38532   38536
   38540   38544   38548   38552   38556   38560   38564   38568   38572   38576
   38580   38584   38588   38592   38596   38600   38604   38608   38612   38616
   38620   38624   38628   38632   38636   38640   38644   38648   38652   38656
   38660   38664   38668   38672   38676   38680   38684   38688   38692   38696
   38700   38704   38708   38712   38716   38720   38724   38728   38732   38736
   38740   38744   38748   38752   38756   38760   38764   38768   38772   38776
   38780   38784   38788   38792   38796   38800   38804   38808   38812   38816
   38820   38824   38828   38832   38836   38840   38844   38848   38852   38856
   38860   38864   38868   38872   38876   38880   38884   38888   38892   38896
   38900   38904   38908   38912   38916   38920   38924   38928   38932   38936
   38940   38944   38948   38952   38956   38960   38964   38968   38972   38976
   38980   38984   38988   38992   38996   39000   39004   39008   39012   39016
   39020   39024   39028   39032   39036   39040   39044   39048   39052   39056
   39060   39064   39068   39072   39076   39080   39084   39088   39092   39096
   39100   39104   39108   39112   39116   39120   39124   39128   39132   39136
   39140   39144   39148   39152   39156   39160   39164   39168   39172   39176
   39180   39184   39188   39192   39196   39200   39204   39208   39212   39216
   39220   39224   39228   39232   39236   39240   39244   39248   39252   39256
   39260   39264   39268   39272   39276   39280   39284   39288   39292   39296
   39300   39304   39308   39312   39316   39320   39324   39328   39332   39336
   39340   39344   39348   39352   39356   39360   39364   39368   39372   39376
   39380   39384   39388   39392   39396   39400   39404   39408   39412   39416
   39420   39424   39428   39432   39436   39440   39444   39448   39452   39456
   39460   39464   39468   39472   39476   39480   39484   39488   39492   39496
   39500   39504   39508   39512   39516   39520   39524   39528   39532   39536
   39540   39544   39548   39552   39556   39560   39564   39568   39572   39576
   39580   39584   39588   39592   39596   39600   39604   39608   39612   39616
   39620   39624   39628   39632   39636   39640   39644   39648   39652   39656
   39660   39664   39668   39672   39676   39680   39684   39688   39692   39696
   39700   39704   39708   39712   39716   39720   39724   39728   39732   39736
   39740   39744   39748   39752   39756   39760   39764   39768   39772   39776
   39780   39784   39788   39792   39796   39800   39804   39808   39812   39816
   39820   39824   39828   39832   39836   39840   39844   39848   39852   39856
   39860   39864   39868   39872   39876   39880   39884   39888   39892   39896
   39900   39904   39908   39912   39916   39920   39924   39928   39932   39936
   39940   39944   39948   39952   39956   39960   39964   39968   39972   39976
   39980   39984   39988   39992   39996   40000   40004   40008   40012   40016
   40020   40024   40028   40032   40036   40040   40044   40048   40052   40056
   40060   40064   40068   40072   40076   40080   40084   40088   40092   40096
   40100   40104   40108   40112   40116   40120   40124   40128   40132   40136
   40140   40144   40148   40152   40156   40160   40164   40168   40172   40176
   40180   40184   40188   40192   40196   40200   40204   40208   40212   40216
   40220   40224   40228   40232   40236   40240   40244   40248   40252   40256
   40260   40264   40268   40272   40276   40280   40284   40288   40292   40296
   40300   40304   40308   40312   40316   40320   40324   40328   40332   40336
   40340   40344   40348   40352   40356   40360   40364   40368   40372   40376
   40380   40384   40388   40392   40396   40400   40404   40408   40412   40416
   40420   40424   40428   40432   40436   40440   40444   40448   40452   40456
   40460   40464   40468   40472   40476   40480   40484   40488   40492   40496
   40500   40504   40508   40512   40516   40520   40524   40528   40532   40536
   40540   40544   40548   40552   40556   40560   40564   40568   40572   40576
   40580   40584   40588   40592   40596   40600   40604   40608   40612   40616
   40620   40624   40628   40632   40636   40640   40644   40648   40652   40656
   40660   40664   40668   40672   40676   40680   40684   40688   40692   40696
   40700   40704   40708   40712   40716   40720   40724   40728   40732   40736
   40740   40744   40748   40752   40756   40760   40764   40768   40772   40776
   40780   40784   40788   40792   40796   40800   40804   40808   40812   40816
   40820   40824   40828   40832   40836   40840   40844   40848   40852   40856
   40860   40864   40868   40872   40876   40880   40884   40888   40892   40896
   40900   40904   40908   40912   40916   40920   40924   40928   40932   40936
   40940   40944   40948   40952   40956   40960   40964   40968   40972   40976
   40980   40984   40988   40992   40996   41000   41004   41008   41012   41016
   41020   41024   41028   41032   41036   41040   41044   41048   41052   41056
   41060   41064   41068   41072   41076   41080   41084   41088   41092   41096
   41100   41104   41108   41112   41116   41120   41124   41128   41132   41136
   41140   41144   41148   41152   41156   41160   41164   41168   41172   41176
   41180   41184   41188   41192   41196   41200   41204   41208   41212   41216
   41220   41224   41228   41232   41236   41240   41244   41248   41252   41256
   41260   41264   41268   41272   41276   41280   41284   41288   41292   41296
   41300   41304   41308   41312   41316   41320   41324   41328   41332   41336
   41340   41344   41348   41352   41356   41360   41364   41368   41372   41376
   41380   41384   41388   41392   41396   41400   41404   41408   41412   41416
   41420   41424   41428   41432   41436   41440   41444   41448   41452   41456
   41460   41464   41468   41472   41476   41480   41484   41488   41492   41496
   41500   41504   41508   41512   41516   41520   41524   41528   41532   41536
   41540   41544   41548   41552   41556   41560   41564   41568   41572   41576
   41580   41584   41588   41592   41596   41600   41604   41608   41612   41616
   41620   41624   41628   41632   41636   41640   41644   41648   41652   41656
   41660   41664   41668   41672   41676   41680   41684   41688   41692   41696
   41700   41704   41708   41712   41716   41720   41724   41728   41732   41736
   41740   41744   41748   41752   41756   41760   41764   41768   41772   41776
   41780   41784   41788   41792   41796   41800   41804   41808   41812   41816
   41820   41824   41828   41832   41836   41840   41844   41848   41852   41856
   41860   41864   41868   41872   41876   41880   41884   41888   41892   41896
   41900   41904   41908   41912   41916   41920   41924   41928   41932   41936
   41940   41944   41948   41952   41956   41960   41964   41968   41972   41976
   41980   41984   41988   41992   41996   42000   42004   42008   42012   42016
   42020   42024   42028   42032   42036   42040   42044   42048   42052   42056
   42060   42064   42068   42072   42076   42080   42084   42088   42092   42096
   42100   42104   42108   42112   42116   42120   42124   42128   42132   42136
   42140   42144   42148   42152   42156   42160   42164   42168   42172   42176
   42180   42184   42188   42192   42196   42200   42204   42208   42212   42216
   42220   42224   42228   42232   42236   42240   42244   42248   42252   42256
   42260   42264   42268   42272   42276   42280   42284   42288   42292   42296
   42300   42304   42308   42312   42316   42320   42324   42328   42332   42336
   42340   42344   42348   42352   42356   42360   42364   42368   42372   42376
   42380   42384   42388   42392   42396   42400   42404   42408   42412   42416
   42420   42424   42428   42432   42436   42440   42444   42448   42452   42456
   42460   42464   42468   42472   42476   42480   42484   42488   42492   42496
   42500   42504   42508   42512   42516   42520   42524   42528   42532   42536
   42540   42544   42548   42552   42556   42560   42564   42568   42572   42576
   42580   42584   42588   42592   42596   42600   42604   42608   42612   42616
   42620   42624   42628   42632   42636   42640   42644   42648   42652   42656
   42660   42664   42668   42672   42676   42680   42684   42688   42692   42696
   42700   42704   42708   42712   42716   42720   42724   42728   42732   42736
   42740   42744   42748   42752   42756   42760   42764   42768   42772   42776
   42780   42784   42788   42792   42796   42800   42804   42808   42812   42816
   42820   42824   42828   42832   42836   42840   42844   42848   42852   42856
   42860   42864   42868   42872   42876   42880   42884   42888   42892   42896
   42900   42904   42908   42912   42916   42920   42924   42928   42932   42936
   42940   42944   42948   42952   42956   42960   42964   42968   42972   42976
   42980   42984   42988   42992   42996   43000   43004   43008   43012   43016
   43020   43024   43028   43032   43036   43040   43044   43048   43052   43056
   43060   43064   43068   43072   43076   43080   43084   43088   43092   43096
   43100   43104   43108   43112   43116   43120   43124   43128   43132   43136
   43140   43144   43148   43152   43156   43160   43164   43168   43172   43176
   43180   43184   43188   43192   43196   43200   43204   43208   43212   43216
   43220   43224   43228   43232   43236   43240   43244   43248   43252   43256
   43260   43264   43268   43272   43276   43280   43284   43288   43292   43296
   43300   43304   43308   43312   43316   43320   43324   43328   43332   43336
   43340   43344   43348   43352   43356   43360   43364   43368   43372   43376
   43380   43384   43388   43392   43396   43400   43404   43408   43412   43416
   43420   43424   43428   43432   43436   43440   43444   43448   43452   43456
   43460   43464   43468   43472   43476   43480   43484   43488   43492   43496
   43500   43504   43508   43512   43516   43520   43524   43528   43532   43536
   43540   43544   43548   43552   43556   43560   43564   43568   43572   43576
   43580   43584   43588   43592   43596   43600   43604   43608   43612   43616
   43620   43624   43628   43632   43636   43640   43644   43648   43652   43656
   43660   43664   43668   43672   43676   43680   43684   43688   43692   43696
   43700   43704   43708   43712   43716   43720   43724   43728   43732   43736
   43740   43744   43748   43752   43756   43760   43764   43768   43772   43776
   43780   43784   43788   43792   43796   43800   43804   43808   43812   43816
   43820   43824   43828   43832   43836   43840   43844   43848   43852   43856
   43860   43864   43868   43872   43876   43880   43884   43888   43892   43896
   43900   43904   43908   43912   43916   43920   43924   43928   43932   43936
   43940   43944   43948   43952   43956   43960   43964   43968   43972   43976
   43980   43984   43988   43992   43996   44000   44004   44008   44012   44016
   44020   44024   44028   44032   44036   44040   44044   44048   44052   44056
   44060   44064   44068   44072   44076   44080   44084   44088   44092   44096
   44100   44104   44108   44112   44116   44120   44124   44128   44132   44136
   44140   44144   44148   44152   44156   44160   44164   44168   44172   44176
   44180   44184   44188   44192   44196   44200   44204   44208   44212   44216
   44220   44224   44228   44232   44236   44240   44244   44248   44252   44256
   44260   44264   44268   44272   44276   44280   44284   44288   44292   44296
   44300   44304   44308   44312   44316   44320   44324   44328   44332   44336
   44340   44344   44348   44352   44356   44360   44364   44368   44372   44376
   44380   44384   44388   44392   44396   44400   44404   44408   44412   44416
   44420   44424   44428   44432   44436   44440   44444   44448   44452   44456
   44460   44464   44468   44472   44476   44480   44484   44488   44492   44496
   44500   44504   44508   44512   44516   44520   44524   44528   44532   44536
   44540   44544   44548   44552   44556   44560   44564   44568   44572   44576
   44580   44584   44588   44592   44596   44600   44604   44608   44612   44616
   44620   44624   44628   44632   44636   44640   44644   44648   44652   44656
   44660   44664   44668   44672   44676   44680   44684   44688   44692   44696
   44700   44704   44708   44712   44716   44720   44724   44728   44732   44736
   44740   44744   44748   44752   44756   44760   44764   44768   44772   44776
   44780   44784   44788   44792   44796   44800   44804   44808   44812   44816
   44820   44824   44828   44832   44836   44840   44844   44848   44852   44856
   44860   44864   44868   44872   44876   44880   44884   44888   44892   44896
   44900   44904   44908   44912   44916   44920   44924   44928   44932   44936
   44940   44944   44948   44952   44956   44960   44964   44968   44972   44976
   44980   44984   44988   44992   44996   45000   45004   45008   45012   45016
   45020   45024   45028   45032   45036   45040   45044   45048   45052   45056
   45060   45064   45068   45072   45076   45080   45084   45088   45092   45096
   45100   45104   45108   45112   45116   45120   45124   45128   45132   45136
   45140   45144   45148   45152   45156   45160   45164   45168   45172   45176
   45180   45184   45188   45192   45196   45200   45204   45208   45212   45216
   45220   45224   45228   45232   45236   45240   45244   45248   45252   45256
   45260   45264   45268   45272   45276   45280   45284   45288   45292   45296
   45300   45304   45308   45312   45316   45320   45324   45328   45332   45336
   45340   45344   45348   45352   45356   45360   45364   45368   45372   45376
   45380   45384   45388   45392   45396   45400   45404   45408   45412   45416
   45420   45424   45428   45432   45436   45440   45444   45448   45452   45456
   45460   45464   45468   45472   45476   45480   45484   45488   45492   45496
   45500   45504   45508   45512   45516   45520   45524   45528   45532   45536
   45540   45544   45548   45552   45556   45560   45564   45568   45572   45576
   45580   45584   45588   45592   45596   45600   45604   45608   45612   45616
   45620   45624   45628   45632   45636   45640   45644   45648   45652   45656
   45660   45664   45668   45672   45676   45680   45684   45688   45692   45696
   45700   45704   45708   45712   45716   45720   45724   45728   45732   45736
   45740   45744   45748   45752   45756   45760   45764   45768   45772   45776
   45780   45784   45788   45792   45796   45800   45804   45808   45812   45816
   45820   45824   45828   45832   45836   45840   45844   45848   45852   45856
   45860   45864   45868   45872   45876   45880   45884   45888   45892   45896
   45900   45904   45908   45912   45916   45920   45924   45928   45932   45936
   45940   45944   45948   45952   45956   45960   45964   45968   45972   45976
   45980   45984   45988   45992   45996   46000   46004   46008   46012   46016
   46020   46024   46028   46032   46036   46040   46044   46048   46052   46056
   46060   46064   46068   46072   46076   46080   46084   46088   46092   46096
   46100   46104   46108   46112   46116   46120   46124   46128   46132   46136
   46140   46144   46148   46152   46156   46160   46164   46168   46172   46176
   46180   46184   46188   46192   46196   46200   46204   46208   46212   46216
   46220   46224   46228   46232   46236   46240   46244   46248   46252   46256
   46260   46264   46268   46272   46276   46280   46284   46288   46292   46296
   46300   46304   46308   46312   46316   46320   46324   46328   46332   46336
   46340   46344   46348   46352   46356   46360   46364   46368   46372   46376
   46380   46384   46388   46392   46396   46400   46404   46408   46412   46416
   46420   46424   46428   46432   46436   46440   46444   46448   46452   46456
   46460   46464   46468   46472   46476   46480   46484   46488   46492   46496
   46500   46504   46508   46512   46516   46520   46524   46528   46532   46536
   46540   46544   46548   46552   46556   46560   46564   46568   46572   46576
   46580   46584   46588   46592   46596   46600   46604   46608   46612   46616
   46620   46624   46628   46632   46636   46640   46644   46648   46652   46656
   46660   46664   46668   46672   46676   46680   46684   46688   46692   46696
   46700   46704   46708   46712   46716   46720   46724   46728   46732   46736
   46740   46744   46748   46752   46756   46760   46764   46768   46772   46776
   46780   46784   46788   46792   46796   46800   46804   46808   46812   46816
   46820   46824   46828   46832   46836   46840   46844   46848   46852   46856
   46860   46864   46868   46872   46876   46880   46884   46888   46892   46896
   46900   46904   46908   46912   46916   46920   46924   46928   46932   46936
   46940   46944   46948   46952   46956   46960   46964   46968   46972   46976
   46980   46984   46988   46992   46996   47000   47004   47008   47012   47016
   47020   47024   47028   47032   47036   47040   47044   47048   47052   47056
   47060   47064   47068   47072   47076   47080   47084   47088   47092   47096
   47100   47104   47108   47112   47116   47120   47124   47128   47132   47136
   47140   47144   47148   47152   47156   47160   47164   47168   47172   47176
   47180   47184   47188   47192   47196   47200   47204   47208   47212   47216
   47220   47224   47228   47232   47236   47240   47244   47248   47252   47256
   47260   47264   47268   47272   47276   47280   47284   47288   47292   47296
   47300   47304   47308   47312   47316   47320   47324   47328   47332   47336
   47340   47344   47348   47352   47356   47360   47364   47368   47372   47376
   47380   47384   47388   47392   47396   47400   47404   47408   47412   47416
   47420   47424   47428   47432   47436   47440   47444   47448   47452   47456
   47460   47464   47468   47472   47476   47480   47484   47488   47492   47496
   47500   47504   47508   47512   47516   47520   47524   47528   47532   47536
   47540   47544   47548   47552   47556   47560   47564   47568   47572   47576
   47580   47584   47588   47592   47596   47600   47604   47608   47612   47616
   47620   47624   47628   47632   47636   47640   47644   47648   47652   47656
   47660   47664   47668   47672   47676   47680   47684   47688   47692   47696
   47700   47704   47708   47712   47716   47720   47724   47728   47732   47736
   47740   47744   47748   47752   47756   47760   47764   47768   47772   47776
   47780   47784   47788   47792   47796   47800   47804   47808   47812   47816
   47820   47824   47828   47832   47836   47840   47844   47848   47852   47856
   47860   47864   47868   47872   47876   47880   47884   47888   47892   47896
   47900   47904   47908   47912   47916   47920   47924   47928   47932   47936
   47940   47944   47948   47952   47956   47960   47964   47968   47972   47976
   47980   47984   47988   47992   47996   48000   48004   48008   48012   48016
   48020   48024   48028   48032   48036   48040   48044   48048   48052   48056
   48060   48064   48068   48072   48076   48080   48084   48088   48092   48096
   48100   48104   48108   48112   48116   48120   48124   48128   48132   48136
   48140   48144   48148   48152   48156   48160   48164   48168   48172   48176
   48180   48184   48188   48192   48196   48200   48204   48208   48212   48216
   48220   48224   48228   48232   48236   48240   48244   48248   48252   48256
   48260   48264   48268   48272   48276   48280   48284   48288   48292   48296
   48300   48304   48308   48312   48316   48320   48324   48328   48332   48336
   48340   48344   48348   48352   48356   48360   48364   48368   48372   48376
   48380   48384   48388   48392   48396   48400   48404   48408   48412   48416
   48420   48424   48428   48432   48436   48440   48444   48448   48452   48456
   48460   48464   48468   48472   48476   48480   48484   48488   48492   48496
   48500   48504   48508   48512   48516   48520   48524   48528   48532   48536
   48540   48544   48548   48552   48556   48560   48564   48568   48572   48576
   48580   48584   48588   48592   48596   48600   48604   48608   48612   48616
   48620   48624   48628   48632   48636   48640   48644   48648   48652   48656
   48660   48664   48668   48672   48676   48680   48684   48688   48692   48696
   48700   48704   48708   48712   48716   48720   48724   48728   48732   48736
   48740   48744   48748   48752   48756   48760   48764   48768   48772   48776
   48780   48784   48788   48792   48796   48800   48804   48808   48812   48816
   48820   48824   48828   48832   48836   48840   48844   48848   48852   48856
   48860   48864   48868   48872   48876   48880   48884   48888   48892   48896
   48900   48904   48908   48912   48916   48920   48924   48928   48932   48936
   48940   48944   48948   48952   48956   48960   48964   48968   48972   48976
   48980   48984   48988   48992   48996   49000   49004   49008   49012   49016
   49020   49024   49028   49032   49036   49040   49044   49048   49052   49056
   49060   49064   49068   49072   49076   49080   49084   49088   49092   49096
   49100   49104   49108   49112   49116   49120   49124   49128   49132   49136
   49140   49144   49148   49152   49156   49160   49164   49168   49172   49176
   49180   49184   49188   49192   49196   49200   49204   49208   49212   49216
   49220   49224   49228   49232   49236   49240   49244   49248   49252   49256
   49260   49264   49268   49272   49276   49280   49284   49288   49292   49296
   49300   49304   49308   49312   49316   49320   49324   49328   49332   49336
   49340   49344   49348   49352   49356   49360   49364   49368   49372   49376
   49380   49384   49388   49392   49396   49400   49404   49408   49412   49416
   49420   49424   49428   49432   49436   49440   49444   49448   49452   49456
   49460   49464   49468   49472   49476   49480   49484   49488   49492   49496
   49500   49504   49508   49512   49516   49520   49524   49528   49532   49536
   49540   49544   49548   49552   49556   49560   49564   49568   49572   49576
   49580   49584   49588   49592   49596   49600   49604   49608   49612   49616
   49620   49624   49628   49632   49636   49640   49644   49648   49652   49656
   49660   49664   49668   49672   49676   49680   49684   49688   49692   49696
   49700   49704   49708   49712   49716   49720   49724   49728   49732   49736
   49740   49744   49748   49752   49756   49760   49764   49768   49772   49776
   49780   49784   49788   49792   49796   49800   49804   49808   49812   49816
   49820   49824   49828   49832   49836   49840   49844   49848   49852   49856
   49860   49864   49868   49872   49876   49880   49884   49888   49892   49896
   49900   49904   49908   49912   49916   49920   49924   49928   49932   49936
   49940   49944   49948   49952   49956   49960   49964   49968   49972   49976
   49980   49984   49988   49992   49996   50000   50004   50008   50012   50016
   50020   50024   50028   50032   50036   50040   50044   50048   50052   50056
   50060   50064   50068   50072   50076   50080   50084   50088   50092   50096
   50100   50104   50108   50112   50116   50120   50124   50128   50132   50136
   50140   50144   50148   50152   50156   50160   50164   50168   50172   50176
   50180   50184   50188   50192   50196   50200   50204   50208   50212   50216
   50220   50224   50228   50232   50236   50240   50244   50248   50252   50256
   50260   50264   50268   50272   50276   50280   50284   50288   50292   50296
   50300   50304   50308   50312   50316   50320   50324   50328   50332   50336
   50340   50344   50348   50352   50356   50360   50364   50368   50372   50376
   50380   50384   50388   50392   50396   50400   50404   50408   50412   50416
   50420   50424   50428   50432   50436   50440   50444   50448   50452   50456
   50460   50464   50468   50472   50476   50480   50484   50488   50492   50496
   50500   50504   50508   50512   50516   50520   50524   50528   50532   50536
   50540   50544   50548   50552   50556   50560   50564   50568   50572   50576
   50580   50584   50588   50592   50596   50600   50604   50608   50612   50616
   50620   50624   50628   50632   50636   50640   50644   50648   50652   50656
   50660   50664   50668   50672   50676   50680   50684   50688   50692   50696
   50700   50704   50708   50712   50716   50720   50724   50728   50732   50736
   50740   50744   50748   50752   50756   50760   50764   50768   50772   50776
   50780   50784   50788   50792   50796   50800   50804   50808   50812   50816
   50820   50824   50828   50832   50836   50840   50844   50848   50852   50856
   50860   50864   50868   50872   50876   50880   50884   50888   50892   50896
   50900   50904   50908   50912   50916   50920   50924   50928   50932   50936
   50940   50944   50948   50952   50956   50960   50964   50968   50972   50976
   50980   50984   50988   50992   50996   51000   51004   51008   51012   51016
   51020   51024   51028   51032   51036   51040   51044   51048   51052   51056
   51060   51064   51068   51072   51076   51080   51084   51088   51092   51096
   51100   51104   51108   51112   51116   51120   51124   51128   51132   51136
   51140   51144   51148   51152   51156   51160   51164   51168   51172   51176
   51180   51184   51188   51192   51196   51200   51204   51208   51212   51216
   51220   51224   51228   51232   51236   51240   51244   51248   51252   51256
   51260   51264   51268   51272   51276   51280   51284   51288   51292   51296
   51300   51304   51308   51312   51316   51320   51324   51328   51332   51336
   51340   51344   51348   51352   51356   51360   51364   51368   51372   51376
   51380   51384   51388   51392   51396   51400   51404   51408   51412   51416
   51420   51424   51428   51432   51436   51440   51444   51448   51452   51456
   51460   51464   51468   51472   51476   51480   51484   51488   51492   51496
   51500   51504   51508   51512   51516   51520   51524   51528   51532   51536
   51540   51544   51548   51552   51556   51560   51564   51568   51572   51576
   51580   51584   51588   51592   51596   51600   51604   51608   51612   51616
   51620   51624   51628   51632   51636   51640   51644   51648   51652   51656
   51660   51664   51668   51672   51676   51680   51684   51688   51692   51696
   51700   51704   51708   51712   51716   51720   51724   51728   51732   51736
   51740   51744   51748   51752   51756   51760   51764   51768   51772   51776
   51780   51784   51788   51792   51796   51800   51804   51808   51812   51816
   51820   51824   51828   51832   51836   51840   51844   51848   51852   51856
   51860   51864   51868   51872   51876   51880   51884   51888   51892   51896
   51900   51904   51908   51912   51916   51920   51924   51928   51932   51936
   51940   51944   51948   51952   51956   51960   51964   51968   51972   51976
   51980   51984   51988   51992   51996   52000   52004   52008   52012   52016
   52020   52024   52028   52032   52036   52040   52044   52048   52052   52056
   52060   52064   52068   52072   52076   52080   52084   52088   52092   52096
   52100   52104   52108   52112   52116   52120   52124   52128   52132   52136
   52140   52144   52148   52152   52156   52160   52164   52168   52172   52176
   52180   52184   52188   52192   52196   52200   52204   52208   52212   52216
   52220   52224   52228   52232   52236   52240   52244   52248   52252   52256
   52260   52264   52268   52272   52276   52280   52284   52288   52292   52296
   52300   52304   52308   52312   52316   52320   52324   52328   52332   52336
   52340   52344   52348   52352   52356   52360   52364   52368   52372   52376
   52380   52384   52388   52392   52396   52400   52404   52408   52412   52416
   52420   52424   52428   52432   52436   52440   52444   52448   52452   52456
   52460   52464   52468   52472   52476   52480   52484   52488   52492   52496
   52500   52504   52508   52512   52516   52520   52524   52528   52532   52536
   52540   52544   52548   52552   52556   52560   52564   52568   52572   52576
   52580   52584   52588   52592   52596   52600   52604   52608   52612   52616
   52620   52624   52628   52632   52636   52640   52644   52648   52652   52656
   52660   52664   52668   52672   52676   52680   52684   52688   52692   52696
   52700   52704   52708   52712   52716   52720   52724   52728   52732   52736
   52740   52744   52748   52752   52756   52760   52764   52768   52772   52776
   52780   52784   52788   52792   52796   52800   52804   52808   52812   52816
   52820   52824   52828   52832   52836   52840   52844   52848   52852   52856
   52860   52864   52868   52872   52876
%FLAG BOND_FORCE_CONSTANT                                                       
%FORMAT(5E16.8)                                                                 
  2.30000000E+02  5.53000000E+02  3.40000000E+02  3.20000000E+02  3.10000000E+02
  3.20000000E+02  4.61000000E+02  4.34000000E+02  4.81000000E+02  4.83000000E+02
  4.34000000E+02  4.27000000E+02  5.70000000E+02  4.18000000E+02  4.47000000E+02
  5.20000000E+02  4.14000000E+02  3.67000000E+02  5.29000000E+02  4.40000000E+02
  4.36000000E+02  3.40000000E+02  3.37000000E+02  3.40000000E+02  3.10000000E+02
  3.20000000E+02  3.20000000E+02  5.25000000E+02  3.67000000E+02  5.02000000E+02
  4.69000000E+02  3.67000000E+02  5.29000000E+02  4.40000000E+02  3.67000000E+02
  4.10000000E+02  3.67000000E+02  5.49000000E+02  4.48000000E+02  4.24000000E+02
  4.57000000E+02  3.67000000E+02  4.27000000E+02  3.67000000E+02  5.49000000E+02
  4.48000000E+02  5.53000000E+02  5.53000000E+02  5.53000000E+02  4.81770000E+02
  3.32450000E+02  3.66810000E+02  4.17790000E+02  3.56030000E+02  3.86240000E+02
  3.45930000E+02  3.60690000E+02  3.54250000E+02  2.43910000E+02  3.44220000E+02
  2.82270000E+02  1.75900000E+02  5.29500000E+02  3.63500000E+02  4.19720000E+02
  3.53800000E+02  5.27300000E+02  3.56200000E+02  2.81780000E+02  5.90600000E+02
%FLAG BOND_EQUIL_VALUE                                                          
%FORMAT(5E16.8)                                                                 
  1.61000000E+00  9.60000000E-01  1.09000000E+00  1.41000000E+00  1.52600000E+00
  1.41000000E+00  1.35400000E+00  1.01000000E+00  1.34000000E+00  1.33900000E+00
  1.01000000E+00  1.38100000E+00  1.22900000E+00  1.38800000E+00  1.41900000E+00
  1.37000000E+00  1.39100000E+00  1.08000000E+00  1.30400000E+00  1.37100000E+00
  1.37400000E+00  1.09000000E+00  1.47500000E+00  1.09000000E+00  1.52600000E+00
  1.41000000E+00  1.41000000E+00  1.48000000E+00  1.08000000E+00  1.32400000E+00
  1.40400000E+00  1.08000000E+00  1.30400000E+00  1.37100000E+00  1.08000000E+00
  1.44400000E+00  1.08000000E+00  1.35000000E+00  1.36500000E+00  1.38300000E+00
  1.35800000E+00  1.08000000E+00  1.43300000E+00  1.08000000E+00  1.35000000E+00
  1.36500000E+00  1.51360000E+00  1.25000000E-01  9.57200000E-01  1.00950000E+00
  1.38300000E+00  1.08210000E+00  1.31710000E+00  1.36290000E+00  1.37300000E+00
  1.37130000E+00  1.08600000E+00  1.39860000E+00  1.51470000E+00  1.09690000E+00
  1.42730000E+00  1.41500000E+00  1.01200000E+00  1.37300000E+00  1.31580000E+00
  1.38100000E+00  1.01300000E+00  1.37900000E+00  1.46870000E+00  1.21900000E+00
%FLAG ANGLE_FORCE_CONSTANT                                                      
%FORMAT(5E16.8)                                                                 
  1.00000000E+02  4.50000000E+01  5.00000000E+01  5.00000000E+01  5.50000000E+01
  5.00000000E+01  5.00000000E+01  5.00000000E+01  1.00000000E+02  3.50000000E+01
  7.00000000E+01  5.00000000E+01  7.00000000E+01  5.00000000E+01  7.00000000E+01
  7.00000000E+01  8.00000000E+01  6.30000000E+01  5.00000000E+01  7.00000000E+01
  8.00000000E+01  7.00000000E+01  7.00000000E+01  7.00000000E+01  7.00000000E+01
  5.00000000E+01  7.00000000E+01  7.00000000E+01  5.00000000E+01  5.00000000E+01
  7.00000000E+01  7.00000000E+01  7.00000000E+01  5.00000000E+01  5.00000000E+01
  7.00000000E+01  7.00000000E+01  4.00000000E+01  5.00000000E+01  5.00000000E+01
  6.00000000E+01  5.00000000E+01  3.50000000E+01  5.00000000E+01  5.00000000E+01
  4.00000000E+01  5.00000000E+01  5.00000000E+01  5.50000000E+01  5.00000000E+01
  5.00000000E+01  1.40000000E+02  1.00000000E+02  5.00000000E+01  7.00000000E+01
  7.00000000E+01  6.30000000E+01  7.00000000E+01  7.00000000E+01  7.00000000E+01
  7.00000000E+01  5.00000000E+01  7.00000000E+01  7.00000000E+01  5.00000000E+01
  7.00000000E+01  7.00000000E+01  7.00000000E+01  5.00000000E+01  8.00000000E+01
  7.00000000E+01  5.00000000E+01  7.00000000E+01  5.00000000E+01  6.30000000E+01
  5.00000000E+01  7.00000000E+01  7.00000000E+01  8.00000000E+01  7.00000000E+01
  7.00000000E+01  8.00000000E+01  7.00000000E+01  5.00000000E+01  7.00000000E+01
  7.00000000E+01  5.00000000E+01  7.00000000E+01  5.00000000E+01  6.30000000E+01
  5.00000000E+01  7.00000000E+01  7.00000000E+01  7.00000000E+01  3.56400000E+01
  4.79400000E+01  5.54300000E+01  7.65100000E+01  4.88900000E+01  7.19900000E+01
  8.60800000E+01  6.97000000E+01  8.27900000E+01  7.14500000E+01  7.25300000E+01
  4.49000000E+01  6.36700000E+01  4.38100000E+01  6.07400000E+01  6.27000000E+01
  7.76000000E+01  5.62000000E+01  1.11700000E+02  8.45000000E+01  4.83000000E+01
  8.62000000E+01  4.93000000E+01  8.73500000E+01  8.71000000E+01  1.10900000E+02
  1.10300000E+02  6.66000000E+01  4.87000000E+01  6.22000000E+01  6.57200000E+01
  1.13800000E+02  7.83600000E+01
%FLAG ANGLE_EQUIL_VALUE                                                         
%FORMAT(5E16.8)                                                                 
  1.88897066E+00  1.79070858E+00  1.91113635E+00  1.91113635E+00  1.89368305E+00
  1.91113635E+00  1.91113635E+00  1.91113635E+00  2.10312265E+00  2.09439600E+00
  2.08217869E+00  2.09439600E+00  1.95826026E+00  2.05948940E+00  2.02458280E+00
  2.15199189E+00  2.10486798E+00  2.08043336E+00  2.03854544E+00  2.18515316E+00
  2.24798504E+00  1.94255229E+00  2.22878641E+00  2.26892900E+00  1.92684432E+00
  2.14762857E+00  1.83957782E+00  1.81165254E+00  1.91113635E+00  2.14762857E+00
  1.98793087E+00  1.85354046E+00  2.20260646E+00  1.91113635E+00  1.91113635E+00
  2.24798504E+00  2.19562514E+00  1.91113635E+00  1.91113635E+00  1.91113635E+00
  1.91113635E+00  1.91113635E+00  1.91113635E+00  1.91113635E+00  1.91113635E+00
  1.91113635E+00  1.91113635E+00  1.91113635E+00  1.89368305E+00  1.91113635E+00
  1.91113635E+00  2.09265067E+00  2.10312265E+00  2.01498349E+00  1.93731630E+00
  2.25322103E+00  2.04727209E+00  2.06996138E+00  2.15548255E+00  2.04727209E+00
  2.31081692E+00  2.14762857E+00  1.83957782E+00  1.81165254E+00  2.14762857E+00
  1.98793087E+00  2.24798504E+00  2.20609712E+00  2.08916001E+00  2.18689849E+00
  1.99142153E+00  2.08916001E+00  2.12232128E+00  2.08916001E+00  2.10661331E+00
  2.07868803E+00  2.11533996E+00  2.01411082E+00  2.11010397E+00  2.11533996E+00
  2.05250808E+00  2.13802925E+00  2.10312265E+00  2.15199189E+00  2.09614133E+00
  2.12057595E+00  2.08916001E+00  2.12232128E+00  2.08916001E+00  2.04203610E+00
  2.07868803E+00  2.11533996E+00  2.06996138E+00  2.11533996E+00  1.89455572E+00
  2.10888224E+00  2.18585129E+00  1.97257197E+00  2.18672396E+00  1.90223517E+00
  1.90502770E+00  2.05931487E+00  1.93557097E+00  1.94743921E+00  2.11411823E+00
  2.09230160E+00  2.09474507E+00  1.91288168E+00  2.10888224E+00  1.85127153E+00
  1.90031530E+00  1.92579712E+00  2.10574065E+00  1.91619781E+00  2.08148056E+00
  1.95215161E+00  2.01812508E+00  1.83905422E+00  1.96698691E+00  2.04098890E+00
  2.14675590E+00  2.15146829E+00  2.05163542E+00  2.11743436E+00  2.15007203E+00
  2.14762857E+00  2.16525640E+00
%FLAG DIHEDRAL_FORCE_CONSTANT                                                   
%FORMAT(5E16.8)                                                                 
  1.85181000E-01  1.25653100E+00  3.54858000E-01  1.17500000E+00  1.44000000E-01
  2.50000000E-01  0.00000000E+00  1.66666667E-01  3.83333333E-01  1.55555556E-01
  1.60000000E-01  2.50000000E-01  1.20000000E+00  0.00000000E+00  2.40000000E+00
  4.80000000E+00  1.50000000E+00  3.00000000E+00  1.35000000E+00  5.45000000E+00
  4.15000000E+00  1.70000000E+00  1.00000000E+01  1.65000000E+00  2.55000000E+00
  1.00000000E-01  3.83000000E-01  7.05100000E-01  1.06546000E+00  4.42730000E-01
  2.56020000E-01  6.50000000E-01  2.00000000E-01  2.50000000E-01  1.80000000E-01
  1.17804000E+00  9.21020000E-02  9.62830000E-01  6.80000000E+00  3.50000000E+00
  9.65610000E-01  1.07403000E+00  4.57540000E-01  3.09170000E-01  2.17500000E+00
  1.85000000E+00  6.65000000E+00  1.45000000E+00  3.00000000E-01  1.02514000E+00
  1.74876000E+00  5.81500000E-01  3.51480000E-01  4.00000000E+00  1.22506000E+00
  1.63459000E+00  9.37470000E-01  3.10330000E-01  3.62500000E+00  2.50000000E+00
  4.75000000E+00  1.05000000E+00  1.50000000E+00  2.87500000E+00  2.00000000E+00
  0.00000000E+00  1.00000000E+00  1.10000000E+00  1.05000000E+01
%FLAG DIHEDRAL_PERIODICITY                                                      
%FORMAT(5E16.8)                                                                 
  1.00000000E+00  2.00000000E+00  3.00000000E+00  2.00000000E+00  3.00000000E+00
  1.00000000E+00  3.00000000E+00  3.00000000E+00  3.00000000E+00  3.00000000E+00
  3.00000000E+00  3.00000000E+00  2.00000000E+00  2.00000000E+00  2.00000000E+00
  2.00000000E+00  2.00000000E+00  2.00000000E+00  2.00000000E+00  2.00000000E+00
  2.00000000E+00  2.00000000E+00  2.00000000E+00  2.00000000E+00  2.00000000E+00
  2.00000000E+00  3.00000000E+00  1.00000000E+00  2.00000000E+00  3.00000000E+00
  4.00000000E+00  2.00000000E+00  1.00000000E+00  2.00000000E+00  3.00000000E+00
  1.00000000E+00  2.00000000E+00  3.00000000E+00  2.00000000E+00  2.00000000E+00
  1.00000000E+00  2.00000000E+00  3.00000000E+00  4.00000000E+00  2.00000000E+00
  2.00000000E+00  2.00000000E+00  2.00000000E+00  3.00000000E+00  1.00000000E+00
  2.00000000E+00  3.00000000E+00  4.00000000E+00  2.00000000E+00  1.00000000E+00
  2.00000000E+00  3.00000000E+00  4.00000000E+00  2.00000000E+00  2.00000000E+00
  2.00000000E+00  2.00000000E+00  1.00000000E+00  2.00000000E+00  1.00000000E+00
  2.00000000E+00  2.00000000E+00  2.00000000E+00  2.00000000E+00
%FLAG DIHEDRAL_PHASE                                                            
%FORMAT(5E16.8)                                                                 
  5.54929070E-01  6.14285649E+00  6.23514744E+00  0.00000000E+00  0.00000000E+00
  0.00000000E+00  0.00000000E+00  0.00000000E+00  0.00000000E+00  0.00000000E+00
  0.00000000E+00  0.00000000E+00  0.00000000E+00  0.00000000E+00  3.14159400E+00
  3.14159400E+00  3.14159400E+00  3.14159400E+00  3.14159400E+00  3.14159400E+00
  3.14159400E+00  3.14159400E+00  3.14159400E+00  3.14159400E+00  3.14159400E+00
  3.14159400E+00  0.00000000E+00  1.30473540E+00  1.08709624E-01  2.94350428E+00
  6.93698862E-02  0.00000000E+00  3.14159400E+00  3.14159400E+00  0.00000000E+00
  3.33317067E+00  5.15976777E+00  6.07541257E+00  3.14159400E+00  3.14159400E+00
  1.20061600E+00  2.72899799E-01  2.99461452E+00  3.33220149E-01  3.14159400E+00
  3.14159400E+00  3.14159400E+00  3.14159400E+00  0.00000000E+00  2.61552187E+00
  2.92601084E-01  3.13020398E+00  2.79280725E-01  3.14159400E+00  2.56544660E+00
  2.87571043E-01  3.24417403E+00  5.61280675E-01  3.14159400E+00  3.14159400E+00
  3.14159400E+00  3.14159400E+00  0.00000000E+00  3.14159400E+00  0.00000000E+00
  3.14159400E+00  3.14159400E+00  3.14159400E+00  3.14159400E+00
%FLAG SCEE_SCALE_FACTOR                                                         
%FORMAT(5E16.8)                                                                 
  1.20000000E+00  1.20000000E+00  1.20000000E+00  1.20000000E+00  1.20000000E+00
  1.20000000E+00  1.20000000E+00  1.20000000E+00  1.20000000E+00  1.20000000E+00
  1.20000000E+00  1.20000000E+00  1.20000000E+00  1.20000000E+00  1.20000000E+00
  1.20000000E+00  1.20000000E+00  1.20000000E+00  1.20000000E+00  1.20000000E+00
  1.20000000E+00  1.20000000E+00  1.20000000E+00  1.20000000E+00  1.20000000E+00
  1.20000000E+00  1.20000000E+00  1.20000000E+00  1.20000000E+00  1.20000000E+00
  1.20000000E+00  1.20000000E+00  1.20000000E+00  1.20000000E+00  1.20000000E+00
  1.20000000E+00  1.20000000E+00  1.20000000E+00  1.20000000E+00  1.20000000E+00
  1.20000000E+00  1.20000000E+00  1.20000000E+00  1.20000000E+00  1.20000000E+00
  1.20000000E+00  1.20000000E+00  1.20000000E+00  1.20000000E+00  1.20000000E+00
  1.20000000E+00  1.20000000E+00  1.20000000E+00  1.20000000E+00  1.20000000E+00
  1.20000000E+00  1.20000000E+00  1.20000000E+00  1.20000000E+00  1.20000000E+00
  1.20000000E+00  1.20000000E+00  1.20000000E+00  1.20000000E+00  1.20000000E+00
  0.00000000E+00  0.00000000E+00  0.00000000E+00  0.00000000E+00
%FLAG SCNB_SCALE_FACTOR                                                         
%FORMAT(5E16.8)                                                                 
  2.00000000E+00  2.00000000E+00  2.00000000E+00  2.00000000E+00  2.00000000E+00
  2.00000000E+00  2.00000000E+00  2.00000000E+00  2.00000000E+00  2.00000000E+00
  2.00000000E+00  2.00000000E+00  2.00000000E+00  2.00000000E+00  2.00000000E+00
  2.00000000E+00  2.00000000E+00  2.00000000E+00  2.00000000E+00  2.00000000E+00
  2.00000000E+00  2.00000000E+00  2.00000000E+00  2.00000000E+00  2.00000000E+00
  2.00000000E+00  2.00000000E+00  2.00000000E+00  2.00000000E+00  2.00000000E+00
  2.00000000E+00  2.00000000E+00  2.00000000E+00  2.00000000E+00  2.00000000E+00
  2.00000000E+00  2.00000000E+00  2.00000000E+00  2.00000000E+00  2.00000000E+00
  2.00000000E+00  2.00000000E+00  2.00000000E+00  2.00000000E+00  2.00000000E+00
  2.00000000E+00  2.00000000E+00  2.00000000E+00  2.00000000E+00  2.00000000E+00
  2.00000000E+00  2.00000000E+00  2.00000000E+00  2.00000000E+00  2.00000000E+00
  2.00000000E+00  2.00000000E+00  2.00000000E+00  2.00000000E+00  2.00000000E+00
  2.00000000E+00  2.00000000E+00  2.00000000E+00  2.00000000E+00  2.00000000E+00
  0.00000000E+00  0.00000000E+00  0.00000000E+00  0.00000000E+00
%FLAG SOLTY                                                                     
%FORMAT(5E16.8)                                                                 
  0.00000000E+00  0.00000000E+00  0.00000000E+00  0.00000000E+00  0.00000000E+00
  0.00000000E+00  0.00000000E+00  0.00000000E+00  0.00000000E+00  0.00000000E+00
  0.00000000E+00  0.00000000E+00  0.00000000E+00  0.00000000E+00  0.00000000E+00
  0.00000000E+00  0.00000000E+00  0.00000000E+00  0.00000000E+00  0.00000000E+00
  0.00000000E+00  0.00000000E+00  0.00000000E+00  0.00000000E+00  0.00000000E+00
  0.00000000E+00  0.00000000E+00  0.00000000E+00  0.00000000E+00  0.00000000E+00
  0.00000000E+00  0.00000000E+00  0.00000000E+00  0.00000000E+00  0.00000000E+00
  0.00000000E+00  0.00000000E+00  0.00000000E+00  0.00000000E+00  0.00000000E+00
  0.00000000E+00  0.00000000E+00  0.00000000E+00  0.00000000E+00  0.00000000E+00
  0.00000000E+00  0.00000000E+00  0.00000000E+00
%FLAG LENNARD_JONES_ACOEF                                                       
%FORMAT(5E16.8)                                                                 
  0.00000000E+00  0.00000000E+00  5.81803229E+05  0.00000000E+00  7.91544157E+05
  1.04308023E+06  0.00000000E+00  4.66922514E+04  6.78771368E+04  3.25969625E+03
  0.00000000E+00  4.58874091E+05  6.28541240E+05  3.63097246E+04  3.61397723E+05
  0.00000000E+00  3.15360051E+04  4.68930885E+04  2.09814978E+03  2.44050579E+04
  1.32801250E+03  0.00000000E+00  7.44975864E+05  9.95480466E+05  6.20665997E+04
  5.89818288E+05  4.24594555E+04  9.44293233E+05  0.00000000E+00  7.01803794E+05
  9.24822270E+05  6.01816484E+04  5.57281136E+05  4.15766412E+04  8.82619071E+05
  8.19971662E+05  0.00000000E+00  4.09427581E+04  5.98885646E+04  2.82099197E+03
  3.17965283E+04  1.80748014E+03  5.46147253E+04  5.30987710E+04  2.43828624E+03
  0.00000000E+00  4.71003287E+05  6.47841731E+05  3.69471530E+04  3.70622491E+05
  2.47595516E+04  6.06829342E+05  5.74393458E+05  3.23283631E+04  3.79876399E+05
  0.00000000E+00  1.40467023E+03  2.56678134E+03  5.94667300E+01  1.03954408E+03
  3.20009193E+01  2.12601181E+03  2.27577561E+03  4.90239937E+01  1.02595236E+03
  1.39982777E-01  0.00000000E+00  1.98683736E+06  2.54188684E+06  1.81087383E+05
  1.58759528E+06  1.27716552E+05  2.45746558E+06  2.25370349E+06  1.60682053E+05
  1.64263766E+06  8.41065839E+03  6.02589390E+06  0.00000000E+00  4.96707306E+04
  7.18621074E+04  3.50301067E+03  3.86654993E+04  2.26273716E+03  6.58473870E+04
  6.37148278E+04  3.03448006E+03  3.93690817E+04  6.63368273E+01  1.90880272E+05
  3.76169105E+03  0.00000000E+00  6.00750218E+04  8.59947003E+04  4.33325458E+03
  4.68711055E+04  2.82099197E+03  7.91627154E+04  7.62451550E+04  3.76169105E+03
  4.77908183E+04  8.90987508E+01  2.26202022E+05  4.64559155E+03  5.71629601E+03
  0.00000000E+00  8.07800079E+04  1.21875374E+05  5.21005294E+03  6.23192794E+04
  3.26196339E+03  1.09658405E+05  1.08057900E+05  4.47498508E+03  6.31032125E+04
  7.06607915E+01  3.36357666E+05  5.63160852E+03  7.05661630E+03  7.95580953E+03
  0.00000000E+00  3.24638037E+06  3.82345548E+06  3.50054334E+05  2.63960199E+06
  2.61171322E+05  3.83298374E+06  3.38997584E+06  3.15445504E+05  2.76037949E+06
  2.80154991E+04  8.38547054E+06  3.64590694E+05  4.20665739E+05  7.12925476E+05
  9.33304478E+06  0.00000000E+00  4.68011805E+05  6.37913494E+05  3.74148715E+04
  3.68980019E+05  2.52365512E+04  5.99897901E+05  5.65590822E+05  3.27958584E+04
  3.78641356E+05  1.11043914E+03  1.60396276E+06  3.98127143E+04  4.81820985E+04
  6.45887018E+04  2.63333256E+06  3.76435470E+05  0.00000000E+00  6.42430744E+05
  8.53193737E+05  5.42099106E+04  5.09294082E+05  3.72462658E+04  8.11497350E+05
  7.56463928E+05  4.77581094E+04  5.24402060E+05  1.94008400E+03  2.09423430E+06
  5.74592031E+04  6.89371259E+04  9.64632940E+04  3.21466829E+06  5.17507491E+05
  6.96551276E+05  0.00000000E+00  6.42970500E+05  8.57549298E+05  5.37791327E+04
  5.09262400E+05  3.68393965E+04  8.14127222E+05  7.60325682E+05  4.73396390E+04
  5.24079334E+05  1.86723722E+03  2.11324943E+06  5.70388968E+04  6.85297634E+04
  9.52256395E+04  3.27992774E+06  5.17814271E+05  6.99381362E+05  7.01825028E+05
  0.00000000E+00  7.50394818E+05  9.99965503E+05  6.28761764E+04  5.94455705E+05
  4.30971554E+04  9.49688051E+05  8.86595622E+05  5.53566071E+04  6.11819701E+05
  2.19650758E+03  2.46224182E+06  6.66787728E+04  8.00887575E+04  1.11444683E+05
  3.81307460E+06  6.04358274E+05  8.15700858E+05  8.18644626E+05  9.54886922E+05
  0.00000000E+00  4.06752008E+05  5.48478208E+05  3.32551339E+04  3.21417406E+05
  2.26036801E+04  5.18220260E+05  4.86295154E+05  2.92109361E+04  3.30296908E+05
  1.06722540E+03  1.36541679E+06  3.53289728E+04  4.26018274E+04  5.81366855E+04
  2.18031535E+06  3.27367585E+05  4.46121722E+05  4.47026838E+05  5.21588833E+05
  2.83662575E+05  0.00000000E+00  7.82881336E+05  1.03184851E+06  6.71095195E+04
  6.21638866E+05  4.63569633E+04  9.84684600E+05  9.14863930E+05  5.92092559E+04
  6.40712560E+05  2.53456440E+03  2.51493303E+06  7.10513128E+04  8.50294791E+04
  1.20472290E+05  3.78467447E+06  6.30925504E+05  8.43969952E+05  8.48258258E+05
  9.89136215E+05  5.42502534E+05  1.02073671E+06  0.00000000E+00  7.13267446E+05
  9.41257953E+05  6.09861363E+04  5.66214479E+05  4.20905500E+04  8.97750460E+05
  8.34543970E+05  5.37939286E+04  5.83493927E+05  2.28331226E+03  2.29677053E+06
  6.45801516E+04  7.73168790E+04  1.09323807E+05  3.46752909E+06  5.74782316E+05
  7.69642101E+05  7.73425391E+05  9.01905150E+05  4.94433451E+05  9.31115275E+05
  8.49322032E+05  0.00000000E+00  7.50514003E+05  1.00713741E+06  6.19803600E+04
  5.93669029E+05  4.22733337E+04  9.53586341E+05  8.92954421E+05  5.44940453E+04
  6.10454299E+05  2.05956322E+03  2.49602545E+06  6.57976999E+04  7.92148074E+04
  1.08967343E+05  3.93612430E+06  6.04208667E+05  8.20152428E+05  8.22346035E+05
  9.59384716E+05  5.22690526E+05  9.96191545E+05  9.08092643E+05  9.62429652E+05
  0.00000000E+00  1.24900897E+03  2.26409483E+03  5.38411501E+01  9.25970781E+02
  2.91668999E+01  1.88178855E+03  2.00740581E+03  4.44659845E+01  9.14858779E+02
  1.37574453E-01  7.36643734E+03  5.99788431E+01  8.03166617E+01  6.46877639E+01
  2.40945743E+04  9.87857350E+02  1.71458823E+03  1.65195713E+03  1.94284817E+03
  9.46795083E+02  2.23577481E+03  2.01475241E+03  1.82491629E+03  1.34728399E-01
  0.00000000E+00  4.82692694E+04  7.06006146E+04  3.32626784E+03  3.74869025E+04
  2.13132861E+03  6.43853349E+04  6.25963552E+04  2.87505342E+03  3.81142515E+04
  5.78352684E+01  1.89411083E+05  3.57795711E+03  4.43530964E+03  5.27694315E+03
  3.71783352E+05  3.86646725E+04  5.63013422E+04  5.58085097E+04  6.52595638E+04
  3.44374471E+04  6.97998263E+04  6.34160397E+04  6.42436358E+04  5.24570081E+01
  3.39005767E+03  0.00000000E+00  6.57310418E+04  9.38067954E+04  4.77162373E+03
  5.13171499E+04  3.11326280E+03  8.64679274E+04  8.31715633E+04  4.14474284E+03
  5.23449021E+04  1.00417924E+02  2.46066999E+05  5.11317150E+03  6.28513799E+03
  7.79888135E+03  4.54134939E+05  5.27277400E+04  7.52549148E+04  7.48403283E+04
  8.74566229E+04  4.65732396E+04  9.27554496E+04  8.43518904E+04  8.65595848E+04
  9.04434904E+01  4.88692384E+03  6.90855956E+03  0.00000000E+00  4.48767761E+04
  6.54320462E+04  3.11326280E+03  3.48757543E+04  1.99950237E+03  5.97535946E+04
  5.80137671E+04  2.69265440E+03  3.54741307E+04  5.54891833E+01  1.75039303E+05
  3.34719214E+03  4.14474284E+03  4.95804190E+03  3.40883084E+05  3.59538577E+04
  5.22195041E+04  5.17840911E+04  6.05484928E+04  3.19887757E+04  6.46910138E+04
  5.87815925E+04  5.96470418E+04  5.02830284E+01  3.17496391E+03  4.56536476E+03
  2.97255425E+03  0.00000000E+00  6.18768395E+05  8.33694635E+05  5.06742043E+04
  4.89037676E+05  3.44633020E+04  7.87979792E+05  7.39175513E+05  4.45186479E+04
  5.02600786E+05  1.63574730E+03  2.07390062E+06  5.38277794E+04  6.48912872E+04
  8.86723790E+04  3.30472238E+06  4.98028858E+05  6.78244843E+05  6.79694051E+05
  7.93046620E+05  4.31422174E+05  8.24615247E+05  7.51572712E+05  7.94862276E+05
  1.45086460E+03  5.24839728E+04  7.09351137E+04  4.87482031E+04  6.56136207E+05
  0.00000000E+00  0.00000000E+00  0.00000000E+00  0.00000000E+00  0.00000000E+00
  0.00000000E+00  0.00000000E+00  0.00000000E+00  0.00000000E+00  0.00000000E+00
  0.00000000E+00  0.00000000E+00  0.00000000E+00  0.00000000E+00  0.00000000E+00
  0.00000000E+00  0.00000000E+00  0.00000000E+00  0.00000000E+00  0.00000000E+00
  0.00000000E+00  0.00000000E+00  0.00000000E+00  0.00000000E+00  0.00000000E+00
  0.00000000E+00  0.00000000E+00  0.00000000E+00  0.00000000E+00  0.00000000E+00
%FLAG LENNARD_JONES_BCOEF                                                       
%FORMAT(5E16.8)                                                                 
  0.00000000E+00  0.00000000E+00  6.99746810E+02  0.00000000E+00  6.93079947E+02
  6.75612247E+02  0.00000000E+00  1.03606917E+02  1.06076943E+02  1.43076527E+01
  0.00000000E+00  5.89183300E+02  5.85549272E+02  8.66220817E+01  4.95732238E+02
  0.00000000E+00  8.51470647E+01  8.81685417E+01  1.14788417E+01  7.10161395E+01
  9.13231543E+00  0.00000000E+00  7.50714425E+02  7.36907417E+02  1.13252061E+02
  6.33305958E+02  9.36708259E+01  8.01323529E+02  0.00000000E+00  6.14502845E+02
  5.99015525E+02  9.40505980E+01  5.19163331E+02  7.81725398E+01  6.53361429E+02
  5.31102864E+02  0.00000000E+00  9.59185913E+01  9.85097219E+01  1.31591746E+01
  8.01410250E+01  1.05333009E+01  1.05031585E+02  8.73413012E+01  1.20953369E+01
  0.00000000E+00  6.29300710E+02  6.26720080E+02  9.21192136E+01  5.29252520E+02
  7.54103785E+01  6.77220874E+02  5.55666448E+02  8.51921330E+01  5.64885984E+02
  0.00000000E+00  1.79702257E+01  2.06278363E+01  1.93248820E+00  1.46567808E+01
  1.41762397E+00  2.09604198E+01  1.82891803E+01  1.73473071E+00  1.53505284E+01
  9.37598976E-02  0.00000000E+00  1.27682121E+03  1.22636552E+03  2.01468199E+02
  1.08210555E+03  1.69194406E+02  1.34630496E+03  1.08732781E+03  1.87626421E+02
  1.16041466E+03  4.34187588E+01  2.19561270E+03  0.00000000E+00  1.05648788E+02
  1.07908863E+02  1.46638650E+01  8.83744760E+01  1.17854122E+01  1.15327881E+02
  9.56748258E+01  1.34932874E+01  9.40124296E+01  2.01792524E+00  2.04498832E+02
  1.50233639E+01  0.00000000E+00  1.16187983E+02  1.18043746E+02  1.63092814E+01
  9.73010751E+01  1.31591746E+01  1.26451907E+02  1.04660679E+02  1.50233639E+01
  1.03580945E+02  2.33864085E+00  2.22617115E+02  1.66953734E+01  1.85196588E+01
  0.00000000E+00  2.46634071E+02  2.57247998E+02  3.27367584E+01  2.05382357E+02
  2.59032434E+01  2.72441264E+02  2.28082817E+02  2.99956518E+01  2.17881447E+02
  3.81244735E+00  4.96933021E+02  3.36495093E+01  3.76669763E+01  7.32135689E+01
  0.00000000E+00  8.02009911E+02  7.39096166E+02  1.37645254E+02  6.85646169E+02
  1.18892992E+02  8.26226877E+02  6.55302031E+02  1.29182470E+02  7.39192956E+02
  3.89397084E+01  1.27274036E+03  1.38881438E+02  1.49179788E+02  3.55508807E+02
  6.59809978E+02  0.00000000E+00  5.73100668E+02  5.68167388E+02  8.46911674E+01
  4.82452690E+02  6.95554224E+01  6.15165511E+02  5.03752097E+02  7.83922976E+01
  5.15240418E+02  1.45902714E+01  1.04760055E+03  8.63723599E+01  9.50181887E+01
  2.01385896E+02  6.59602869E+02  4.69350655E+02  0.00000000E+00  6.08686716E+02
  5.95658566E+02  9.24130897E+01  5.13825646E+02  7.66011896E+01  6.48597119E+02
  5.28126496E+02  8.57562161E+01  5.49675335E+02  1.74825352E+01  1.08514898E+03
  9.40636541E+01  1.03031170E+02  2.23105344E+02  6.60656814E+02  4.98871431E+02
  5.24668528E+02  0.00000000E+00  6.35775777E+02  6.23492018E+02  9.61012043E+01
  5.36450996E+02  7.95386447E+01  6.78274341E+02  5.52804364E+02  8.91419860E+01
  5.73720490E+02  1.79069525E+01  1.13809863E+03  9.78487751E+01  1.07253000E+02
  2.31437466E+02  6.96735215E+02  5.21008860E+02  5.48900066E+02  5.74088001E+02
  0.00000000E+00  7.35645298E+02  7.21122350E+02  1.11296137E+02  6.20774826E+02
  9.21427846E+01  7.84629864E+02  6.39365975E+02  1.03245151E+02  6.63939748E+02
  2.08019182E+01  1.31578511E+03  1.13312737E+02  1.24185448E+02  2.68164626E+02
  8.04615458E+02  6.02865504E+02  6.34916791E+02  6.64089859E+02  7.68192761E+02
  0.00000000E+00  4.48425641E+02  4.42179058E+02  6.70144433E+01  3.77929747E+02
  5.52495367E+01  4.79881022E+02  3.92047541E+02  6.20954392E+01  4.03897559E+02
  1.20051375E+01  8.11249177E+02  6.82892701E+01  7.49896074E+01  1.60361083E+02
  5.03746928E+02  3.67361018E+02  3.88758656E+02  4.06301077E+02  4.70067704E+02
  2.87011518E+02  0.00000000E+00  6.86742760E+02  6.69494459E+02  1.05087646E+02
  5.80184332E+02  8.73407845E+01  7.30206155E+02  5.93591333E+02  9.75893223E+01
  6.20970728E+02  2.04226110E+01  1.21536128E+03  1.06903901E+02  1.16947855E+02
  2.54822614E+02  7.32634819E+02  5.62969425E+02  5.90251928E+02  6.17825399E+02
  7.14570130E+02  4.38146883E+02  6.63431737E+02  0.00000000E+00  6.33599808E+02
  6.18067719E+02  9.68317709E+01  5.35217268E+02  8.04441774E+01  6.73934129E+02
  5.47995038E+02  8.99118321E+01  5.72796552E+02  1.87363491E+01  1.12264825E+03
  9.85144068E+01  1.07792209E+02  2.34635906E+02  6.77838234E+02  5.19385932E+02
  5.44830041E+02  5.70234696E+02  6.59538202E+02  4.04310927E+02  6.12468585E+02
  5.65406768E+02  0.00000000E+00  7.88832443E+02  7.75965878E+02  1.18480231E+02
  6.65163419E+02  9.78480313E+01  8.43016687E+02  6.87991684E+02  1.09835130E+02
  7.11091246E+02  2.15976454E+01  1.42044994E+03  1.20690226E+02  1.32424984E+02
  2.84316332E+02  8.76530306E+02  6.46321327E+02  6.82622272E+02  7.13654906E+02
  8.25605255E+02  5.04545572E+02  7.68900328E+02  7.09588248E+02  8.86629877E+02
  0.00000000E+00  1.51381989E+01  1.73073921E+01  1.64271443E+00  1.23577916E+01
  1.20906610E+00  1.76168249E+01  1.53451874E+01  1.47593342E+00  1.29497639E+01
  8.30374121E-02  3.63008040E+01  1.71416196E+00  1.98360701E+00  3.25874788E+00
  3.22610300E+01  1.22938581E+01  1.46824710E+01  1.50468782E+01  1.74775900E+01
  1.01016461E+01  1.71355763E+01  1.57231024E+01  1.81620725E+01  7.34107347E-02
  0.00000000E+00  1.13016701E+02  1.16065835E+02  1.55059847E+01  9.44273579E+01
  1.24121196E+01  1.23751804E+02  1.02907011E+02  1.42525182E+01  1.00379343E+02
  2.04464126E+00  2.21057891E+02  1.58996004E+01  1.77023375E+01  3.53465258E+01
  1.52187647E+02  9.23664132E+01  1.01040256E+02  1.05029928E+02  1.21646616E+02
  7.31636661E+01  1.14981426E+02  1.05935811E+02  1.29412081E+02  1.73959275E+00
  1.67944276E+01  0.00000000E+00  1.23703833E+02  1.25489661E+02  1.74198525E+01
  1.03628678E+02  1.40708155E+01  1.34516705E+02  1.11262422E+02  1.60512210E+01
  1.10338858E+02  2.52706841E+00  2.36330977E+02  1.78280753E+01  1.97659043E+01
  4.03053148E+01  1.57767494E+02  1.01173582E+02  1.09570372E+02  1.14083104E+02
  1.32088478E+02  7.98066064E+01  1.24325688E+02  1.14599119E+02  1.40899023E+02
  2.14252117E+00  1.89134207E+01  2.10929191E+01  0.00000000E+00  1.02213609E+02
  1.04805976E+02  1.40708155E+01  8.54300184E+01  1.12764485E+01  1.11822890E+02
  9.29237250E+01  1.29374769E+01  9.08337343E+01  1.87851879E+00  1.99324990E+02
  1.44244612E+01  1.60512210E+01  3.21366985E+01  1.36687183E+02  8.35449674E+01
  9.12729468E+01  9.48968218E+01  1.09905709E+02  6.61407978E+01  1.03827676E+02
  9.56653235E+01  1.16962018E+02  1.59752321E+00  1.52447987E+01  1.71467049E+01
  1.38359132E+01  0.00000000E+00  6.76761650E+02  6.67064884E+02  1.01222865E+02
  5.70418543E+02  8.34763787E+01  7.24069102E+02  5.91437209E+02  9.38002600E+01
  6.09644486E+02  1.81862545E+01  1.22338095E+03  1.03142177E+02  1.13246882E+02
  2.42333872E+02  7.58868174E+02  5.54432373E+02  5.86533377E+02  6.13033212E+02
  7.09237557E+02  4.33107428E+02  6.60983496E+02  6.09948479E+02  7.61325055E+02
  1.53011364E+01  1.10519632E+02  1.20516733E+02  9.99070234E+01  6.53563058E+02
  0.00000000E+00  0.00000000E+00  0.00000000E+00  0.00000000E+00  0.00000000E+00
  0.00000000E+00  0.00000000E+00  0.00000000E+00  0.00000000E+00  0.00000000E+00
  0.00000000E+00  0.00000000E+00  0.00000000E+00  0.00000000E+00  0.00000000E+00
  0.00000000E+00  0.00000000E+00  0.00000000E+00  0.00000000E+00  0.00000000E+00
  0.00000000E+00  0.00000000E+00  0.00000000E+00  0.00000000E+00  0.00000000E+00
  0.00000000E+00  0.00000000E+00  0.00000000E+00  0.00000000E+00  0.00000000E+00
%FLAG BONDS_INC_HYDROGEN                                                        
%FORMAT(10I8)                                                                   
      87      90       2      81      84       3      75      78       3      60
      63       8      60      66       8      51      54      11      33      36
      18      24      27      22      15      18       3       6       9      24
       6      12      24       0       3       2     189     192       2     183
     186       3     177     180       3     162     165       8     162     168
       8     153     156      11     135     138      18     126     129      22
     117     120       3     108     111      24     108     114      24     288
     291       2     282     285       3     276     279       3     264     267
      29     252     255       8     252     258       8     237     240      32
     228     231      22     219     222       3     210     213      24     210
     216      24     378     381       2     372     375       3     366     369
       3     354     357      11     342     345      35     336     339      37
     327     330      22     318     321       3     309     312      24     309
     315      24     471     474       2     465     468       3     459     462
       3     441     444       8     441     447       8     432     435      42
     426     429      44     417     420      22     408     411       3     399
     402      24     399     405      24     570     573       2     564     567
       3     558     561       3     546     549      29     534     537       8
     534     540       8     519     522      32     510     513      22     501
     504       3     492     495      24     492     498      24     660     663
       2     654     657       3     648     651       3     636     639      11
     624     627      35     618     621      37     609     612      22     600
     603       3     591     594      24     591     597      24     759     762
       2     753     756       3     747     750       3     735     738      29
     723     726       8     723     729       8     708     711      32     699
     702      22     690     693       3     681     684      24     681     687
      24     849     852       2     843     846       3     837     840       3
     825     828      11     813     816      35     807     810      37     798
     801      22     789     792       3     780     783      24     780     786
      24     948     951       2     942     945       3     936     939       3
     924     927      29     912     915       8     912     918       8     897
     900      32     888     891      22     879     882       3     870     873
      24     870     876      24    1047    1050       2    1041    1044       3
    1035    1038       3    1023    1026      29    1011    1014       8    1011
    1017       8     996     999      32     987     990      22     978     981
       3     969     972      24     969     975      24    1137    1140       2
    1131    1134       3    1125    1128       3    1113    1116      11    1101
    1104      35    1095    1098      37    1086    1089      22    1077    1080
       3    1068    1071      24    1068    1074      24    1230    1233       2
    1224    1227       3    1218    1221       3    1200    1203       8    1200
    1206       8    1191    1194      42    1185    1188      44    1176    1179
      22    1167    1170       3    1158    1161      24    1158    1164      24
    1332    1335       2    1326    1329       3    1320    1323       3    1305
    1308       8    1305    1311       8    1296    1299      11    1278    1281
      18    1269    1272      22    1260    1263       3    1251    1254      24
    1251    1257      24    1425    1428       2    1419    1422       3    1413
    1416       3    1395    1398       8    1395    1401       8    1386    1389
      42    1380    1383      44    1371    1374      22    1362    1365       3
    1353    1356      24    1353    1359      24    1527    1530       2    1521
    1524       3    1515    1518       3    1500    1503       8    1500    1506
       8    1491    1494      11    1473    1476      18    1464    1467      22
    1455    1458       3    1446    1449      24    1446    1452      24    1617
    1620       2    1611    1614       3    1605    1608       3    1593    1596
      11    1581    1584      35    1575    1578      37    1566    1569      22
    1557    1560       3    1548    1551      24    1548    1554      24    1719
    1722       2    1713    1716       3    1707    1710       3    1692    1695
       8    1692    1698       8    1683    1686      11    1665    1668      18
    1656    1659      22    1647    1650       3    1638    1641      24    1638
    1644      24    1821    1824       2    1815    1818       3    1809    1812
       3    1794    1797       8    1794    1800       8    1785    1788      11
    1767    1770      18    1758    1761      22    1749    1752       3    1740
    1743      24    1740    1746      24    1920    1923       2    1914    1917
       3    1908    1911       3    1896    1899      29    1884    1887       8
    1884    1890       8    1869    1872      32    1860    1863      22    1851
    1854       3    1842    1845      24    1842    1848      24    2010    2013
       2    2004    2007       3    1998    2001       3    1986    1989      11
    1974    1977      35    1968    1971      37    1959    1962      22    1950
    1953       3    1941    1944      24    1941    1947      24    2109    2112
       2    2103    2106       3    2097    2100       3    2085    2088      29
    2073    2076       8    2073    2079       8    2058    2061      32    2049
    2052      22    2040    2043       3    2031    2034      24    2031    2037
      24    2199    2202       2    2193    2196       3    2187    2190       3
    2175    2178      11    2163    2166      35    2157    2160      37    2148
    2151      22    2139    2142       3    2130    2133      24    2130    2136
      24    2301    2304       2    2295    2298       3    2289    2292       3
    2274    2277       8    2274    2280       8    2265    2268      11    2247
    2250      18    2238    2241      22    2229    2232       3    2220    2223
      24    2220    2226      24    2403    2406       2    2397    2400       3
    2391    2394       3    2376    2379       8    2376    2382       8    2367
    2370      11    2349    2352      18    2340    2343      22    2331    2334
       3    2322    2325      24    2322    2328      24    2496    2499       2
    2490    2493       3    2484    2487       3    2466    2469       8    2466
    2472       8    2457    2460      42    2451    2454      44    2442    2445
      22    2433    2436       3    2424    2427      24    2424    2430      24
    2595    2598       2    2589    2592       3    2583    2586       3    2571
    2574      29    2559    2562       8    2559    2565       8    2544    2547
      32    2535    2538      22    2526    2529       3    2517    2520      24
    2517    2523      24    2688    2691       2    2682    2685       3    2676
    2679       3    2658    2661       8    2658    2664       8    2649    2652
      42    2643    2646      44    2634    2637      22    2625    2628       3
    2616    2619      24    2616    2622      24    2790    2793       2    2784
    2787       3    2778    2781       3    2763    2766       8    2763    2769
       8    2754    2757      11    2736    2739      18    2727    2730      22
    2718    2721       3    2709    2712      24    2709    2715      24    2883
    2886       2    2877    2880       3    2871    2874       3    2853    2856
       8    2853    2859       8    2844    2847      42    2838    2841      44
    2829    2832      22    2820    2823       3    2811    2814      24    2811
    2817      24    2982    2985       2    2976    2979       3    2970    2973
       3    2958    2961      29    2946    2949       8    2946    2952       8
    2931    2934      32    2922    2925      22    2913    2916       3    2904
    2907      24    2904    2910      24    3081    3084       2    3075    3078
       3    3069    3072       3    3057    3060      29    3045    3048       8
    3045    3051       8    3030    3033      32    3021    3024      22    3012
    3015       3    3003    3006      24    3003    3009      24    3183    3186
       2    3177    3180       3    3171    3174       3    3156    3159       8
    3156    3162       8    3147    3150      11    3129    3132      18    3120
    3123      22    3111    3114       3    3102    3105      24    3102    3108
      24    3273    3276       2    3267    3270       3    3261    3264       3
    3249    3252      11    3237    3240      35    3231    3234      37    3222
    3225      22    3213    3216       3    3204    3207      24    3204    3210
      24    3363    3366       2    3357    3360       3    3351    3354       3
    3339    3342      11    3327    3330      35    3321    3324      37    3312
    3315      22    3303    3306       3    3294    3297      24    3294    3300
      24    3453    3456       2    3447    3450       3    3441    3444       3
    3429    3432      11    3417    3420      35    3411    3414      37    3402
    3405      22    3393    3396       3    3384    3387      24    3384    3390
      24    3546    3549       2    3540    3543       3    3534    3537       3
    3516    3519       8    3516    3522       8    3507    3510      42    3501
    3504      44    3492    3495      22    3483    3486       3    3474    3477
      24    3474    3480      24    3636    3639       2    3630    3633       3
    3624    3627       3    3612    3615      11    3600    3603      35    3594
    3597      37    3585    3588      22    3576    3579       3    3567    3570
      24    3567    3573      24    3735    3738       2    3729    3732       3
    3723    3726       3    3711    3714      29    3699    3702       8    3699
    3705       8    3684    3687      32    3675    3678      22    3666    3669
       3    3657    3660      24    3657    3663      24    3828    3831       2
    3822    3825       3    3816    3819       3    3798    3801       8    3798
    3804       8    3789    3792      42    3783    3786      44    3774    3777
      22    3765    3768       3    3756    3759      24    3756    3762      24
    3921    3924       2    3915    3918       3    3909    3912       3    3891
    3894       8    3891    3897       8    3882    3885      42    3876    3879
      44    3867    3870      22    3858    3861       3    3849    3852      24
    3849    3855      24    4023    4026       2    4017    4020       3    4011
    4014       3    3996    3999       8    3996    4002       8    3987    3990
      11    3969    3972      18    3960    3963      22    3951    3954       3
    3942    3945      24    3942    3948      24    4125    4128       2    4119
    4122       3    4113    4116       3    4098    4101       8    4098    4104
       8    4089    4092      11    4071    4074      18    4062    4065      22
    4053    4056       3    4044    4047      24    4044    4050      24    4227
    4230       2    4221    4224       3    4215    4218       3    4200    4203
       8    4200    4206       8    4191    4194      11    4173    4176      18
    4164    4167      22    4155    4158       3    4146    4149      24    4146
    4152      24    4320    4323       2    4314    4317       3    4308    4311
       3    4290    4293       8    4290    4296       8    4281    4284      42
    4275    4278      44    4266    4269      22    4257    4260       3    4248
    4251      24    4248    4254      24    4419    4422       2    4413    4416
       3    4407    4410       3    4395    4398      29    4383    4386       8
    4383    4389       8    4368    4371      32    4359    4362      22    4350
    4353       3    4341    4344      24    4341    4347      24    4512    4515
       2    4506    4509       3    4500    4503       3    4482    4485       8
    4482    4488       8    4473    4476      42    4467    4470      44    4458
    4461      22    4449    4452       3    4440    4443      24    4440    4446
      24    4605    4608       2    4599    4602       3    4593    4596       3
    4575    4578       8    4575    4581       8    4566    4569      42    4560
    4563      44    4551    4554      22    4542    4545       3    4533    4536
      24    4533    4539      24    4707    4710       2    4701    4704       3
    4695    4698       3    4680    4683       8    4680    4686       8    4671
    4674      11    4653    4656      18    4644    4647      22    4635    4638
       3    4626    4629      24    4626    4632      24    4797    4800       2
    4791    4794       3    4785    4788       3    4773    4776      11    4761
    4764      35    4755    4758      37    4746    4749      22    4737    4740
       3    4728    4731      24    4728    4734      24    4896    4899       2
    4890    4893       3    4884    4887       3    4872    4875      29    4860
    4863       8    4860    4866       8    4845    4848      32    4836    4839
      22    4827    4830       3    4818    4821      24    4818    4824      24
    4995    4998       2    4989    4992       3    4983    4986       3    4971
    4974      29    4959    4962       8    4959    4965       8    4944    4947
      32    4935    4938      22    4926    4929       3    4917    4920      24
    4917    4923      24    5094    5097       2    5088    5091       3    5082
    5085       3    5070    5073      29    5058    5061       8    5058    5064
       8    5043    5046      32    5034    5037      22    5025    5028       3
    5016    5019      24    5016    5022      24    5184    5187       2    5178
    5181       3    5172    5175       3    5160    5163      11    5148    5151
      35    5142    5145      37    5133    5136      22    5124    5127       3
    5115    5118      24    5115    5121      24    5286    5289       2    5280
    5283       3    5274    5277       3    5259    5262       8    5259    5265
       8    5250    5253      11    5232    5235      18    5223    5226      22
    5214    5217       3    5205    5208      24    5205    5211      24    5376
    5379       2    5370    5373       3    5364    5367       3    5352    5355
      11    5340    5343      35    5334    5337      37    5325    5328      22
    5316    5319       3    5307    5310      24    5307    5313      24    5469
    5472       2    5463    5466       3    5457    5460       3    5439    5442
       8    5439    5445       8    5430    5433      42    5424    5427      44
    5415    5418      22    5406    5409       3    5397    5400      24    5397
    5403      24    5562    5565       2    5556    5559       3    5550    5553
       3    5532    5535       8    5532    5538       8    5523    5526      42
    5517    5520      44    5508    5511      22    5499    5502       3    5490
    5493      24    5490    5496      24    5664    5667       2    5658    5661
       3    5652    5655       3    5637    5640       8    5637    5643       8
    5628    5631      11    5610    5613      18    5601    5604      22    5592
    5595       3    5583    5586      24    5583    5589      24    5763    5766
       2    5757    5760       3    5751    5754       3    5739    5742      29
    5727    5730       8    5727    5733       8    5712    5715      32    5703
    5706      22    5694    5697       3    5685    5688      24    5685    5691
      24    5856    5859       2    5850    5853       3    5844    5847       3
    5826    5829       8    5826    5832       8    5817    5820      42    5811
    5814      44    5802    5805      22    5793    5796       3    5784    5787
      24    5784    5790      24    5946    5949       2    5940    5943       3
    5934    5937       3    5922    5925      11    5910    5913      35    5904
    5907      37    5895    5898      22    5886    5889       3    5877    5880
      24    5877    5883      24    6045    6048       2    6039    6042       3
    6033    6036       3    6021    6024      29    6009    6012       8    6009
    6015       8    5994    5997      32    5985    5988      22    5976    5979
       3    5967    5970      24    5967    5973      24    6135    6138       2
    6129    6132       3    6123    6126       3    6111    6114      11    6099
    6102      35    6093    6096      37    6084    6087      22    6075    6078
       3    6066    6069      24    6066    6072      24    6237    6240       2
    6231    6234       3    6225    6228       3    6210    6213       8    6210
    6216       8    6201    6204      11    6183    6186      18    6174    6177
      22    6165    6168       3    6156    6159      24    6156    6162      24
    6339    6342       2    6333    6336       3    6327    6330       3    6312
    6315       8    6312    6318       8    6303    6306      11    6285    6288
      18    6276    6279      22    6267    6270       3    6258    6261      24
    6258    6264      24    6429    6432       2    6423    6426       3    6417
    6420       3    6405    6408      11    6393    6396      35    6387    6390
      37    6378    6381      22    6369    6372       3    6360    6363      24
    6360    6366      24    6528    6531       2    6522    6525       2    6516
    6519       3    6510    6513       3    6492    6495       8    6492    6498
       8    6483    6486      42    6477    6480      44    6468    6471      22
    6459    6462       3    6450    6453      24    6450    6456      24    7020
    7023      47    7017    7020      49    7017    7023      49    7032    7035
      47    7029    7032      49    7029    7035      49    7044    7047      47
    7041    7044      49    7041    7047      49    7056    7059      47    7053
    7056      49    7053    7059      49    7068    7071      47    7065    7068
      49    7065    7071      49    7080    7083      47    7077    7080      49
    7077    7083      49    7092    7095      47    7089    7092      49    7089
    7095      49    7104    7107      47    7101    7104      49    7101    7107
      49    7116    7119      47    7113    7116      49    7113    7119      49
    7128    7131      47    7125    7128      49    7125    7131      49    7140
    7143      47    7137    7140      49    7137    7143      49    7152    7155
      47    7149    7152      49    7149    7155      49    7164    7167      47
    7161    7164      49    7161    7167      49    7176    7179      47    7173
    7176      49    7173    7179      49    7188    7191      47    7185    7188
      49    7185    7191      49    7200    7203      47    7197    7200      49
    7197    7203      49    7212    7215      47    7209    7212      49    7209
    7215      49    7224    7227      47    7221    7224      49    7221    7227
      49    7236    7239      47    7233    7236      49    7233    7239      49
    7248    7251      47    7245    7248      49    7245    7251      49    7260
    7263      47    7257    7260      49    7257    7263      49    7272    7275
      47    7269    7272      49    7269    7275      49    7284    7287      47
    7281    7284      49    7281    7287      49    7296    7299      47    7293
    7296      49    7293    7299      49    7308    7311      47    7305    7308
      49    7305    7311      49    7320    7323      47    7317    7320      49
    7317    7323      49    7332    7335      47    7329    7332      49    7329
    7335      49    7344    7347      47    7341    7344      49    7341    7347
      49    7356    7359      47    7353    7356      49    7353    7359      49
    7368    7371      47    7365    7368      49    7365    7371      49    7380
    7383      47    7377    7380      49    7377    7383      49    7392    7395
      47    7389    7392      49    7389    7395      49    7404    7407      47
    7401    7404      49    7401    7407      49    7416    7419      47    7413
    7416      49    7413    7419      49    7428    7431      47    7425    7428
      49    7425    7431      49    7440    7443      47    7437    7440      49
    7437    7443      49    7452    7455      47    7449    7452      49    7449
    7455      49    7464    7467      47    7461    7464      49    7461    7467
      49    7476    7479      47    7473    7476      49    7473    7479      49
    7488    7491      47    7485    7488      49    7485    7491      49    7500
    7503      47    7497    7500      49    7497    7503      49    7512    7515
      47    7509    7512      49    7509    7515      49    7524    7527      47
    7521    7524      49    7521    7527      49    7536    7539      47    7533
    7536      49    7533    7539      49    7548    7551      47    7545    7548
      49    7545    7551      49    7560    7563      47    7557    7560      49
    7557    7563      49    7572    7575      47    7569    7572      49    7569
    7575      49    7584    7587      47    7581    7584      49    7581    7587
      49    7596    7599      47    7593    7596      49    7593    7599      49
    7608    7611      47    7605    7608      49    7605    7611      49    7620
    7623      47    7617    7620      49    7617    7623      49    7632    7635
      47    7629    7632      49    7629    7635      49    7644    7647      47
    7641    7644      49    7641    7647      49    7656    7659      47    7653
    7656      49    7653    7659      49    7668    7671      47    7665    7668
      49    7665    7671      49    7680    7683      47    7677    7680      49
    7677    7683      49    7692    7695      47    7689    7692      49    7689
    7695      49    7704    7707      47    7701    7704      49    7701    7707
      49    7716    7719      47    7713    7716      49    7713    7719      49
    7728    7731      47    7725    7728      49    7725    7731      49    7740
    7743      47    7737    7740      49    7737    7743      49    7752    7755
      47    7749    7752      49    7749    7755      49    7764    7767      47
    7761    7764      49    7761    7767      49    7776    7779      47    7773
    7776      49    7773    7779      49    7788    7791      47    7785    7788
      49    7785    7791      49    7800    7803      47    7797    7800      49
    7797    7803      49    7812    7815      47    7809    7812      49    7809
    7815      49    7824    7827      47    7821    7824      49    7821    7827
      49    7836    7839      47    7833    7836      49    7833    7839      49
    7848    7851      47    7845    7848      49    7845    7851      49    7860
    7863      47    7857    7860      49    7857    7863      49    7872    7875
      47    7869    7872      49    7869    7875      49    7884    7887      47
    7881    7884      49    7881    7887      49    7896    7899      47    7893
    7896      49    7893    7899      49    7908    7911      47    7905    7908
      49    7905    7911      49    7920    7923      47    7917    7920      49
    7917    7923      49    7932    7935      47    7929    7932      49    7929
    7935      49    7944    7947      47    7941    7944      49    7941    7947
      49    7956    7959      47    7953    7956      49    7953    7959      49
    7968    7971      47    7965    7968      49    7965    7971      49    7980
    7983      47    7977    7980      49    7977    7983      49    7992    7995
      47    7989    7992      49    7989    7995      49    8004    8007      47
    8001    8004      49    8001    8007      49    8016    8019      47    8013
    8016      49    8013    8019      49    8028    8031      47    8025    8028
      49    8025    8031      49    8040    8043      47    8037    8040      49
    8037    8043      49    8052    8055      47    8049    8052      49    8049
    8055      49    8064    8067      47    8061    8064      49    8061    8067
      49    8076    8079      47    8073    8076      49    8073    8079      49
    8088    8091      47    8085    8088      49    8085    8091      49    8100
    8103      47    8097    8100      49    8097    8103      49    8112    8115
      47    8109    8112      49    8109    8115      49    8124    8127      47
    8121    8124      49    8121    8127      49    8136    8139      47    8133
    8136      49    8133    8139      49    8148    8151      47    8145    8148
      49    8145    8151      49    8160    8163      47    8157    8160      49
    8157    8163      49    8172    8175      47    8169    8172      49    8169
    8175      49    8184    8187      47    8181    8184      49    8181    8187
      49    8196    8199      47    8193    8196      49    8193    8199      49
    8208    8211      47    8205    8208      49    8205    8211      49    8220
    8223      47    8217    8220      49    8217    8223      49    8232    8235
      47    8229    8232      49    8229    8235      49    8244    8247      47
    8241    8244      49    8241    8247      49    8256    8259      47    8253
    8256      49    8253    8259      49    8268    8271      47    8265    8268
      49    8265    8271      49    8280    8283      47    8277    8280      49
    8277    8283      49    8292    8295      47    8289    8292      49    8289
    8295      49    8304    8307      47    8301    8304      49    8301    8307
      49    8316    8319      47    8313    8316      49    8313    8319      49
    8328    8331      47    8325    8328      49    8325    8331      49    8340
    8343      47    8337    8340      49    8337    8343      49    8352    8355
      47    8349    8352      49    8349    8355      49    8364    8367      47
    8361    8364      49    8361    8367      49    8376    8379      47    8373
    8376      49    8373    8379      49    8388    8391      47    8385    8388
      49    8385    8391      49    8400    8403      47    8397    8400      49
    8397    8403      49    8412    8415      47    8409    8412      49    8409
    8415      49    8424    8427      47    8421    8424      49    8421    8427
      49    8436    8439      47    8433    8436      49    8433    8439      49
    8448    8451      47    8445    8448      49    8445    8451      49    8460
    8463      47    8457    8460      49    8457    8463      49    8472    8475
      47    8469    8472      49    8469    8475      49    8484    8487      47
    8481    8484      49    8481    8487      49    8496    8499      47    8493
    8496      49    8493    8499      49    8508    8511      47    8505    8508
      49    8505    8511      49    8520    8523      47    8517    8520      49
    8517    8523      49    8532    8535      47    8529    8532      49    8529
    8535      49    8544    8547      47    8541    8544      49    8541    8547
      49    8556    8559      47    8553    8556      49    8553    8559      49
    8568    8571      47    8565    8568      49    8565    8571      49    8580
    8583      47    8577    8580      49    8577    8583      49    8592    8595
      47    8589    8592      49    8589    8595      49    8604    8607      47
    8601    8604      49    8601    8607      49    8616    8619      47    8613
    8616      49    8613    8619      49    8628    8631      47    8625    8628
      49    8625    8631      49    8640    8643      47    8637    8640      49
    8637    8643      49    8652    8655      47    8649    8652      49    8649
    8655      49    8664    8667      47    8661    8664      49    8661    8667
      49    8676    8679      47    8673    8676      49    8673    8679      49
    8688    8691      47    8685    8688      49    8685    8691      49    8700
    8703      47    8697    8700      49    8697    8703      49    8712    8715
      47    8709    8712      49    8709    8715      49    8724    8727      47
    8721    8724      49    8721    8727      49    8736    8739      47    8733
    8736      49    8733    8739      49    8748    8751      47    8745    8748
      49    8745    8751      49    8760    8763      47    8757    8760      49
    8757    8763      49    8772    8775      47    8769    8772      49    8769
    8775      49    8784    8787      47    8781    8784      49    8781    8787
      49    8796    8799      47    8793    8796      49    8793    8799      49
    8808    8811      47    8805    8808      49    8805    8811      49    8820
    8823      47    8817    8820      49    8817    8823      49    8832    8835
      47    8829    8832      49    8829    8835      49    8844    8847      47
    8841    8844      49    8841    8847      49    8856    8859      47    8853
    8856      49    8853    8859      49    8868    8871      47    8865    8868
      49    8865    8871      49    8880    8883      47    8877    8880      49
    8877    8883      49    8892    8895      47    8889    8892      49    8889
    8895      49    8904    8907      47    8901    8904      49    8901    8907
      49    8916    8919      47    8913    8916      49    8913    8919      49
    8928    8931      47    8925    8928      49    8925    8931      49    8940
    8943      47    8937    8940      49    8937    8943      49    8952    8955
      47    8949    8952      49    8949    8955      49    8964    8967      47
    8961    8964      49    8961    8967      49    8976    8979      47    8973
    8976      49    8973    8979      49    8988    8991      47    8985    8988
      49    8985    8991      49    9000    9003      47    8997    9000      49
    8997    9003      49    9012    9015      47    9009    9012      49    9009
    9015      49    9024    9027      47    9021    9024      49    9021    9027
      49    9036    9039      47    9033    9036      49    9033    9039      49
    9048    9051      47    9045    9048      49    9045    9051      49    9060
    9063      47    9057    9060      49    9057    9063      49    9072    9075
      47    9069    9072      49    9069    9075      49    9084    9087      47
    9081    9084      49    9081    9087      49    9096    9099      47    9093
    9096      49    9093    9099      49    9108    9111      47    9105    9108
      49    9105    9111      49    9120    9123      47    9117    9120      49
    9117    9123      49    9132    9135      47    9129    9132      49    9129
    9135      49    9144    9147      47    9141    9144      49    9141    9147
      49    9156    9159      47    9153    9156      49    9153    9159      49
    9168    9171      47    9165    9168      49    9165    9171      49    9180
    9183      47    9177    9180      49    9177    9183      49    9192    9195
      47    9189    9192      49    9189    9195      49    9204    9207      47
    9201    9204      49    9201    9207      49    9216    9219      47    9213
    9216      49    9213    9219      49    9228    9231      47    9225    9228
      49    9225    9231      49    9240    9243      47    9237    9240      49
    9237    9243      49    9252    9255      47    9249    9252      49    9249
    9255      49    9264    9267      47    9261    9264      49    9261    9267
      49    9276    9279      47    9273    9276      49    9273    9279      49
    9288    9291      47    9285    9288      49    9285    9291      49    9300
    9303      47    9297    9300      49    9297    9303      49    9312    9315
      47    9309    9312      49    9309    9315      49    9324    9327      47
    9321    9324      49    9321    9327      49    9336    9339      47    9333
    9336      49    9333    9339      49    9348    9351      47    9345    9348
      49    9345    9351      49    9360    9363      47    9357    9360      49
    9357    9363      49    9372    9375      47    9369    9372      49    9369
    9375      49    9384    9387      47    9381    9384      49    9381    9387
      49    9396    9399      47    9393    9396      49    9393    9399      49
    9408    9411      47    9405    9408      49    9405    9411      49    9420
    9423      47    9417    9420      49    9417    9423      49    9432    9435
      47    9429    9432      49    9429    9435      49    9444    9447      47
    9441    9444      49    9441    9447      49    9456    9459      47    9453
    9456      49    9453    9459      49    9468    9471      47    9465    9468
      49    9465    9471      49    9480    9483      47    9477    9480      49
    9477    9483      49    9492    9495      47    9489    9492      49    9489
    9495      49    9504    9507      47    9501    9504      49    9501    9507
      49    9516    9519      47    9513    9516      49    9513    9519      49
    9528    9531      47    9525    9528      49    9525    9531      49    9540
    9543      47    9537    9540      49    9537    9543      49    9552    9555
      47    9549    9552      49    9549    9555      49    9564    9567      47
    9561    9564      49    9561    9567      49    9576    9579      47    9573
    9576      49    9573    9579      49    9588    9591      47    9585    9588
      49    9585    9591      49    9600    9603      47    9597    9600      49
    9597    9603      49    9612    9615      47    9609    9612      49    9609
    9615      49    9624    9627      47    9621    9624      49    9621    9627
      49    9636    9639      47    9633    9636      49    9633    9639      49
    9648    9651      47    9645    9648      49    9645    9651      49    9660
    9663      47    9657    9660      49    9657    9663      49    9672    9675
      47    9669    9672      49    9669    9675      49    9684    9687      47
    9681    9684      49    9681    9687      49    9696    9699      47    9693
    9696      49    9693    9699      49    9708    9711      47    9705    9708
      49    9705    9711      49    9720    9723      47    9717    9720      49
    9717    9723      49    9732    9735      47    9729    9732      49    9729
    9735      49    9744    9747      47    9741    9744      49    9741    9747
      49    9756    9759      47    9753    9756      49    9753    9759      49
    9768    9771      47    9765    9768      49    9765    9771      49    9780
    9783      47    9777    9780      49    9777    9783      49    9792    9795
      47    9789    9792      49    9789    9795      49    9804    9807      47
    9801    9804      49    9801    9807      49    9816    9819      47    9813
    9816      49    9813    9819      49    9828    9831      47    9825    9828
      49    9825    9831      49    9840    9843      47    9837    9840      49
    9837    9843      49    9852    9855      47    9849    9852      49    9849
    9855      49    9864    9867      47    9861    9864      49    9861    9867
      49    9876    9879      47    9873    9876      49    9873    9879      49
    9888    9891      47    9885    9888      49    9885    9891      49    9900
    9903      47    9897    9900      49    9897    9903      49    9912    9915
      47    9909    9912      49    9909    9915      49    9924    9927      47
    9921    9924      49    9921    9927      49    9936    9939      47    9933
    9936      49    9933    9939      49    9948    9951      47    9945    9948
      49    9945    9951      49    9960    9963      47    9957    9960      49
    9957    9963      49    9972    9975      47    9969    9972      49    9969
    9975      49    9984    9987      47    9981    9984      49    9981    9987
      49    9996    9999      47    9993    9996      49    9993    9999      49
   10008   10011      47   10005   10008      49   10005   10011      49   10020
   10023      47   10017   10020      49   10017   10023      49   10032   10035
      47   10029   10032      49   10029   10035      49   10044   10047      47
   10041   10044      49   10041   10047      49   10056   10059      47   10053
   10056      49   10053   10059      49   10068   10071      47   10065   10068
      49   10065   10071      49   10080   10083      47   10077   10080      49
   10077   10083      49   10092   10095      47   10089   10092      49   10089
   10095      49   10104   10107      47   10101   10104      49   10101   10107
      49   10116   10119      47   10113   10116      49   10113   10119      49
   10128   10131      47   10125   10128      49   10125   10131      49   10140
   10143      47   10137   10140      49   10137   10143      49   10152   10155
      47   10149   10152      49   10149   10155      49   10164   10167      47
   10161   10164      49   10161   10167      49   10176   10179      47   10173
   10176      49   10173   10179      49   10188   10191      47   10185   10188
      49   10185   10191      49   10200   10203      47   10197   10200      49
   10197   10203      49   10212   10215      47   10209   10212      49   10209
   10215      49   10224   10227      47   10221   10224      49   10221   10227
      49   10236   10239      47   10233   10236      49   10233   10239      49
   10248   10251      47   10245   10248      49   10245   10251      49   10260
   10263      47   10257   10260      49   10257   10263      49   10272   10275
      47   10269   10272      49   10269   10275      49   10284   10287      47
   10281   10284      49   10281   10287      49   10296   10299      47   10293
   10296      49   10293   10299      49   10308   10311      47   10305   10308
      49   10305   10311      49   10320   10323      47   10317   10320      49
   10317   10323      49   10332   10335      47   10329   10332      49   10329
   10335      49   10344   10347      47   10341   10344      49   10341   10347
      49   10356   10359      47   10353   10356      49   10353   10359      49
   10368   10371      47   10365   10368      49   10365   10371      49   10380
   10383      47   10377   10380      49   10377   10383      49   10392   10395
      47   10389   10392      49   10389   10395      49   10404   10407      47
   10401   10404      49   10401   10407      49   10416   10419      47   10413
   10416      49   10413   10419      49   10428   10431      47   10425   10428
      49   10425   10431      49   10440   10443      47   10437   10440      49
   10437   10443      49   10452   10455      47   10449   10452      49   10449
   10455      49   10464   10467      47   10461   10464      49   10461   10467
      49   10476   10479      47   10473   10476      49   10473   10479      49
   10488   10491      47   10485   10488      49   10485   10491      49   10500
   10503      47   10497   10500      49   10497   10503      49   10512   10515
      47   10509   10512      49   10509   10515      49   10524   10527      47
   10521   10524      49   10521   10527      49   10536   10539      47   10533
   10536      49   10533   10539      49   10548   10551      47   10545   10548
      49   10545   10551      49   10560   10563      47   10557   10560      49
   10557   10563      49   10572   10575      47   10569   10572      49   10569
   10575      49   10584   10587      47   10581   10584      49   10581   10587
      49   10596   10599      47   10593   10596      49   10593   10599      49
   10608   10611      47   10605   10608      49   10605   10611      49   10620
   10623      47   10617   10620      49   10617   10623      49   10632   10635
      47   10629   10632      49   10629   10635      49   10644   10647      47
   10641   10644      49   10641   10647      49   10656   10659      47   10653
   10656      49   10653   10659      49   10668   10671      47   10665   10668
      49   10665   10671      49   10680   10683      47   10677   10680      49
   10677   10683      49   10692   10695      47   10689   10692      49   10689
   10695      49   10704   10707      47   10701   10704      49   10701   10707
      49   10716   10719      47   10713   10716      49   10713   10719      49
   10728   10731      47   10725   10728      49   10725   10731      49   10740
   10743      47   10737   10740      49   10737   10743      49   10752   10755
      47   10749   10752      49   10749   10755      49   10764   10767      47
   10761   10764      49   10761   10767      49   10776   10779      47   10773
   10776      49   10773   10779      49   10788   10791      47   10785   10788
      49   10785   10791      49   10800   10803      47   10797   10800      49
   10797   10803      49   10812   10815      47   10809   10812      49   10809
   10815      49   10824   10827      47   10821   10824      49   10821   10827
      49   10836   10839      47   10833   10836      49   10833   10839      49
   10848   10851      47   10845   10848      49   10845   10851      49   10860
   10863      47   10857   10860      49   10857   10863      49   10872   10875
      47   10869   10872      49   10869   10875      49   10884   10887      47
   10881   10884      49   10881   10887      49   10896   10899      47   10893
   10896      49   10893   10899      49   10908   10911      47   10905   10908
      49   10905   10911      49   10920   10923      47   10917   10920      49
   10917   10923      49   10932   10935      47   10929   10932      49   10929
   10935      49   10944   10947      47   10941   10944      49   10941   10947
      49   10956   10959      47   10953   10956      49   10953   10959      49
   10968   10971      47   10965   10968      49   10965   10971      49   10980
   10983      47   10977   10980      49   10977   10983      49   10992   10995
      47   10989   10992      49   10989   10995      49   11004   11007      47
   11001   11004      49   11001   11007      49   11016   11019      47   11013
   11016      49   11013   11019      49   11028   11031      47   11025   11028
      49   11025   11031      49   11040   11043      47   11037   11040      49
   11037   11043      49   11052   11055      47   11049   11052      49   11049
   11055      49   11064   11067      47   11061   11064      49   11061   11067
      49   11076   11079      47   11073   11076      49   11073   11079      49
   11088   11091      47   11085   11088      49   11085   11091      49   11100
   11103      47   11097   11100      49   11097   11103      49   11112   11115
      47   11109   11112      49   11109   11115      49   11124   11127      47
   11121   11124      49   11121   11127      49   11136   11139      47   11133
   11136      49   11133   11139      49   11148   11151      47   11145   11148
      49   11145   11151      49   11160   11163      47   11157   11160      49
   11157   11163      49   11172   11175      47   11169   11172      49   11169
   11175      49   11184   11187      47   11181   11184      49   11181   11187
      49   11196   11199      47   11193   11196      49   11193   11199      49
   11208   11211      47   11205   11208      49   11205   11211      49   11220
   11223      47   11217   11220      49   11217   11223      49   11232   11235
      47   11229   11232      49   11229   11235      49   11244   11247      47
   11241   11244      49   11241   11247      49   11256   11259      47   11253
   11256      49   11253   11259      49   11268   11271      47   11265   11268
      49   11265   11271      49   11280   11283      47   11277   11280      49
   11277   11283      49   11292   11295      47   11289   11292      49   11289
   11295      49   11304   11307      47   11301   11304      49   11301   11307
      49   11316   11319      47   11313   11316      49   11313   11319      49
   11328   11331      47   11325   11328      49   11325   11331      49   11340
   11343      47   11337   11340      49   11337   11343      49   11352   11355
      47   11349   11352      49   11349   11355      49   11364   11367      47
   11361   11364      49   11361   11367      49   11376   11379      47   11373
   11376      49   11373   11379      49   11388   11391      47   11385   11388
      49   11385   11391      49   11400   11403      47   11397   11400      49
   11397   11403      49   11412   11415      47   11409   11412      49   11409
   11415      49   11424   11427      47   11421   11424      49   11421   11427
      49   11436   11439      47   11433   11436      49   11433   11439      49
   11448   11451      47   11445   11448      49   11445   11451      49   11460
   11463      47   11457   11460      49   11457   11463      49   11472   11475
      47   11469   11472      49   11469   11475      49   11484   11487      47
   11481   11484      49   11481   11487      49   11496   11499      47   11493
   11496      49   11493   11499      49   11508   11511      47   11505   11508
      49   11505   11511      49   11520   11523      47   11517   11520      49
   11517   11523      49   11532   11535      47   11529   11532      49   11529
   11535      49   11544   11547      47   11541   11544      49   11541   11547
      49   11556   11559      47   11553   11556      49   11553   11559      49
   11568   11571      47   11565   11568      49   11565   11571      49   11580
   11583      47   11577   11580      49   11577   11583      49   11592   11595
      47   11589   11592      49   11589   11595      49   11604   11607      47
   11601   11604      49   11601   11607      49   11616   11619      47   11613
   11616      49   11613   11619      49   11628   11631      47   11625   11628
      49   11625   11631      49   11640   11643      47   11637   11640      49
   11637   11643      49   11652   11655      47   11649   11652      49   11649
   11655      49   11664   11667      47   11661   11664      49   11661   11667
      49   11676   11679      47   11673   11676      49   11673   11679      49
   11688   11691      47   11685   11688      49   11685   11691      49   11700
   11703      47   11697   11700      49   11697   11703      49   11712   11715
      47   11709   11712      49   11709   11715      49   11724   11727      47
   11721   11724      49   11721   11727      49   11736   11739      47   11733
   11736      49   11733   11739      49   11748   11751      47   11745   11748
      49   11745   11751      49   11760   11763      47   11757   11760      49
   11757   11763      49   11772   11775      47   11769   11772      49   11769
   11775      49   11784   11787      47   11781   11784      49   11781   11787
      49   11796   11799      47   11793   11796      49   11793   11799      49
   11808   11811      47   11805   11808      49   11805   11811      49   11820
   11823      47   11817   11820      49   11817   11823      49   11832   11835
      47   11829   11832      49   11829   11835      49   11844   11847      47
   11841   11844      49   11841   11847      49   11856   11859      47   11853
   11856      49   11853   11859      49   11868   11871      47   11865   11868
      49   11865   11871      49   11880   11883      47   11877   11880      49
   11877   11883      49   11892   11895      47   11889   11892      49   11889
   11895      49   11904   11907      47   11901   11904      49   11901   11907
      49   11916   11919      47   11913   11916      49   11913   11919      49
   11928   11931      47   11925   11928      49   11925   11931      49   11940
   11943      47   11937   11940      49   11937   11943      49   11952   11955
      47   11949   11952      49   11949   11955      49   11964   11967      47
   11961   11964      49   11961   11967      49   11976   11979      47   11973
   11976      49   11973   11979      49   11988   11991      47   11985   11988
      49   11985   11991      49   12000   12003      47   11997   12000      49
   11997   12003      49   12012   12015      47   12009   12012      49   12009
   12015      49   12024   12027      47   12021   12024      49   12021   12027
      49   12036   12039      47   12033   12036      49   12033   12039      49
   12048   12051      47   12045   12048      49   12045   12051      49   12060
   12063      47   12057   12060      49   12057   12063      49   12072   12075
      47   12069   12072      49   12069   12075      49   12084   12087      47
   12081   12084      49   12081   12087      49   12096   12099      47   12093
   12096      49   12093   12099      49   12108   12111      47   12105   12108
      49   12105   12111      49   12120   12123      47   12117   12120      49
   12117   12123      49   12132   12135      47   12129   12132      49   12129
   12135      49   12144   12147      47   12141   12144      49   12141   12147
      49   12156   12159      47   12153   12156      49   12153   12159      49
   12168   12171      47   12165   12168      49   12165   12171      49   12180
   12183      47   12177   12180      49   12177   12183      49   12192   12195
      47   12189   12192      49   12189   12195      49   12204   12207      47
   12201   12204      49   12201   12207      49   12216   12219      47   12213
   12216      49   12213   12219      49   12228   12231      47   12225   12228
      49   12225   12231      49   12240   12243      47   12237   12240      49
   12237   12243      49   12252   12255      47   12249   12252      49   12249
   12255      49   12264   12267      47   12261   12264      49   12261   12267
      49   12276   12279      47   12273   12276      49   12273   12279      49
   12288   12291      47   12285   12288      49   12285   12291      49   12300
   12303      47   12297   12300      49   12297   12303      49   12312   12315
      47   12309   12312      49   12309   12315      49   12324   12327      47
   12321   12324      49   12321   12327      49   12336   12339      47   12333
   12336      49   12333   12339      49   12348   12351      47   12345   12348
      49   12345   12351      49   12360   12363      47   12357   12360      49
   12357   12363      49   12372   12375      47   12369   12372      49   12369
   12375      49   12384   12387      47   12381   12384      49   12381   12387
      49   12396   12399      47   12393   12396      49   12393   12399      49
   12408   12411      47   12405   12408      49   12405   12411      49   12420
   12423      47   12417   12420      49   12417   12423      49   12432   12435
      47   12429   12432      49   12429   12435      49   12444   12447      47
   12441   12444      49   12441   12447      49   12456   12459      47   12453
   12456      49   12453   12459      49   12468   12471      47   12465   12468
      49   12465   12471      49   12480   12483      47   12477   12480      49
   12477   12483      49   12492   12495      47   12489   12492      49   12489
   12495      49   12504   12507      47   12501   12504      49   12501   12507
      49   12516   12519      47   12513   12516      49   12513   12519      49
   12528   12531      47   12525   12528      49   12525   12531      49   12540
   12543      47   12537   12540      49   12537   12543      49   12552   12555
      47   12549   12552      49   12549   12555      49   12564   12567      47
   12561   12564      49   12561   12567      49   12576   12579      47   12573
   12576      49   12573   12579      49   12588   12591      47   12585   12588
      49   12585   12591      49   12600   12603      47   12597   12600      49
   12597   12603      49   12612   12615      47   12609   12612      49   12609
   12615      49   12624   12627      47   12621   12624      49   12621   12627
      49   12636   12639      47   12633   12636      49   12633   12639      49
   12648   12651      47   12645   12648      49   12645   12651      49   12660
   12663      47   12657   12660      49   12657   12663      49   12672   12675
      47   12669   12672      49   12669   12675      49   12684   12687      47
   12681   12684      49   12681   12687      49   12696   12699      47   12693
   12696      49   12693   12699      49   12708   12711      47   12705   12708
      49   12705   12711      49   12720   12723      47   12717   12720      49
   12717   12723      49   12732   12735      47   12729   12732      49   12729
   12735      49   12744   12747      47   12741   12744      49   12741   12747
      49   12756   12759      47   12753   12756      49   12753   12759      49
   12768   12771      47   12765   12768      49   12765   12771      49   12780
   12783      47   12777   12780      49   12777   12783      49   12792   12795
      47   12789   12792      49   12789   12795      49   12804   12807      47
   12801   12804      49   12801   12807      49   12816   12819      47   12813
   12816      49   12813   12819      49   12828   12831      47   12825   12828
      49   12825   12831      49   12840   12843      47   12837   12840      49
   12837   12843      49   12852   12855      47   12849   12852      49   12849
   12855      49   12864   12867      47   12861   12864      49   12861   12867
      49   12876   12879      47   12873   12876      49   12873   12879      49
   12888   12891      47   12885   12888      49   12885   12891      49   12900
   12903      47   12897   12900      49   12897   12903      49   12912   12915
      47   12909   12912      49   12909   12915      49   12924   12927      47
   12921   12924      49   12921   12927      49   12936   12939      47   12933
   12936      49   12933   12939      49   12948   12951      47   12945   12948
      49   12945   12951      49   12960   12963      47   12957   12960      49
   12957   12963      49   12972   12975      47   12969   12972      49   12969
   12975      49   12984   12987      47   12981   12984      49   12981   12987
      49   12996   12999      47   12993   12996      49   12993   12999      49
   13008   13011      47   13005   13008      49   13005   13011      49   13020
   13023      47   13017   13020      49   13017   13023      49   13032   13035
      47   13029   13032      49   13029   13035      49   13044   13047      47
   13041   13044      49   13041   13047      49   13056   13059      47   13053
   13056      49   13053   13059      49   13068   13071      47   13065   13068
      49   13065   13071      49   13080   13083      47   13077   13080      49
   13077   13083      49   13092   13095      47   13089   13092      49   13089
   13095      49   13104   13107      47   13101   13104      49   13101   13107
      49   13116   13119      47   13113   13116      49   13113   13119      49
   13128   13131      47   13125   13128      49   13125   13131      49   13140
   13143      47   13137   13140      49   13137   13143      49   13152   13155
      47   13149   13152      49   13149   13155      49   13164   13167      47
   13161   13164      49   13161   13167      49   13176   13179      47   13173
   13176      49   13173   13179      49   13188   13191      47   13185   13188
      49   13185   13191      49   13200   13203      47   13197   13200      49
   13197   13203      49   13212   13215      47   13209   13212      49   13209
   13215      49   13224   13227      47   13221   13224      49   13221   13227
      49   13236   13239      47   13233   13236      49   13233   13239      49
   13248   13251      47   13245   13248      49   13245   13251      49   13260
   13263      47   13257   13260      49   13257   13263      49   13272   13275
      47   13269   13272      49   13269   13275      49   13284   13287      47
   13281   13284      49   13281   13287      49   13296   13299      47   13293
   13296      49   13293   13299      49   13308   13311      47   13305   13308
      49   13305   13311      49   13320   13323      47   13317   13320      49
   13317   13323      49   13332   13335      47   13329   13332      49   13329
   13335      49   13344   13347      47   13341   13344      49   13341   13347
      49   13356   13359      47   13353   13356      49   13353   13359      49
   13368   13371      47   13365   13368      49   13365   13371      49   13380
   13383      47   13377   13380      49   13377   13383      49   13392   13395
      47   13389   13392      49   13389   13395      49   13404   13407      47
   13401   13404      49   13401   13407      49   13416   13419      47   13413
   13416      49   13413   13419      49   13428   13431      47   13425   13428
      49   13425   13431      49   13440   13443      47   13437   13440      49
   13437   13443      49   13452   13455      47   13449   13452      49   13449
   13455      49   13464   13467      47   13461   13464      49   13461   13467
      49   13476   13479      47   13473   13476      49   13473   13479      49
   13488   13491      47   13485   13488      49   13485   13491      49   13500
   13503      47   13497   13500      49   13497   13503      49   13512   13515
      47   13509   13512      49   13509   13515      49   13524   13527      47
   13521   13524      49   13521   13527      49   13536   13539      47   13533
   13536      49   13533   13539      49   13548   13551      47   13545   13548
      49   13545   13551      49   13560   13563      47   13557   13560      49
   13557   13563      49   13572   13575      47   13569   13572      49   13569
   13575      49   13584   13587      47   13581   13584      49   13581   13587
      49   13596   13599      47   13593   13596      49   13593   13599      49
   13608   13611      47   13605   13608      49   13605   13611      49   13620
   13623      47   13617   13620      49   13617   13623      49   13632   13635
      47   13629   13632      49   13629   13635      49   13644   13647      47
   13641   13644      49   13641   13647      49   13656   13659      47   13653
   13656      49   13653   13659      49   13668   13671      47   13665   13668
      49   13665   13671      49   13680   13683      47   13677   13680      49
   13677   13683      49   13692   13695      47   13689   13692      49   13689
   13695      49   13704   13707      47   13701   13704      49   13701   13707
      49   13716   13719      47   13713   13716      49   13713   13719      49
   13728   13731      47   13725   13728      49   13725   13731      49   13740
   13743      47   13737   13740      49   13737   13743      49   13752   13755
      47   13749   13752      49   13749   13755      49   13764   13767      47
   13761   13764      49   13761   13767      49   13776   13779      47   13773
   13776      49   13773   13779      49   13788   13791      47   13785   13788
      49   13785   13791      49   13800   13803      47   13797   13800      49
   13797   13803      49   13812   13815      47   13809   13812      49   13809
   13815      49   13824   13827      47   13821   13824      49   13821   13827
      49   13836   13839      47   13833   13836      49   13833   13839      49
   13848   13851      47   13845   13848      49   13845   13851      49   13860
   13863      47   13857   13860      49   13857   13863      49   13872   13875
      47   13869   13872      49   13869   13875      49   13884   13887      47
   13881   13884      49   13881   13887      49   13896   13899      47   13893
   13896      49   13893   13899      49   13908   13911      47   13905   13908
      49   13905   13911      49   13920   13923      47   13917   13920      49
   13917   13923      49   13932   13935      47   13929   13932      49   13929
   13935      49   13944   13947      47   13941   13944      49   13941   13947
      49   13956   13959      47   13953   13956      49   13953   13959      49
   13968   13971      47   13965   13968      49   13965   13971      49   13980
   13983      47   13977   13980      49   13977   13983      49   13992   13995
      47   13989   13992      49   13989   13995      49   14004   14007      47
   14001   14004      49   14001   14007      49   14016   14019      47   14013
   14016      49   14013   14019      49   14028   14031      47   14025   14028
      49   14025   14031      49   14040   14043      47   14037   14040      49
   14037   14043      49   14052   14055      47   14049   14052      49   14049
   14055      49   14064   14067      47   14061   14064      49   14061   14067
      49   14076   14079      47   14073   14076      49   14073   14079      49
   14088   14091      47   14085   14088      49   14085   14091      49   14100
   14103      47   14097   14100      49   14097   14103      49   14112   14115
      47   14109   14112      49   14109   14115      49   14124   14127      47
   14121   14124      49   14121   14127      49   14136   14139      47   14133
   14136      49   14133   14139      49   14148   14151      47   14145   14148
      49   14145   14151      49   14160   14163      47   14157   14160      49
   14157   14163      49   14172   14175      47   14169   14172      49   14169
   14175      49   14184   14187      47   14181   14184      49   14181   14187
      49   14196   14199      47   14193   14196      49   14193   14199      49
   14208   14211      47   14205   14208      49   14205   14211      49   14220
   14223      47   14217   14220      49   14217   14223      49   14232   14235
      47   14229   14232      49   14229   14235      49   14244   14247      47
   14241   14244      49   14241   14247      49   14256   14259      47   14253
   14256      49   14253   14259      49   14268   14271      47   14265   14268
      49   14265   14271      49   14280   14283      47   14277   14280      49
   14277   14283      49   14292   14295      47   14289   14292      49   14289
   14295      49   14304   14307      47   14301   14304      49   14301   14307
      49   14316   14319      47   14313   14316      49   14313   14319      49
   14328   14331      47   14325   14328      49   14325   14331      49   14340
   14343      47   14337   14340      49   14337   14343      49   14352   14355
      47   14349   14352      49   14349   14355      49   14364   14367      47
   14361   14364      49   14361   14367      49   14376   14379      47   14373
   14376      49   14373   14379      49   14388   14391      47   14385   14388
      49   14385   14391      49   14400   14403      47   14397   14400      49
   14397   14403      49   14412   14415      47   14409   14412      49   14409
   14415      49   14424   14427      47   14421   14424      49   14421   14427
      49   14436   14439      47   14433   14436      49   14433   14439      49
   14448   14451      47   14445   14448      49   14445   14451      49   14460
   14463      47   14457   14460      49   14457   14463      49   14472   14475
      47   14469   14472      49   14469   14475      49   14484   14487      47
   14481   14484      49   14481   14487      49   14496   14499      47   14493
   14496      49   14493   14499      49   14508   14511      47   14505   14508
      49   14505   14511      49   14520   14523      47   14517   14520      49
   14517   14523      49   14532   14535      47   14529   14532      49   14529
   14535      49   14544   14547      47   14541   14544      49   14541   14547
      49   14556   14559      47   14553   14556      49   14553   14559      49
   14568   14571      47   14565   14568      49   14565   14571      49   14580
   14583      47   14577   14580      49   14577   14583      49   14592   14595
      47   14589   14592      49   14589   14595      49   14604   14607      47
   14601   14604      49   14601   14607      49   14616   14619      47   14613
   14616      49   14613   14619      49   14628   14631      47   14625   14628
      49   14625   14631      49   14640   14643      47   14637   14640      49
   14637   14643      49   14652   14655      47   14649   14652      49   14649
   14655      49   14664   14667      47   14661   14664      49   14661   14667
      49   14676   14679      47   14673   14676      49   14673   14679      49
   14688   14691      47   14685   14688      49   14685   14691      49   14700
   14703      47   14697   14700      49   14697   14703      49   14712   14715
      47   14709   14712      49   14709   14715      49   14724   14727      47
   14721   14724      49   14721   14727      49   14736   14739      47   14733
   14736      49   14733   14739      49   14748   14751      47   14745   14748
      49   14745   14751      49   14760   14763      47   14757   14760      49
   14757   14763      49   14772   14775      47   14769   14772      49   14769
   14775      49   14784   14787      47   14781   14784      49   14781   14787
      49   14796   14799      47   14793   14796      49   14793   14799      49
   14808   14811      47   14805   14808      49   14805   14811      49   14820
   14823      47   14817   14820      49   14817   14823      49   14832   14835
      47   14829   14832      49   14829   14835      49   14844   14847      47
   14841   14844      49   14841   14847      49   14856   14859      47   14853
   14856      49   14853   14859      49   14868   14871      47   14865   14868
      49   14865   14871      49   14880   14883      47   14877   14880      49
   14877   14883      49   14892   14895      47   14889   14892      49   14889
   14895      49   14904   14907      47   14901   14904      49   14901   14907
      49   14916   14919      47   14913   14916      49   14913   14919      49
   14928   14931      47   14925   14928      49   14925   14931      49   14940
   14943      47   14937   14940      49   14937   14943      49   14952   14955
      47   14949   14952      49   14949   14955      49   14964   14967      47
   14961   14964      49   14961   14967      49   14976   14979      47   14973
   14976      49   14973   14979      49   14988   14991      47   14985   14988
      49   14985   14991      49   15000   15003      47   14997   15000      49
   14997   15003      49   15012   15015      47   15009   15012      49   15009
   15015      49   15024   15027      47   15021   15024      49   15021   15027
      49   15036   15039      47   15033   15036      49   15033   15039      49
   15048   15051      47   15045   15048      49   15045   15051      49   15060
   15063      47   15057   15060      49   15057   15063      49   15072   15075
      47   15069   15072      49   15069   15075      49   15084   15087      47
   15081   15084      49   15081   15087      49   15096   15099      47   15093
   15096      49   15093   15099      49   15108   15111      47   15105   15108
      49   15105   15111      49   15120   15123      47   15117   15120      49
   15117   15123      49   15132   15135      47   15129   15132      49   15129
   15135      49   15144   15147      47   15141   15144      49   15141   15147
      49   15156   15159      47   15153   15156      49   15153   15159      49
   15168   15171      47   15165   15168      49   15165   15171      49   15180
   15183      47   15177   15180      49   15177   15183      49   15192   15195
      47   15189   15192      49   15189   15195      49   15204   15207      47
   15201   15204      49   15201   15207      49   15216   15219      47   15213
   15216      49   15213   15219      49   15228   15231      47   15225   15228
      49   15225   15231      49   15240   15243      47   15237   15240      49
   15237   15243      49   15252   15255      47   15249   15252      49   15249
   15255      49   15264   15267      47   15261   15264      49   15261   15267
      49   15276   15279      47   15273   15276      49   15273   15279      49
   15288   15291      47   15285   15288      49   15285   15291      49   15300
   15303      47   15297   15300      49   15297   15303      49   15312   15315
      47   15309   15312      49   15309   15315      49   15324   15327      47
   15321   15324      49   15321   15327      49   15336   15339      47   15333
   15336      49   15333   15339      49   15348   15351      47   15345   15348
      49   15345   15351      49   15360   15363      47   15357   15360      49
   15357   15363      49   15372   15375      47   15369   15372      49   15369
   15375      49   15384   15387      47   15381   15384      49   15381   15387
      49   15396   15399      47   15393   15396      49   15393   15399      49
   15408   15411      47   15405   15408      49   15405   15411      49   15420
   15423      47   15417   15420      49   15417   15423      49   15432   15435
      47   15429   15432      49   15429   15435      49   15444   15447      47
   15441   15444      49   15441   15447      49   15456   15459      47   15453
   15456      49   15453   15459      49   15468   15471      47   15465   15468
      49   15465   15471      49   15480   15483      47   15477   15480      49
   15477   15483      49   15492   15495      47   15489   15492      49   15489
   15495      49   15504   15507      47   15501   15504      49   15501   15507
      49   15516   15519      47   15513   15516      49   15513   15519      49
   15528   15531      47   15525   15528      49   15525   15531      49   15540
   15543      47   15537   15540      49   15537   15543      49   15552   15555
      47   15549   15552      49   15549   15555      49   15564   15567      47
   15561   15564      49   15561   15567      49   15576   15579      47   15573
   15576      49   15573   15579      49   15588   15591      47   15585   15588
      49   15585   15591      49   15600   15603      47   15597   15600      49
   15597   15603      49   15612   15615      47   15609   15612      49   15609
   15615      49   15624   15627      47   15621   15624      49   15621   15627
      49   15636   15639      47   15633   15636      49   15633   15639      49
   15648   15651      47   15645   15648      49   15645   15651      49   15660
   15663      47   15657   15660      49   15657   15663      49   15672   15675
      47   15669   15672      49   15669   15675      49   15684   15687      47
   15681   15684      49   15681   15687      49   15696   15699      47   15693
   15696      49   15693   15699      49   15708   15711      47   15705   15708
      49   15705   15711      49   15720   15723      47   15717   15720      49
   15717   15723      49   15732   15735      47   15729   15732      49   15729
   15735      49   15744   15747      47   15741   15744      49   15741   15747
      49   15756   15759      47   15753   15756      49   15753   15759      49
   15768   15771      47   15765   15768      49   15765   15771      49   15780
   15783      47   15777   15780      49   15777   15783      49   15792   15795
      47   15789   15792      49   15789   15795      49   15804   15807      47
   15801   15804      49   15801   15807      49   15816   15819      47   15813
   15816      49   15813   15819      49   15828   15831      47   15825   15828
      49   15825   15831      49   15840   15843      47   15837   15840      49
   15837   15843      49   15852   15855      47   15849   15852      49   15849
   15855      49   15864   15867      47   15861   15864      49   15861   15867
      49   15876   15879      47   15873   15876      49   15873   15879      49
   15888   15891      47   15885   15888      49   15885   15891      49   15900
   15903      47   15897   15900      49   15897   15903      49   15912   15915
      47   15909   15912      49   15909   15915      49   15924   15927      47
   15921   15924      49   15921   15927      49   15936   15939      47   15933
   15936      49   15933   15939      49   15948   15951      47   15945   15948
      49   15945   15951      49   15960   15963      47   15957   15960      49
   15957   15963      49   15972   15975      47   15969   15972      49   15969
   15975      49   15984   15987      47   15981   15984      49   15981   15987
      49   15996   15999      47   15993   15996      49   15993   15999      49
   16008   16011      47   16005   16008      49   16005   16011      49   16020
   16023      47   16017   16020      49   16017   16023      49   16032   16035
      47   16029   16032      49   16029   16035      49   16044   16047      47
   16041   16044      49   16041   16047      49   16056   16059      47   16053
   16056      49   16053   16059      49   16068   16071      47   16065   16068
      49   16065   16071      49   16080   16083      47   16077   16080      49
   16077   16083      49   16092   16095      47   16089   16092      49   16089
   16095      49   16104   16107      47   16101   16104      49   16101   16107
      49   16116   16119      47   16113   16116      49   16113   16119      49
   16128   16131      47   16125   16128      49   16125   16131      49   16140
   16143      47   16137   16140      49   16137   16143      49   16152   16155
      47   16149   16152      49   16149   16155      49   16164   16167      47
   16161   16164      49   16161   16167      49   16176   16179      47   16173
   16176      49   16173   16179      49   16188   16191      47   16185   16188
      49   16185   16191      49   16200   16203      47   16197   16200      49
   16197   16203      49   16212   16215      47   16209   16212      49   16209
   16215      49   16224   16227      47   16221   16224      49   16221   16227
      49   16236   16239      47   16233   16236      49   16233   16239      49
   16248   16251      47   16245   16248      49   16245   16251      49   16260
   16263      47   16257   16260      49   16257   16263      49   16272   16275
      47   16269   16272      49   16269   16275      49   16284   16287      47
   16281   16284      49   16281   16287      49   16296   16299      47   16293
   16296      49   16293   16299      49   16308   16311      47   16305   16308
      49   16305   16311      49   16320   16323      47   16317   16320      49
   16317   16323      49   16332   16335      47   16329   16332      49   16329
   16335      49   16344   16347      47   16341   16344      49   16341   16347
      49   16356   16359      47   16353   16356      49   16353   16359      49
   16368   16371      47   16365   16368      49   16365   16371      49   16380
   16383      47   16377   16380      49   16377   16383      49   16392   16395
      47   16389   16392      49   16389   16395      49   16404   16407      47
   16401   16404      49   16401   16407      49   16416   16419      47   16413
   16416      49   16413   16419      49   16428   16431      47   16425   16428
      49   16425   16431      49   16440   16443      47   16437   16440      49
   16437   16443      49   16452   16455      47   16449   16452      49   16449
   16455      49   16464   16467      47   16461   16464      49   16461   16467
      49   16476   16479      47   16473   16476      49   16473   16479      49
   16488   16491      47   16485   16488      49   16485   16491      49   16500
   16503      47   16497   16500      49   16497   16503      49   16512   16515
      47   16509   16512      49   16509   16515      49   16524   16527      47
   16521   16524      49   16521   16527      49   16536   16539      47   16533
   16536      49   16533   16539      49   16548   16551      47   16545   16548
      49   16545   16551      49   16560   16563      47   16557   16560      49
   16557   16563      49   16572   16575      47   16569   16572      49   16569
   16575      49   16584   16587      47   16581   16584      49   16581   16587
      49   16596   16599      47   16593   16596      49   16593   16599      49
   16608   16611      47   16605   16608      49   16605   16611      49   16620
   16623      47   16617   16620      49   16617   16623      49   16632   16635
      47   16629   16632      49   16629   16635      49   16644   16647      47
   16641   16644      49   16641   16647      49   16656   16659      47   16653
   16656      49   16653   16659      49   16668   16671      47   16665   16668
      49   16665   16671      49   16680   16683      47   16677   16680      49
   16677   16683      49   16692   16695      47   16689   16692      49   16689
   16695      49   16704   16707      47   16701   16704      49   16701   16707
      49   16716   16719      47   16713   16716      49   16713   16719      49
   16728   16731      47   16725   16728      49   16725   16731      49   16740
   16743      47   16737   16740      49   16737   16743      49   16752   16755
      47   16749   16752      49   16749   16755      49   16764   16767      47
   16761   16764      49   16761   16767      49   16776   16779      47   16773
   16776      49   16773   16779      49   16788   16791      47   16785   16788
      49   16785   16791      49   16800   16803      47   16797   16800      49
   16797   16803      49   16812   16815      47   16809   16812      49   16809
   16815      49   16824   16827      47   16821   16824      49   16821   16827
      49   16836   16839      47   16833   16836      49   16833   16839      49
   16848   16851      47   16845   16848      49   16845   16851      49   16860
   16863      47   16857   16860      49   16857   16863      49   16872   16875
      47   16869   16872      49   16869   16875      49   16884   16887      47
   16881   16884      49   16881   16887      49   16896   16899      47   16893
   16896      49   16893   16899      49   16908   16911      47   16905   16908
      49   16905   16911      49   16920   16923      47   16917   16920      49
   16917   16923      49   16932   16935      47   16929   16932      49   16929
   16935      49   16944   16947      47   16941   16944      49   16941   16947
      49   16956   16959      47   16953   16956      49   16953   16959      49
   16968   16971      47   16965   16968      49   16965   16971      49   16980
   16983      47   16977   16980      49   16977   16983      49   16992   16995
      47   16989   16992      49   16989   16995      49   17004   17007      47
   17001   17004      49   17001   17007      49   17016   17019      47   17013
   17016      49   17013   17019      49   17028   17031      47   17025   17028
      49   17025   17031      49   17040   17043      47   17037   17040      49
   17037   17043      49   17052   17055      47   17049   17052      49   17049
   17055      49   17064   17067      47   17061   17064      49   17061   17067
      49   17076   17079      47   17073   17076      49   17073   17079      49
   17088   17091      47   17085   17088      49   17085   17091      49   17100
   17103      47   17097   17100      49   17097   17103      49   17112   17115
      47   17109   17112      49   17109   17115      49   17124   17127      47
   17121   17124      49   17121   17127      49   17136   17139      47   17133
   17136      49   17133   17139      49   17148   17151      47   17145   17148
      49   17145   17151      49   17160   17163      47   17157   17160      49
   17157   17163      49   17172   17175      47   17169   17172      49   17169
   17175      49   17184   17187      47   17181   17184      49   17181   17187
      49   17196   17199      47   17193   17196      49   17193   17199      49
   17208   17211      47   17205   17208      49   17205   17211      49   17220
   17223      47   17217   17220      49   17217   17223      49   17232   17235
      47   17229   17232      49   17229   17235      49   17244   17247      47
   17241   17244      49   17241   17247      49   17256   17259      47   17253
   17256      49   17253   17259      49   17268   17271      47   17265   17268
      49   17265   17271      49   17280   17283      47   17277   17280      49
   17277   17283      49   17292   17295      47   17289   17292      49   17289
   17295      49   17304   17307      47   17301   17304      49   17301   17307
      49   17316   17319      47   17313   17316      49   17313   17319      49
   17328   17331      47   17325   17328      49   17325   17331      49   17340
   17343      47   17337   17340      49   17337   17343      49   17352   17355
      47   17349   17352      49   17349   17355      49   17364   17367      47
   17361   17364      49   17361   17367      49   17376   17379      47   17373
   17376      49   17373   17379      49   17388   17391      47   17385   17388
      49   17385   17391      49   17400   17403      47   17397   17400      49
   17397   17403      49   17412   17415      47   17409   17412      49   17409
   17415      49   17424   17427      47   17421   17424      49   17421   17427
      49   17436   17439      47   17433   17436      49   17433   17439      49
   17448   17451      47   17445   17448      49   17445   17451      49   17460
   17463      47   17457   17460      49   17457   17463      49   17472   17475
      47   17469   17472      49   17469   17475      49   17484   17487      47
   17481   17484      49   17481   17487      49   17496   17499      47   17493
   17496      49   17493   17499      49   17508   17511      47   17505   17508
      49   17505   17511      49   17520   17523      47   17517   17520      49
   17517   17523      49   17532   17535      47   17529   17532      49   17529
   17535      49   17544   17547      47   17541   17544      49   17541   17547
      49   17556   17559      47   17553   17556      49   17553   17559      49
   17568   17571      47   17565   17568      49   17565   17571      49   17580
   17583      47   17577   17580      49   17577   17583      49   17592   17595
      47   17589   17592      49   17589   17595      49   17604   17607      47
   17601   17604      49   17601   17607      49   17616   17619      47   17613
   17616      49   17613   17619      49   17628   17631      47   17625   17628
      49   17625   17631      49   17640   17643      47   17637   17640      49
   17637   17643      49   17652   17655      47   17649   17652      49   17649
   17655      49   17664   17667      47   17661   17664      49   17661   17667
      49   17676   17679      47   17673   17676      49   17673   17679      49
   17688   17691      47   17685   17688      49   17685   17691      49   17700
   17703      47   17697   17700      49   17697   17703      49   17712   17715
      47   17709   17712      49   17709   17715      49   17724   17727      47
   17721   17724      49   17721   17727      49   17736   17739      47   17733
   17736      49   17733   17739      49   17748   17751      47   17745   17748
      49   17745   17751      49   17760   17763      47   17757   17760      49
   17757   17763      49   17772   17775      47   17769   17772      49   17769
   17775      49   17784   17787      47   17781   17784      49   17781   17787
      49   17796   17799      47   17793   17796      49   17793   17799      49
   17808   17811      47   17805   17808      49   17805   17811      49   17820
   17823      47   17817   17820      49   17817   17823      49   17832   17835
      47   17829   17832      49   17829   17835      49   17844   17847      47
   17841   17844      49   17841   17847      49   17856   17859      47   17853
   17856      49   17853   17859      49   17868   17871      47   17865   17868
      49   17865   17871      49   17880   17883      47   17877   17880      49
   17877   17883      49   17892   17895      47   17889   17892      49   17889
   17895      49   17904   17907      47   17901   17904      49   17901   17907
      49   17916   17919      47   17913   17916      49   17913   17919      49
   17928   17931      47   17925   17928      49   17925   17931      49   17940
   17943      47   17937   17940      49   17937   17943      49   17952   17955
      47   17949   17952      49   17949   17955      49   17964   17967      47
   17961   17964      49   17961   17967      49   17976   17979      47   17973
   17976      49   17973   17979      49   17988   17991      47   17985   17988
      49   17985   17991      49   18000   18003      47   17997   18000      49
   17997   18003      49   18012   18015      47   18009   18012      49   18009
   18015      49   18024   18027      47   18021   18024      49   18021   18027
      49   18036   18039      47   18033   18036      49   18033   18039      49
   18048   18051      47   18045   18048      49   18045   18051      49   18060
   18063      47   18057   18060      49   18057   18063      49   18072   18075
      47   18069   18072      49   18069   18075      49   18084   18087      47
   18081   18084      49   18081   18087      49   18096   18099      47   18093
   18096      49   18093   18099      49   18108   18111      47   18105   18108
      49   18105   18111      49   18120   18123      47   18117   18120      49
   18117   18123      49   18132   18135      47   18129   18132      49   18129
   18135      49   18144   18147      47   18141   18144      49   18141   18147
      49   18156   18159      47   18153   18156      49   18153   18159      49
   18168   18171      47   18165   18168      49   18165   18171      49   18180
   18183      47   18177   18180      49   18177   18183      49   18192   18195
      47   18189   18192      49   18189   18195      49   18204   18207      47
   18201   18204      49   18201   18207      49   18216   18219      47   18213
   18216      49   18213   18219      49   18228   18231      47   18225   18228
      49   18225   18231      49   18240   18243      47   18237   18240      49
   18237   18243      49   18252   18255      47   18249   18252      49   18249
   18255      49   18264   18267      47   18261   18264      49   18261   18267
      49   18276   18279      47   18273   18276      49   18273   18279      49
   18288   18291      47   18285   18288      49   18285   18291      49   18300
   18303      47   18297   18300      49   18297   18303      49   18312   18315
      47   18309   18312      49   18309   18315      49   18324   18327      47
   18321   18324      49   18321   18327      49   18336   18339      47   18333
   18336      49   18333   18339      49   18348   18351      47   18345   18348
      49   18345   18351      49   18360   18363      47   18357   18360      49
   18357   18363      49   18372   18375      47   18369   18372      49   18369
   18375      49   18384   18387      47   18381   18384      49   18381   18387
      49   18396   18399      47   18393   18396      49   18393   18399      49
   18408   18411      47   18405   18408      49   18405   18411      49   18420
   18423      47   18417   18420      49   18417   18423      49   18432   18435
      47   18429   18432      49   18429   18435      49   18444   18447      47
   18441   18444      49   18441   18447      49   18456   18459      47   18453
   18456      49   18453   18459      49   18468   18471      47   18465   18468
      49   18465   18471      49   18480   18483      47   18477   18480      49
   18477   18483      49   18492   18495      47   18489   18492      49   18489
   18495      49   18504   18507      47   18501   18504      49   18501   18507
      49   18516   18519      47   18513   18516      49   18513   18519      49
   18528   18531      47   18525   18528      49   18525   18531      49   18540
   18543      47   18537   18540      49   18537   18543      49   18552   18555
      47   18549   18552      49   18549   18555      49   18564   18567      47
   18561   18564      49   18561   18567      49   18576   18579      47   18573
   18576      49   18573   18579      49   18588   18591      47   18585   18588
      49   18585   18591      49   18600   18603      47   18597   18600      49
   18597   18603      49   18612   18615      47   18609   18612      49   18609
   18615      49   18624   18627      47   18621   18624      49   18621   18627
      49   18636   18639      47   18633   18636      49   18633   18639      49
   18648   18651      47   18645   18648      49   18645   18651      49   18660
   18663      47   18657   18660      49   18657   18663      49   18672   18675
      47   18669   18672      49   18669   18675      49   18684   18687      47
   18681   18684      49   18681   18687      49   18696   18699      47   18693
   18696      49   18693   18699      49   18708   18711      47   18705   18708
      49   18705   18711      49   18720   18723      47   18717   18720      49
   18717   18723      49   18732   18735      47   18729   18732      49   18729
   18735      49   18744   18747      47   18741   18744      49   18741   18747
      49   18756   18759      47   18753   18756      49   18753   18759      49
   18768   18771      47   18765   18768      49   18765   18771      49   18780
   18783      47   18777   18780      49   18777   18783      49   18792   18795
      47   18789   18792      49   18789   18795      49   18804   18807      47
   18801   18804      49   18801   18807      49   18816   18819      47   18813
   18816      49   18813   18819      49   18828   18831      47   18825   18828
      49   18825   18831      49   18840   18843      47   18837   18840      49
   18837   18843      49   18852   18855      47   18849   18852      49   18849
   18855      49   18864   18867      47   18861   18864      49   18861   18867
      49   18876   18879      47   18873   18876      49   18873   18879      49
   18888   18891      47   18885   18888      49   18885   18891      49   18900
   18903      47   18897   18900      49   18897   18903      49   18912   18915
      47   18909   18912      49   18909   18915      49   18924   18927      47
   18921   18924      49   18921   18927      49   18936   18939      47   18933
   18936      49   18933   18939      49   18948   18951      47   18945   18948
      49   18945   18951      49   18960   18963      47   18957   18960      49
   18957   18963      49   18972   18975      47   18969   18972      49   18969
   18975      49   18984   18987      47   18981   18984      49   18981   18987
      49   18996   18999      47   18993   18996      49   18993   18999      49
   19008   19011      47   19005   19008      49   19005   19011      49   19020
   19023      47   19017   19020      49   19017   19023      49   19032   19035
      47   19029   19032      49   19029   19035      49   19044   19047      47
   19041   19044      49   19041   19047      49   19056   19059      47   19053
   19056      49   19053   19059      49   19068   19071      47   19065   19068
      49   19065   19071      49   19080   19083      47   19077   19080      49
   19077   19083      49   19092   19095      47   19089   19092      49   19089
   19095      49   19104   19107      47   19101   19104      49   19101   19107
      49   19116   19119      47   19113   19116      49   19113   19119      49
   19128   19131      47   19125   19128      49   19125   19131      49   19140
   19143      47   19137   19140      49   19137   19143      49   19152   19155
      47   19149   19152      49   19149   19155      49   19164   19167      47
   19161   19164      49   19161   19167      49   19176   19179      47   19173
   19176      49   19173   19179      49   19188   19191      47   19185   19188
      49   19185   19191      49   19200   19203      47   19197   19200      49
   19197   19203      49   19212   19215      47   19209   19212      49   19209
   19215      49   19224   19227      47   19221   19224      49   19221   19227
      49   19236   19239      47   19233   19236      49   19233   19239      49
   19248   19251      47   19245   19248      49   19245   19251      49   19260
   19263      47   19257   19260      49   19257   19263      49   19272   19275
      47   19269   19272      49   19269   19275      49   19284   19287      47
   19281   19284      49   19281   19287      49   19296   19299      47   19293
   19296      49   19293   19299      49   19308   19311      47   19305   19308
      49   19305   19311      49   19320   19323      47   19317   19320      49
   19317   19323      49   19332   19335      47   19329   19332      49   19329
   19335      49   19344   19347      47   19341   19344      49   19341   19347
      49   19356   19359      47   19353   19356      49   19353   19359      49
   19368   19371      47   19365   19368      49   19365   19371      49   19380
   19383      47   19377   19380      49   19377   19383      49   19392   19395
      47   19389   19392      49   19389   19395      49   19404   19407      47
   19401   19404      49   19401   19407      49   19416   19419      47   19413
   19416      49   19413   19419      49   19428   19431      47   19425   19428
      49   19425   19431      49   19440   19443      47   19437   19440      49
   19437   19443      49   19452   19455      47   19449   19452      49   19449
   19455      49   19464   19467      47   19461   19464      49   19461   19467
      49   19476   19479      47   19473   19476      49   19473   19479      49
   19488   19491      47   19485   19488      49   19485   19491      49   19500
   19503      47   19497   19500      49   19497   19503      49   19512   19515
      47   19509   19512      49   19509   19515      49   19524   19527      47
   19521   19524      49   19521   19527      49   19536   19539      47   19533
   19536      49   19533   19539      49   19548   19551      47   19545   19548
      49   19545   19551      49   19560   19563      47   19557   19560      49
   19557   19563      49   19572   19575      47   19569   19572      49   19569
   19575      49   19584   19587      47   19581   19584      49   19581   19587
      49   19596   19599      47   19593   19596      49   19593   19599      49
   19608   19611      47   19605   19608      49   19605   19611      49   19620
   19623      47   19617   19620      49   19617   19623      49   19632   19635
      47   19629   19632      49   19629   19635      49   19644   19647      47
   19641   19644      49   19641   19647      49   19656   19659      47   19653
   19656      49   19653   19659      49   19668   19671      47   19665   19668
      49   19665   19671      49   19680   19683      47   19677   19680      49
   19677   19683      49   19692   19695      47   19689   19692      49   19689
   19695      49   19704   19707      47   19701   19704      49   19701   19707
      49   19716   19719      47   19713   19716      49   19713   19719      49
   19728   19731      47   19725   19728      49   19725   19731      49   19740
   19743      47   19737   19740      49   19737   19743      49   19752   19755
      47   19749   19752      49   19749   19755      49   19764   19767      47
   19761   19764      49   19761   19767      49   19776   19779      47   19773
   19776      49   19773   19779      49   19788   19791      47   19785   19788
      49   19785   19791      49   19800   19803      47   19797   19800      49
   19797   19803      49   19812   19815      47   19809   19812      49   19809
   19815      49   19824   19827      47   19821   19824      49   19821   19827
      49   19836   19839      47   19833   19836      49   19833   19839      49
   19848   19851      47   19845   19848      49   19845   19851      49   19860
   19863      47   19857   19860      49   19857   19863      49   19872   19875
      47   19869   19872      49   19869   19875      49   19884   19887      47
   19881   19884      49   19881   19887      49   19896   19899      47   19893
   19896      49   19893   19899      49   19908   19911      47   19905   19908
      49   19905   19911      49   19920   19923      47   19917   19920      49
   19917   19923      49   19932   19935      47   19929   19932      49   19929
   19935      49   19944   19947      47   19941   19944      49   19941   19947
      49   19956   19959      47   19953   19956      49   19953   19959      49
   19968   19971      47   19965   19968      49   19965   19971      49   19980
   19983      47   19977   19980      49   19977   19983      49   19992   19995
      47   19989   19992      49   19989   19995      49   20004   20007      47
   20001   20004      49   20001   20007      49   20016   20019      47   20013
   20016      49   20013   20019      49   20028   20031      47   20025   20028
      49   20025   20031      49   20040   20043      47   20037   20040      49
   20037   20043      49   20052   20055      47   20049   20052      49   20049
   20055      49   20064   20067      47   20061   20064      49   20061   20067
      49   20076   20079      47   20073   20076      49   20073   20079      49
   20088   20091      47   20085   20088      49   20085   20091      49   20100
   20103      47   20097   20100      49   20097   20103      49   20112   20115
      47   20109   20112      49   20109   20115      49   20124   20127      47
   20121   20124      49   20121   20127      49   20136   20139      47   20133
   20136      49   20133   20139      49   20148   20151      47   20145   20148
      49   20145   20151      49   20160   20163      47   20157   20160      49
   20157   20163      49   20172   20175      47   20169   20172      49   20169
   20175      49   20184   20187      47   20181   20184      49   20181   20187
      49   20196   20199      47   20193   20196      49   20193   20199      49
   20208   20211      47   20205   20208      49   20205   20211      49   20220
   20223      47   20217   20220      49   20217   20223      49   20232   20235
      47   20229   20232      49   20229   20235      49   20244   20247      47
   20241   20244      49   20241   20247      49   20256   20259      47   20253
   20256      49   20253   20259      49   20268   20271      47   20265   20268
      49   20265   20271      49   20280   20283      47   20277   20280      49
   20277   20283      49   20292   20295      47   20289   20292      49   20289
   20295      49   20304   20307      47   20301   20304      49   20301   20307
      49   20316   20319      47   20313   20316      49   20313   20319      49
   20328   20331      47   20325   20328      49   20325   20331      49   20340
   20343      47   20337   20340      49   20337   20343      49   20352   20355
      47   20349   20352      49   20349   20355      49   20364   20367      47
   20361   20364      49   20361   20367      49   20376   20379      47   20373
   20376      49   20373   20379      49   20388   20391      47   20385   20388
      49   20385   20391      49   20400   20403      47   20397   20400      49
   20397   20403      49   20412   20415      47   20409   20412      49   20409
   20415      49   20424   20427      47   20421   20424      49   20421   20427
      49   20436   20439      47   20433   20436      49   20433   20439      49
   20448   20451      47   20445   20448      49   20445   20451      49   20460
   20463      47   20457   20460      49   20457   20463      49   20472   20475
      47   20469   20472      49   20469   20475      49   20484   20487      47
   20481   20484      49   20481   20487      49   20496   20499      47   20493
   20496      49   20493   20499      49   20508   20511      47   20505   20508
      49   20505   20511      49   20520   20523      47   20517   20520      49
   20517   20523      49   20532   20535      47   20529   20532      49   20529
   20535      49   20544   20547      47   20541   20544      49   20541   20547
      49   20556   20559      47   20553   20556      49   20553   20559      49
   20568   20571      47   20565   20568      49   20565   20571      49   20580
   20583      47   20577   20580      49   20577   20583      49   20592   20595
      47   20589   20592      49   20589   20595      49   20604   20607      47
   20601   20604      49   20601   20607      49   20616   20619      47   20613
   20616      49   20613   20619      49   20628   20631      47   20625   20628
      49   20625   20631      49   20640   20643      47   20637   20640      49
   20637   20643      49   20652   20655      47   20649   20652      49   20649
   20655      49   20664   20667      47   20661   20664      49   20661   20667
      49   20676   20679      47   20673   20676      49   20673   20679      49
   20688   20691      47   20685   20688      49   20685   20691      49   20700
   20703      47   20697   20700      49   20697   20703      49   20712   20715
      47   20709   20712      49   20709   20715      49   20724   20727      47
   20721   20724      49   20721   20727      49   20736   20739      47   20733
   20736      49   20733   20739      49   20748   20751      47   20745   20748
      49   20745   20751      49   20760   20763      47   20757   20760      49
   20757   20763      49   20772   20775      47   20769   20772      49   20769
   20775      49   20784   20787      47   20781   20784      49   20781   20787
      49   20796   20799      47   20793   20796      49   20793   20799      49
   20808   20811      47   20805   20808      49   20805   20811      49   20820
   20823      47   20817   20820      49   20817   20823      49   20832   20835
      47   20829   20832      49   20829   20835      49   20844   20847      47
   20841   20844      49   20841   20847      49   20856   20859      47   20853
   20856      49   20853   20859      49   20868   20871      47   20865   20868
      49   20865   20871      49   20880   20883      47   20877   20880      49
   20877   20883      49   20892   20895      47   20889   20892      49   20889
   20895      49   20904   20907      47   20901   20904      49   20901   20907
      49   20916   20919      47   20913   20916      49   20913   20919      49
   20928   20931      47   20925   20928      49   20925   20931      49   20940
   20943      47   20937   20940      49   20937   20943      49   20952   20955
      47   20949   20952      49   20949   20955      49   20964   20967      47
   20961   20964      49   20961   20967      49   20976   20979      47   20973
   20976      49   20973   20979      49   20988   20991      47   20985   20988
      49   20985   20991      49   21000   21003      47   20997   21000      49
   20997   21003      49   21012   21015      47   21009   21012      49   21009
   21015      49   21024   21027      47   21021   21024      49   21021   21027
      49   21036   21039      47   21033   21036      49   21033   21039      49
   21048   21051      47   21045   21048      49   21045   21051      49   21060
   21063      47   21057   21060      49   21057   21063      49   21072   21075
      47   21069   21072      49   21069   21075      49   21084   21087      47
   21081   21084      49   21081   21087      49   21096   21099      47   21093
   21096      49   21093   21099      49   21108   21111      47   21105   21108
      49   21105   21111      49   21120   21123      47   21117   21120      49
   21117   21123      49   21132   21135      47   21129   21132      49   21129
   21135      49   21144   21147      47   21141   21144      49   21141   21147
      49   21156   21159      47   21153   21156      49   21153   21159      49
   21168   21171      47   21165   21168      49   21165   21171      49   21180
   21183      47   21177   21180      49   21177   21183      49   21192   21195
      47   21189   21192      49   21189   21195      49   21204   21207      47
   21201   21204      49   21201   21207      49   21216   21219      47   21213
   21216      49   21213   21219      49   21228   21231      47   21225   21228
      49   21225   21231      49   21240   21243      47   21237   21240      49
   21237   21243      49   21252   21255      47   21249   21252      49   21249
   21255      49   21264   21267      47   21261   21264      49   21261   21267
      49   21276   21279      47   21273   21276      49   21273   21279      49
   21288   21291      47   21285   21288      49   21285   21291      49   21300
   21303      47   21297   21300      49   21297   21303      49   21312   21315
      47   21309   21312      49   21309   21315      49   21324   21327      47
   21321   21324      49   21321   21327      49   21336   21339      47   21333
   21336      49   21333   21339      49   21348   21351      47   21345   21348
      49   21345   21351      49   21360   21363      47   21357   21360      49
   21357   21363      49   21372   21375      47   21369   21372      49   21369
   21375      49   21384   21387      47   21381   21384      49   21381   21387
      49   21396   21399      47   21393   21396      49   21393   21399      49
   21408   21411      47   21405   21408      49   21405   21411      49   21420
   21423      47   21417   21420      49   21417   21423      49   21432   21435
      47   21429   21432      49   21429   21435      49   21444   21447      47
   21441   21444      49   21441   21447      49   21456   21459      47   21453
   21456      49   21453   21459      49   21468   21471      47   21465   21468
      49   21465   21471      49   21480   21483      47   21477   21480      49
   21477   21483      49   21492   21495      47   21489   21492      49   21489
   21495      49   21504   21507      47   21501   21504      49   21501   21507
      49   21516   21519      47   21513   21516      49   21513   21519      49
   21528   21531      47   21525   21528      49   21525   21531      49   21540
   21543      47   21537   21540      49   21537   21543      49   21552   21555
      47   21549   21552      49   21549   21555      49   21564   21567      47
   21561   21564      49   21561   21567      49   21576   21579      47   21573
   21576      49   21573   21579      49   21588   21591      47   21585   21588
      49   21585   21591      49   21600   21603      47   21597   21600      49
   21597   21603      49   21612   21615      47   21609   21612      49   21609
   21615      49   21624   21627      47   21621   21624      49   21621   21627
      49   21636   21639      47   21633   21636      49   21633   21639      49
   21648   21651      47   21645   21648      49   21645   21651      49   21660
   21663      47   21657   21660      49   21657   21663      49   21672   21675
      47   21669   21672      49   21669   21675      49   21684   21687      47
   21681   21684      49   21681   21687      49   21696   21699      47   21693
   21696      49   21693   21699      49   21708   21711      47   21705   21708
      49   21705   21711      49   21720   21723      47   21717   21720      49
   21717   21723      49   21732   21735      47   21729   21732      49   21729
   21735      49   21744   21747      47   21741   21744      49   21741   21747
      49   21756   21759      47   21753   21756      49   21753   21759      49
   21768   21771      47   21765   21768      49   21765   21771      49   21780
   21783      47   21777   21780      49   21777   21783      49   21792   21795
      47   21789   21792      49   21789   21795      49   21804   21807      47
   21801   21804      49   21801   21807      49   21816   21819      47   21813
   21816      49   21813   21819      49   21828   21831      47   21825   21828
      49   21825   21831      49   21840   21843      47   21837   21840      49
   21837   21843      49   21852   21855      47   21849   21852      49   21849
   21855      49   21864   21867      47   21861   21864      49   21861   21867
      49   21876   21879      47   21873   21876      49   21873   21879      49
   21888   21891      47   21885   21888      49   21885   21891      49   21900
   21903      47   21897   21900      49   21897   21903      49   21912   21915
      47   21909   21912      49   21909   21915      49   21924   21927      47
   21921   21924      49   21921   21927      49   21936   21939      47   21933
   21936      49   21933   21939      49   21948   21951      47   21945   21948
      49   21945   21951      49   21960   21963      47   21957   21960      49
   21957   21963      49   21972   21975      47   21969   21972      49   21969
   21975      49   21984   21987      47   21981   21984      49   21981   21987
      49   21996   21999      47   21993   21996      49   21993   21999      49
   22008   22011      47   22005   22008      49   22005   22011      49   22020
   22023      47   22017   22020      49   22017   22023      49   22032   22035
      47   22029   22032      49   22029   22035      49   22044   22047      47
   22041   22044      49   22041   22047      49   22056   22059      47   22053
   22056      49   22053   22059      49   22068   22071      47   22065   22068
      49   22065   22071      49   22080   22083      47   22077   22080      49
   22077   22083      49   22092   22095      47   22089   22092      49   22089
   22095      49   22104   22107      47   22101   22104      49   22101   22107
      49   22116   22119      47   22113   22116      49   22113   22119      49
   22128   22131      47   22125   22128      49   22125   22131      49   22140
   22143      47   22137   22140      49   22137   22143      49   22152   22155
      47   22149   22152      49   22149   22155      49   22164   22167      47
   22161   22164      49   22161   22167      49   22176   22179      47   22173
   22176      49   22173   22179      49   22188   22191      47   22185   22188
      49   22185   22191      49   22200   22203      47   22197   22200      49
   22197   22203      49   22212   22215      47   22209   22212      49   22209
   22215      49   22224   22227      47   22221   22224      49   22221   22227
      49   22236   22239      47   22233   22236      49   22233   22239      49
   22248   22251      47   22245   22248      49   22245   22251      49   22260
   22263      47   22257   22260      49   22257   22263      49   22272   22275
      47   22269   22272      49   22269   22275      49   22284   22287      47
   22281   22284      49   22281   22287      49   22296   22299      47   22293
   22296      49   22293   22299      49   22308   22311      47   22305   22308
      49   22305   22311      49   22320   22323      47   22317   22320      49
   22317   22323      49   22332   22335      47   22329   22332      49   22329
   22335      49   22344   22347      47   22341   22344      49   22341   22347
      49   22356   22359      47   22353   22356      49   22353   22359      49
   22368   22371      47   22365   22368      49   22365   22371      49   22380
   22383      47   22377   22380      49   22377   22383      49   22392   22395
      47   22389   22392      49   22389   22395      49   22404   22407      47
   22401   22404      49   22401   22407      49   22416   22419      47   22413
   22416      49   22413   22419      49   22428   22431      47   22425   22428
      49   22425   22431      49   22440   22443      47   22437   22440      49
   22437   22443      49   22452   22455      47   22449   22452      49   22449
   22455      49   22464   22467      47   22461   22464      49   22461   22467
      49   22476   22479      47   22473   22476      49   22473   22479      49
   22488   22491      47   22485   22488      49   22485   22491      49   22500
   22503      47   22497   22500      49   22497   22503      49   22512   22515
      47   22509   22512      49   22509   22515      49   22524   22527      47
   22521   22524      49   22521   22527      49   22536   22539      47   22533
   22536      49   22533   22539      49   22548   22551      47   22545   22548
      49   22545   22551      49   22560   22563      47   22557   22560      49
   22557   22563      49   22572   22575      47   22569   22572      49   22569
   22575      49   22584   22587      47   22581   22584      49   22581   22587
      49   22596   22599      47   22593   22596      49   22593   22599      49
   22608   22611      47   22605   22608      49   22605   22611      49   22620
   22623      47   22617   22620      49   22617   22623      49   22632   22635
      47   22629   22632      49   22629   22635      49   22644   22647      47
   22641   22644      49   22641   22647      49   22656   22659      47   22653
   22656      49   22653   22659      49   22668   22671      47   22665   22668
      49   22665   22671      49   22680   22683      47   22677   22680      49
   22677   22683      49   22692   22695      47   22689   22692      49   22689
   22695      49   22704   22707      47   22701   22704      49   22701   22707
      49   22716   22719      47   22713   22716      49   22713   22719      49
   22728   22731      47   22725   22728      49   22725   22731      49   22740
   22743      47   22737   22740      49   22737   22743      49   22752   22755
      47   22749   22752      49   22749   22755      49   22764   22767      47
   22761   22764      49   22761   22767      49   22776   22779      47   22773
   22776      49   22773   22779      49   22788   22791      47   22785   22788
      49   22785   22791      49   22800   22803      47   22797   22800      49
   22797   22803      49   22812   22815      47   22809   22812      49   22809
   22815      49   22824   22827      47   22821   22824      49   22821   22827
      49   22836   22839      47   22833   22836      49   22833   22839      49
   22848   22851      47   22845   22848      49   22845   22851      49   22860
   22863      47   22857   22860      49   22857   22863      49   22872   22875
      47   22869   22872      49   22869   22875      49   22884   22887      47
   22881   22884      49   22881   22887      49   22896   22899      47   22893
   22896      49   22893   22899      49   22908   22911      47   22905   22908
      49   22905   22911      49   22920   22923      47   22917   22920      49
   22917   22923      49   22932   22935      47   22929   22932      49   22929
   22935      49   22944   22947      47   22941   22944      49   22941   22947
      49   22956   22959      47   22953   22956      49   22953   22959      49
   22968   22971      47   22965   22968      49   22965   22971      49   22980
   22983      47   22977   22980      49   22977   22983      49   22992   22995
      47   22989   22992      49   22989   22995      49   23004   23007      47
   23001   23004      49   23001   23007      49   23016   23019      47   23013
   23016      49   23013   23019      49   23028   23031      47   23025   23028
      49   23025   23031      49   23040   23043      47   23037   23040      49
   23037   23043      49   23052   23055      47   23049   23052      49   23049
   23055      49   23064   23067      47   23061   23064      49   23061   23067
      49   23076   23079      47   23073   23076      49   23073   23079      49
   23088   23091      47   23085   23088      49   23085   23091      49   23100
   23103      47   23097   23100      49   23097   23103      49   23112   23115
      47   23109   23112      49   23109   23115      49   23124   23127      47
   23121   23124      49   23121   23127      49   23136   23139      47   23133
   23136      49   23133   23139      49   23148   23151      47   23145   23148
      49   23145   23151      49   23160   23163      47   23157   23160      49
   23157   23163      49   23172   23175      47   23169   23172      49   23169
   23175      49   23184   23187      47   23181   23184      49   23181   23187
      49   23196   23199      47   23193   23196      49   23193   23199      49
   23208   23211      47   23205   23208      49   23205   23211      49   23220
   23223      47   23217   23220      49   23217   23223      49   23232   23235
      47   23229   23232      49   23229   23235      49   23244   23247      47
   23241   23244      49   23241   23247      49   23256   23259      47   23253
   23256      49   23253   23259      49   23268   23271      47   23265   23268
      49   23265   23271      49   23280   23283      47   23277   23280      49
   23277   23283      49   23292   23295      47   23289   23292      49   23289
   23295      49   23304   23307      47   23301   23304      49   23301   23307
      49   23316   23319      47   23313   23316      49   23313   23319      49
   23328   23331      47   23325   23328      49   23325   23331      49   23340
   23343      47   23337   23340      49   23337   23343      49   23352   23355
      47   23349   23352      49   23349   23355      49   23364   23367      47
   23361   23364      49   23361   23367      49   23376   23379      47   23373
   23376      49   23373   23379      49   23388   23391      47   23385   23388
      49   23385   23391      49   23400   23403      47   23397   23400      49
   23397   23403      49   23412   23415      47   23409   23412      49   23409
   23415      49   23424   23427      47   23421   23424      49   23421   23427
      49   23436   23439      47   23433   23436      49   23433   23439      49
   23448   23451      47   23445   23448      49   23445   23451      49   23460
   23463      47   23457   23460      49   23457   23463      49   23472   23475
      47   23469   23472      49   23469   23475      49   23484   23487      47
   23481   23484      49   23481   23487      49   23496   23499      47   23493
   23496      49   23493   23499      49   23508   23511      47   23505   23508
      49   23505   23511      49   23520   23523      47   23517   23520      49
   23517   23523      49   23532   23535      47   23529   23532      49   23529
   23535      49   23544   23547      47   23541   23544      49   23541   23547
      49   23556   23559      47   23553   23556      49   23553   23559      49
   23568   23571      47   23565   23568      49   23565   23571      49   23580
   23583      47   23577   23580      49   23577   23583      49   23592   23595
      47   23589   23592      49   23589   23595      49   23604   23607      47
   23601   23604      49   23601   23607      49   23616   23619      47   23613
   23616      49   23613   23619      49   23628   23631      47   23625   23628
      49   23625   23631      49   23640   23643      47   23637   23640      49
   23637   23643      49   23652   23655      47   23649   23652      49   23649
   23655      49   23664   23667      47   23661   23664      49   23661   23667
      49   23676   23679      47   23673   23676      49   23673   23679      49
   23688   23691      47   23685   23688      49   23685   23691      49   23700
   23703      47   23697   23700      49   23697   23703      49   23712   23715
      47   23709   23712      49   23709   23715      49   23724   23727      47
   23721   23724      49   23721   23727      49   23736   23739      47   23733
   23736      49   23733   23739      49   23748   23751      47   23745   23748
      49   23745   23751      49   23760   23763      47   23757   23760      49
   23757   23763      49   23772   23775      47   23769   23772      49   23769
   23775      49   23784   23787      47   23781   23784      49   23781   23787
      49   23796   23799      47   23793   23796      49   23793   23799      49
   23808   23811      47   23805   23808      49   23805   23811      49   23820
   23823      47   23817   23820      49   23817   23823      49   23832   23835
      47   23829   23832      49   23829   23835      49   23844   23847      47
   23841   23844      49   23841   23847      49   23856   23859      47   23853
   23856      49   23853   23859      49   23868   23871      47   23865   23868
      49   23865   23871      49   23880   23883      47   23877   23880      49
   23877   23883      49   23892   23895      47   23889   23892      49   23889
   23895      49   23904   23907      47   23901   23904      49   23901   23907
      49   23916   23919      47   23913   23916      49   23913   23919      49
   23928   23931      47   23925   23928      49   23925   23931      49   23940
   23943      47   23937   23940      49   23937   23943      49   23952   23955
      47   23949   23952      49   23949   23955      49   23964   23967      47
   23961   23964      49   23961   23967      49   23976   23979      47   23973
   23976      49   23973   23979      49   23988   23991      47   23985   23988
      49   23985   23991      49   24000   24003      47   23997   24000      49
   23997   24003      49   24012   24015      47   24009   24012      49   24009
   24015      49   24024   24027      47   24021   24024      49   24021   24027
      49   24036   24039      47   24033   24036      49   24033   24039      49
   24048   24051      47   24045   24048      49   24045   24051      49   24060
   24063      47   24057   24060      49   24057   24063      49   24072   24075
      47   24069   24072      49   24069   24075      49   24084   24087      47
   24081   24084      49   24081   24087      49   24096   24099      47   24093
   24096      49   24093   24099      49   24108   24111      47   24105   24108
      49   24105   24111      49   24120   24123      47   24117   24120      49
   24117   24123      49   24132   24135      47   24129   24132      49   24129
   24135      49   24144   24147      47   24141   24144      49   24141   24147
      49   24156   24159      47   24153   24156      49   24153   24159      49
   24168   24171      47   24165   24168      49   24165   24171      49   24180
   24183      47   24177   24180      49   24177   24183      49   24192   24195
      47   24189   24192      49   24189   24195      49   24204   24207      47
   24201   24204      49   24201   24207      49   24216   24219      47   24213
   24216      49   24213   24219      49   24228   24231      47   24225   24228
      49   24225   24231      49   24240   24243      47   24237   24240      49
   24237   24243      49   24252   24255      47   24249   24252      49   24249
   24255      49   24264   24267      47   24261   24264      49   24261   24267
      49   24276   24279      47   24273   24276      49   24273   24279      49
   24288   24291      47   24285   24288      49   24285   24291      49   24300
   24303      47   24297   24300      49   24297   24303      49   24312   24315
      47   24309   24312      49   24309   24315      49   24324   24327      47
   24321   24324      49   24321   24327      49   24336   24339      47   24333
   24336      49   24333   24339      49   24348   24351      47   24345   24348
      49   24345   24351      49   24360   24363      47   24357   24360      49
   24357   24363      49   24372   24375      47   24369   24372      49   24369
   24375      49   24384   24387      47   24381   24384      49   24381   24387
      49   24396   24399      47   24393   24396      49   24393   24399      49
   24408   24411      47   24405   24408      49   24405   24411      49   24420
   24423      47   24417   24420      49   24417   24423      49   24432   24435
      47   24429   24432      49   24429   24435      49   24444   24447      47
   24441   24444      49   24441   24447      49   24456   24459      47   24453
   24456      49   24453   24459      49   24468   24471      47   24465   24468
      49   24465   24471      49   24480   24483      47   24477   24480      49
   24477   24483      49   24492   24495      47   24489   24492      49   24489
   24495      49   24504   24507      47   24501   24504      49   24501   24507
      49   24516   24519      47   24513   24516      49   24513   24519      49
   24528   24531      47   24525   24528      49   24525   24531      49   24540
   24543      47   24537   24540      49   24537   24543      49   24552   24555
      47   24549   24552      49   24549   24555      49   24564   24567      47
   24561   24564      49   24561   24567      49   24576   24579      47   24573
   24576      49   24573   24579      49   24588   24591      47   24585   24588
      49   24585   24591      49   24600   24603      47   24597   24600      49
   24597   24603      49   24612   24615      47   24609   24612      49   24609
   24615      49   24624   24627      47   24621   24624      49   24621   24627
      49   24636   24639      47   24633   24636      49   24633   24639      49
   24648   24651      47   24645   24648      49   24645   24651      49   24660
   24663      47   24657   24660      49   24657   24663      49   24672   24675
      47   24669   24672      49   24669   24675      49   24684   24687      47
   24681   24684      49   24681   24687      49   24696   24699      47   24693
   24696      49   24693   24699      49   24708   24711      47   24705   24708
      49   24705   24711      49   24720   24723      47   24717   24720      49
   24717   24723      49   24732   24735      47   24729   24732      49   24729
   24735      49   24744   24747      47   24741   24744      49   24741   24747
      49   24756   24759      47   24753   24756      49   24753   24759      49
   24768   24771      47   24765   24768      49   24765   24771      49   24780
   24783      47   24777   24780      49   24777   24783      49   24792   24795
      47   24789   24792      49   24789   24795      49   24804   24807      47
   24801   24804      49   24801   24807      49   24816   24819      47   24813
   24816      49   24813   24819      49   24828   24831      47   24825   24828
      49   24825   24831      49   24840   24843      47   24837   24840      49
   24837   24843      49   24852   24855      47   24849   24852      49   24849
   24855      49   24864   24867      47   24861   24864      49   24861   24867
      49   24876   24879      47   24873   24876      49   24873   24879      49
   24888   24891      47   24885   24888      49   24885   24891      49   24900
   24903      47   24897   24900      49   24897   24903      49   24912   24915
      47   24909   24912      49   24909   24915      49   24924   24927      47
   24921   24924      49   24921   24927      49   24936   24939      47   24933
   24936      49   24933   24939      49   24948   24951      47   24945   24948
      49   24945   24951      49   24960   24963      47   24957   24960      49
   24957   24963      49   24972   24975      47   24969   24972      49   24969
   24975      49   24984   24987      47   24981   24984      49   24981   24987
      49   24996   24999      47   24993   24996      49   24993   24999      49
   25008   25011      47   25005   25008      49   25005   25011      49   25020
   25023      47   25017   25020      49   25017   25023      49   25032   25035
      47   25029   25032      49   25029   25035      49   25044   25047      47
   25041   25044      49   25041   25047      49   25056   25059      47   25053
   25056      49   25053   25059      49   25068   25071      47   25065   25068
      49   25065   25071      49   25080   25083      47   25077   25080      49
   25077   25083      49   25092   25095      47   25089   25092      49   25089
   25095      49   25104   25107      47   25101   25104      49   25101   25107
      49   25116   25119      47   25113   25116      49   25113   25119      49
   25128   25131      47   25125   25128      49   25125   25131      49   25140
   25143      47   25137   25140      49   25137   25143      49   25152   25155
      47   25149   25152      49   25149   25155      49   25164   25167      47
   25161   25164      49   25161   25167      49   25176   25179      47   25173
   25176      49   25173   25179      49   25188   25191      47   25185   25188
      49   25185   25191      49   25200   25203      47   25197   25200      49
   25197   25203      49   25212   25215      47   25209   25212      49   25209
   25215      49   25224   25227      47   25221   25224      49   25221   25227
      49   25236   25239      47   25233   25236      49   25233   25239      49
   25248   25251      47   25245   25248      49   25245   25251      49   25260
   25263      47   25257   25260      49   25257   25263      49   25272   25275
      47   25269   25272      49   25269   25275      49   25284   25287      47
   25281   25284      49   25281   25287      49   25296   25299      47   25293
   25296      49   25293   25299      49   25308   25311      47   25305   25308
      49   25305   25311      49   25320   25323      47   25317   25320      49
   25317   25323      49   25332   25335      47   25329   25332      49   25329
   25335      49   25344   25347      47   25341   25344      49   25341   25347
      49   25356   25359      47   25353   25356      49   25353   25359      49
   25368   25371      47   25365   25368      49   25365   25371      49   25380
   25383      47   25377   25380      49   25377   25383      49   25392   25395
      47   25389   25392      49   25389   25395      49   25404   25407      47
   25401   25404      49   25401   25407      49   25416   25419      47   25413
   25416      49   25413   25419      49   25428   25431      47   25425   25428
      49   25425   25431      49   25440   25443      47   25437   25440      49
   25437   25443      49   25452   25455      47   25449   25452      49   25449
   25455      49   25464   25467      47   25461   25464      49   25461   25467
      49   25476   25479      47   25473   25476      49   25473   25479      49
   25488   25491      47   25485   25488      49   25485   25491      49   25500
   25503      47   25497   25500      49   25497   25503      49   25512   25515
      47   25509   25512      49   25509   25515      49   25524   25527      47
   25521   25524      49   25521   25527      49   25536   25539      47   25533
   25536      49   25533   25539      49   25548   25551      47   25545   25548
      49   25545   25551      49   25560   25563      47   25557   25560      49
   25557   25563      49   25572   25575      47   25569   25572      49   25569
   25575      49   25584   25587      47   25581   25584      49   25581   25587
      49   25596   25599      47   25593   25596      49   25593   25599      49
   25608   25611      47   25605   25608      49   25605   25611      49   25620
   25623      47   25617   25620      49   25617   25623      49   25632   25635
      47   25629   25632      49   25629   25635      49   25644   25647      47
   25641   25644      49   25641   25647      49   25656   25659      47   25653
   25656      49   25653   25659      49   25668   25671      47   25665   25668
      49   25665   25671      49   25680   25683      47   25677   25680      49
   25677   25683      49   25692   25695      47   25689   25692      49   25689
   25695      49   25704   25707      47   25701   25704      49   25701   25707
      49   25716   25719      47   25713   25716      49   25713   25719      49
   25728   25731      47   25725   25728      49   25725   25731      49   25740
   25743      47   25737   25740      49   25737   25743      49   25752   25755
      47   25749   25752      49   25749   25755      49   25764   25767      47
   25761   25764      49   25761   25767      49   25776   25779      47   25773
   25776      49   25773   25779      49   25788   25791      47   25785   25788
      49   25785   25791      49   25800   25803      47   25797   25800      49
   25797   25803      49   25812   25815      47   25809   25812      49   25809
   25815      49   25824   25827      47   25821   25824      49   25821   25827
      49   25836   25839      47   25833   25836      49   25833   25839      49
   25848   25851      47   25845   25848      49   25845   25851      49   25860
   25863      47   25857   25860      49   25857   25863      49   25872   25875
      47   25869   25872      49   25869   25875      49   25884   25887      47
   25881   25884      49   25881   25887      49   25896   25899      47   25893
   25896      49   25893   25899      49   25908   25911      47   25905   25908
      49   25905   25911      49   25920   25923      47   25917   25920      49
   25917   25923      49   25932   25935      47   25929   25932      49   25929
   25935      49   25944   25947      47   25941   25944      49   25941   25947
      49   25956   25959      47   25953   25956      49   25953   25959      49
   25968   25971      47   25965   25968      49   25965   25971      49   25980
   25983      47   25977   25980      49   25977   25983      49   25992   25995
      47   25989   25992      49   25989   25995      49   26004   26007      47
   26001   26004      49   26001   26007      49   26016   26019      47   26013
   26016      49   26013   26019      49   26028   26031      47   26025   26028
      49   26025   26031      49   26040   26043      47   26037   26040      49
   26037   26043      49   26052   26055      47   26049   26052      49   26049
   26055      49   26064   26067      47   26061   26064      49   26061   26067
      49   26076   26079      47   26073   26076      49   26073   26079      49
   26088   26091      47   26085   26088      49   26085   26091      49   26100
   26103      47   26097   26100      49   26097   26103      49   26112   26115
      47   26109   26112      49   26109   26115      49   26124   26127      47
   26121   26124      49   26121   26127      49   26136   26139      47   26133
   26136      49   26133   26139      49   26148   26151      47   26145   26148
      49   26145   26151      49   26160   26163      47   26157   26160      49
   26157   26163      49   26172   26175      47   26169   26172      49   26169
   26175      49   26184   26187      47   26181   26184      49   26181   26187
      49   26196   26199      47   26193   26196      49   26193   26199      49
   26208   26211      47   26205   26208      49   26205   26211      49   26220
   26223      47   26217   26220      49   26217   26223      49   26232   26235
      47   26229   26232      49   26229   26235      49   26244   26247      47
   26241   26244      49   26241   26247      49   26256   26259      47   26253
   26256      49   26253   26259      49   26268   26271      47   26265   26268
      49   26265   26271      49   26280   26283      47   26277   26280      49
   26277   26283      49   26292   26295      47   26289   26292      49   26289
   26295      49   26304   26307      47   26301   26304      49   26301   26307
      49   26316   26319      47   26313   26316      49   26313   26319      49
   26328   26331      47   26325   26328      49   26325   26331      49   26340
   26343      47   26337   26340      49   26337   26343      49   26352   26355
      47   26349   26352      49   26349   26355      49   26364   26367      47
   26361   26364      49   26361   26367      49   26376   26379      47   26373
   26376      49   26373   26379      49   26388   26391      47   26385   26388
      49   26385   26391      49   26400   26403      47   26397   26400      49
   26397   26403      49   26412   26415      47   26409   26412      49   26409
   26415      49   26424   26427      47   26421   26424      49   26421   26427
      49   26436   26439      47   26433   26436      49   26433   26439      49
   26448   26451      47   26445   26448      49   26445   26451      49   26460
   26463      47   26457   26460      49   26457   26463      49   26472   26475
      47   26469   26472      49   26469   26475      49   26484   26487      47
   26481   26484      49   26481   26487      49   26496   26499      47   26493
   26496      49   26493   26499      49   26508   26511      47   26505   26508
      49   26505   26511      49   26520   26523      47   26517   26520      49
   26517   26523      49   26532   26535      47   26529   26532      49   26529
   26535      49   26544   26547      47   26541   26544      49   26541   26547
      49   26556   26559      47   26553   26556      49   26553   26559      49
   26568   26571      47   26565   26568      49   26565   26571      49   26580
   26583      47   26577   26580      49   26577   26583      49   26592   26595
      47   26589   26592      49   26589   26595      49   26604   26607      47
   26601   26604      49   26601   26607      49   26616   26619      47   26613
   26616      49   26613   26619      49   26628   26631      47   26625   26628
      49   26625   26631      49   26640   26643      47   26637   26640      49
   26637   26643      49   26652   26655      47   26649   26652      49   26649
   26655      49   26664   26667      47   26661   26664      49   26661   26667
      49   26676   26679      47   26673   26676      49   26673   26679      49
   26688   26691      47   26685   26688      49   26685   26691      49   26700
   26703      47   26697   26700      49   26697   26703      49   26712   26715
      47   26709   26712      49   26709   26715      49   26724   26727      47
   26721   26724      49   26721   26727      49   26736   26739      47   26733
   26736      49   26733   26739      49   26748   26751      47   26745   26748
      49   26745   26751      49   26760   26763      47   26757   26760      49
   26757   26763      49   26772   26775      47   26769   26772      49   26769
   26775      49   26784   26787      47   26781   26784      49   26781   26787
      49   26796   26799      47   26793   26796      49   26793   26799      49
   26808   26811      47   26805   26808      49   26805   26811      49   26820
   26823      47   26817   26820      49   26817   26823      49   26832   26835
      47   26829   26832      49   26829   26835      49   26844   26847      47
   26841   26844      49   26841   26847      49   26856   26859      47   26853
   26856      49   26853   26859      49   26868   26871      47   26865   26868
      49   26865   26871      49   26880   26883      47   26877   26880      49
   26877   26883      49   26892   26895      47   26889   26892      49   26889
   26895      49   26904   26907      47   26901   26904      49   26901   26907
      49   26916   26919      47   26913   26916      49   26913   26919      49
   26928   26931      47   26925   26928      49   26925   26931      49   26940
   26943      47   26937   26940      49   26937   26943      49   26952   26955
      47   26949   26952      49   26949   26955      49   26964   26967      47
   26961   26964      49   26961   26967      49   26976   26979      47   26973
   26976      49   26973   26979      49   26988   26991      47   26985   26988
      49   26985   26991      49   27000   27003      47   26997   27000      49
   26997   27003      49   27012   27015      47   27009   27012      49   27009
   27015      49   27024   27027      47   27021   27024      49   27021   27027
      49   27036   27039      47   27033   27036      49   27033   27039      49
   27048   27051      47   27045   27048      49   27045   27051      49   27060
   27063      47   27057   27060      49   27057   27063      49   27072   27075
      47   27069   27072      49   27069   27075      49   27084   27087      47
   27081   27084      49   27081   27087      49   27096   27099      47   27093
   27096      49   27093   27099      49   27108   27111      47   27105   27108
      49   27105   27111      49   27120   27123      47   27117   27120      49
   27117   27123      49   27132   27135      47   27129   27132      49   27129
   27135      49   27144   27147      47   27141   27144      49   27141   27147
      49   27156   27159      47   27153   27156      49   27153   27159      49
   27168   27171      47   27165   27168      49   27165   27171      49   27180
   27183      47   27177   27180      49   27177   27183      49   27192   27195
      47   27189   27192      49   27189   27195      49   27204   27207      47
   27201   27204      49   27201   27207      49   27216   27219      47   27213
   27216      49   27213   27219      49   27228   27231      47   27225   27228
      49   27225   27231      49   27240   27243      47   27237   27240      49
   27237   27243      49   27252   27255      47   27249   27252      49   27249
   27255      49   27264   27267      47   27261   27264      49   27261   27267
      49   27276   27279      47   27273   27276      49   27273   27279      49
   27288   27291      47   27285   27288      49   27285   27291      49   27300
   27303      47   27297   27300      49   27297   27303      49   27312   27315
      47   27309   27312      49   27309   27315      49   27324   27327      47
   27321   27324      49   27321   27327      49   27336   27339      47   27333
   27336      49   27333   27339      49   27348   27351      47   27345   27348
      49   27345   27351      49   27360   27363      47   27357   27360      49
   27357   27363      49   27372   27375      47   27369   27372      49   27369
   27375      49   27384   27387      47   27381   27384      49   27381   27387
      49   27396   27399      47   27393   27396      49   27393   27399      49
   27408   27411      47   27405   27408      49   27405   27411      49   27420
   27423      47   27417   27420      49   27417   27423      49   27432   27435
      47   27429   27432      49   27429   27435      49   27444   27447      47
   27441   27444      49   27441   27447      49   27456   27459      47   27453
   27456      49   27453   27459      49   27468   27471      47   27465   27468
      49   27465   27471      49   27480   27483      47   27477   27480      49
   27477   27483      49   27492   27495      47   27489   27492      49   27489
   27495      49   27504   27507      47   27501   27504      49   27501   27507
      49   27516   27519      47   27513   27516      49   27513   27519      49
   27528   27531      47   27525   27528      49   27525   27531      49   27540
   27543      47   27537   27540      49   27537   27543      49   27552   27555
      47   27549   27552      49   27549   27555      49   27564   27567      47
   27561   27564      49   27561   27567      49   27576   27579      47   27573
   27576      49   27573   27579      49   27588   27591      47   27585   27588
      49   27585   27591      49   27600   27603      47   27597   27600      49
   27597   27603      49   27612   27615      47   27609   27612      49   27609
   27615      49   27624   27627      47   27621   27624      49   27621   27627
      49   27636   27639      47   27633   27636      49   27633   27639      49
   27648   27651      47   27645   27648      49   27645   27651      49   27660
   27663      47   27657   27660      49   27657   27663      49   27672   27675
      47   27669   27672      49   27669   27675      49   27684   27687      47
   27681   27684      49   27681   27687      49   27696   27699      47   27693
   27696      49   27693   27699      49   27708   27711      47   27705   27708
      49   27705   27711      49   27720   27723      47   27717   27720      49
   27717   27723      49   27732   27735      47   27729   27732      49   27729
   27735      49   27744   27747      47   27741   27744      49   27741   27747
      49   27756   27759      47   27753   27756      49   27753   27759      49
   27768   27771      47   27765   27768      49   27765   27771      49   27780
   27783      47   27777   27780      49   27777   27783      49   27792   27795
      47   27789   27792      49   27789   27795      49   27804   27807      47
   27801   27804      49   27801   27807      49   27816   27819      47   27813
   27816      49   27813   27819      49   27828   27831      47   27825   27828
      49   27825   27831      49   27840   27843      47   27837   27840      49
   27837   27843      49   27852   27855      47   27849   27852      49   27849
   27855      49   27864   27867      47   27861   27864      49   27861   27867
      49   27876   27879      47   27873   27876      49   27873   27879      49
   27888   27891      47   27885   27888      49   27885   27891      49   27900
   27903      47   27897   27900      49   27897   27903      49   27912   27915
      47   27909   27912      49   27909   27915      49   27924   27927      47
   27921   27924      49   27921   27927      49   27936   27939      47   27933
   27936      49   27933   27939      49   27948   27951      47   27945   27948
      49   27945   27951      49   27960   27963      47   27957   27960      49
   27957   27963      49   27972   27975      47   27969   27972      49   27969
   27975      49   27984   27987      47   27981   27984      49   27981   27987
      49   27996   27999      47   27993   27996      49   27993   27999      49
   28008   28011      47   28005   28008      49   28005   28011      49   28020
   28023      47   28017   28020      49   28017   28023      49   28032   28035
      47   28029   28032      49   28029   28035      49   28044   28047      47
   28041   28044      49   28041   28047      49   28056   28059      47   28053
   28056      49   28053   28059      49   28068   28071      47   28065   28068
      49   28065   28071      49   28080   28083      47   28077   28080      49
   28077   28083      49   28092   28095      47   28089   28092      49   28089
   28095      49   28104   28107      47   28101   28104      49   28101   28107
      49   28116   28119      47   28113   28116      49   28113   28119      49
   28128   28131      47   28125   28128      49   28125   28131      49   28140
   28143      47   28137   28140      49   28137   28143      49   28152   28155
      47   28149   28152      49   28149   28155      49   28164   28167      47
   28161   28164      49   28161   28167      49   28176   28179      47   28173
   28176      49   28173   28179      49   28188   28191      47   28185   28188
      49   28185   28191      49   28200   28203      47   28197   28200      49
   28197   28203      49   28212   28215      47   28209   28212      49   28209
   28215      49   28224   28227      47   28221   28224      49   28221   28227
      49   28236   28239      47   28233   28236      49   28233   28239      49
   28248   28251      47   28245   28248      49   28245   28251      49   28260
   28263      47   28257   28260      49   28257   28263      49   28272   28275
      47   28269   28272      49   28269   28275      49   28284   28287      47
   28281   28284      49   28281   28287      49   28296   28299      47   28293
   28296      49   28293   28299      49   28308   28311      47   28305   28308
      49   28305   28311      49   28320   28323      47   28317   28320      49
   28317   28323      49   28332   28335      47   28329   28332      49   28329
   28335      49   28344   28347      47   28341   28344      49   28341   28347
      49   28356   28359      47   28353   28356      49   28353   28359      49
   28368   28371      47   28365   28368      49   28365   28371      49   28380
   28383      47   28377   28380      49   28377   28383      49   28392   28395
      47   28389   28392      49   28389   28395      49   28404   28407      47
   28401   28404      49   28401   28407      49   28416   28419      47   28413
   28416      49   28413   28419      49   28428   28431      47   28425   28428
      49   28425   28431      49   28440   28443      47   28437   28440      49
   28437   28443      49   28452   28455      47   28449   28452      49   28449
   28455      49   28464   28467      47   28461   28464      49   28461   28467
      49   28476   28479      47   28473   28476      49   28473   28479      49
   28488   28491      47   28485   28488      49   28485   28491      49   28500
   28503      47   28497   28500      49   28497   28503      49   28512   28515
      47   28509   28512      49   28509   28515      49   28524   28527      47
   28521   28524      49   28521   28527      49   28536   28539      47   28533
   28536      49   28533   28539      49   28548   28551      47   28545   28548
      49   28545   28551      49   28560   28563      47   28557   28560      49
   28557   28563      49   28572   28575      47   28569   28572      49   28569
   28575      49   28584   28587      47   28581   28584      49   28581   28587
      49   28596   28599      47   28593   28596      49   28593   28599      49
   28608   28611      47   28605   28608      49   28605   28611      49   28620
   28623      47   28617   28620      49   28617   28623      49   28632   28635
      47   28629   28632      49   28629   28635      49   28644   28647      47
   28641   28644      49   28641   28647      49   28656   28659      47   28653
   28656      49   28653   28659      49   28668   28671      47   28665   28668
      49   28665   28671      49   28680   28683      47   28677   28680      49
   28677   28683      49   28692   28695      47   28689   28692      49   28689
   28695      49   28704   28707      47   28701   28704      49   28701   28707
      49   28716   28719      47   28713   28716      49   28713   28719      49
   28728   28731      47   28725   28728      49   28725   28731      49   28740
   28743      47   28737   28740      49   28737   28743      49   28752   28755
      47   28749   28752      49   28749   28755      49   28764   28767      47
   28761   28764      49   28761   28767      49   28776   28779      47   28773
   28776      49   28773   28779      49   28788   28791      47   28785   28788
      49   28785   28791      49   28800   28803      47   28797   28800      49
   28797   28803      49   28812   28815      47   28809   28812      49   28809
   28815      49   28824   28827      47   28821   28824      49   28821   28827
      49   28836   28839      47   28833   28836      49   28833   28839      49
   28848   28851      47   28845   28848      49   28845   28851      49   28860
   28863      47   28857   28860      49   28857   28863      49   28872   28875
      47   28869   28872      49   28869   28875      49   28884   28887      47
   28881   28884      49   28881   28887      49   28896   28899      47   28893
   28896      49   28893   28899      49   28908   28911      47   28905   28908
      49   28905   28911      49   28920   28923      47   28917   28920      49
   28917   28923      49   28932   28935      47   28929   28932      49   28929
   28935      49   28944   28947      47   28941   28944      49   28941   28947
      49   28956   28959      47   28953   28956      49   28953   28959      49
   28968   28971      47   28965   28968      49   28965   28971      49   28980
   28983      47   28977   28980      49   28977   28983      49   28992   28995
      47   28989   28992      49   28989   28995      49   29004   29007      47
   29001   29004      49   29001   29007      49   29016   29019      47   29013
   29016      49   29013   29019      49   29028   29031      47   29025   29028
      49   29025   29031      49   29040   29043      47   29037   29040      49
   29037   29043      49   29052   29055      47   29049   29052      49   29049
   29055      49   29064   29067      47   29061   29064      49   29061   29067
      49   29076   29079      47   29073   29076      49   29073   29079      49
   29088   29091      47   29085   29088      49   29085   29091      49   29100
   29103      47   29097   29100      49   29097   29103      49   29112   29115
      47   29109   29112      49   29109   29115      49   29124   29127      47
   29121   29124      49   29121   29127      49   29136   29139      47   29133
   29136      49   29133   29139      49   29148   29151      47   29145   29148
      49   29145   29151      49   29160   29163      47   29157   29160      49
   29157   29163      49   29172   29175      47   29169   29172      49   29169
   29175      49   29184   29187      47   29181   29184      49   29181   29187
      49   29196   29199      47   29193   29196      49   29193   29199      49
   29208   29211      47   29205   29208      49   29205   29211      49   29220
   29223      47   29217   29220      49   29217   29223      49   29232   29235
      47   29229   29232      49   29229   29235      49   29244   29247      47
   29241   29244      49   29241   29247      49   29256   29259      47   29253
   29256      49   29253   29259      49   29268   29271      47   29265   29268
      49   29265   29271      49   29280   29283      47   29277   29280      49
   29277   29283      49   29292   29295      47   29289   29292      49   29289
   29295      49   29304   29307      47   29301   29304      49   29301   29307
      49   29316   29319      47   29313   29316      49   29313   29319      49
   29328   29331      47   29325   29328      49   29325   29331      49   29340
   29343      47   29337   29340      49   29337   29343      49   29352   29355
      47   29349   29352      49   29349   29355      49   29364   29367      47
   29361   29364      49   29361   29367      49   29376   29379      47   29373
   29376      49   29373   29379      49   29388   29391      47   29385   29388
      49   29385   29391      49   29400   29403      47   29397   29400      49
   29397   29403      49   29412   29415      47   29409   29412      49   29409
   29415      49   29424   29427      47   29421   29424      49   29421   29427
      49   29436   29439      47   29433   29436      49   29433   29439      49
   29448   29451      47   29445   29448      49   29445   29451      49   29460
   29463      47   29457   29460      49   29457   29463      49   29472   29475
      47   29469   29472      49   29469   29475      49   29484   29487      47
   29481   29484      49   29481   29487      49   29496   29499      47   29493
   29496      49   29493   29499      49   29508   29511      47   29505   29508
      49   29505   29511      49   29520   29523      47   29517   29520      49
   29517   29523      49   29532   29535      47   29529   29532      49   29529
   29535      49   29544   29547      47   29541   29544      49   29541   29547
      49   29556   29559      47   29553   29556      49   29553   29559      49
   29568   29571      47   29565   29568      49   29565   29571      49   29580
   29583      47   29577   29580      49   29577   29583      49   29592   29595
      47   29589   29592      49   29589   29595      49   29604   29607      47
   29601   29604      49   29601   29607      49   29616   29619      47   29613
   29616      49   29613   29619      49   29628   29631      47   29625   29628
      49   29625   29631      49   29640   29643      47   29637   29640      49
   29637   29643      49   29652   29655      47   29649   29652      49   29649
   29655      49   29664   29667      47   29661   29664      49   29661   29667
      49   29676   29679      47   29673   29676      49   29673   29679      49
   29688   29691      47   29685   29688      49   29685   29691      49   29700
   29703      47   29697   29700      49   29697   29703      49   29712   29715
      47   29709   29712      49   29709   29715      49   29724   29727      47
   29721   29724      49   29721   29727      49   29736   29739      47   29733
   29736      49   29733   29739      49   29748   29751      47   29745   29748
      49   29745   29751      49   29760   29763      47   29757   29760      49
   29757   29763      49   29772   29775      47   29769   29772      49   29769
   29775      49   29784   29787      47   29781   29784      49   29781   29787
      49   29796   29799      47   29793   29796      49   29793   29799      49
   29808   29811      47   29805   29808      49   29805   29811      49   29820
   29823      47   29817   29820      49   29817   29823      49   29832   29835
      47   29829   29832      49   29829   29835      49   29844   29847      47
   29841   29844      49   29841   29847      49   29856   29859      47   29853
   29856      49   29853   29859      49   29868   29871      47   29865   29868
      49   29865   29871      49   29880   29883      47   29877   29880      49
   29877   29883      49   29892   29895      47   29889   29892      49   29889
   29895      49   29904   29907      47   29901   29904      49   29901   29907
      49   29916   29919      47   29913   29916      49   29913   29919      49
   29928   29931      47   29925   29928      49   29925   29931      49   29940
   29943      47   29937   29940      49   29937   29943      49   29952   29955
      47   29949   29952      49   29949   29955      49   29964   29967      47
   29961   29964      49   29961   29967      49   29976   29979      47   29973
   29976      49   29973   29979      49   29988   29991      47   29985   29988
      49   29985   29991      49   30000   30003      47   29997   30000      49
   29997   30003      49   30012   30015      47   30009   30012      49   30009
   30015      49   30024   30027      47   30021   30024      49   30021   30027
      49   30036   30039      47   30033   30036      49   30033   30039      49
   30048   30051      47   30045   30048      49   30045   30051      49   30060
   30063      47   30057   30060      49   30057   30063      49   30072   30075
      47   30069   30072      49   30069   30075      49   30084   30087      47
   30081   30084      49   30081   30087      49   30096   30099      47   30093
   30096      49   30093   30099      49   30108   30111      47   30105   30108
      49   30105   30111      49   30120   30123      47   30117   30120      49
   30117   30123      49   30132   30135      47   30129   30132      49   30129
   30135      49   30144   30147      47   30141   30144      49   30141   30147
      49   30156   30159      47   30153   30156      49   30153   30159      49
   30168   30171      47   30165   30168      49   30165   30171      49   30180
   30183      47   30177   30180      49   30177   30183      49   30192   30195
      47   30189   30192      49   30189   30195      49   30204   30207      47
   30201   30204      49   30201   30207      49   30216   30219      47   30213
   30216      49   30213   30219      49   30228   30231      47   30225   30228
      49   30225   30231      49   30240   30243      47   30237   30240      49
   30237   30243      49   30252   30255      47   30249   30252      49   30249
   30255      49   30264   30267      47   30261   30264      49   30261   30267
      49   30276   30279      47   30273   30276      49   30273   30279      49
   30288   30291      47   30285   30288      49   30285   30291      49   30300
   30303      47   30297   30300      49   30297   30303      49   30312   30315
      47   30309   30312      49   30309   30315      49   30324   30327      47
   30321   30324      49   30321   30327      49   30336   30339      47   30333
   30336      49   30333   30339      49   30348   30351      47   30345   30348
      49   30345   30351      49   30360   30363      47   30357   30360      49
   30357   30363      49   30372   30375      47   30369   30372      49   30369
   30375      49   30384   30387      47   30381   30384      49   30381   30387
      49   30396   30399      47   30393   30396      49   30393   30399      49
   30408   30411      47   30405   30408      49   30405   30411      49   30420
   30423      47   30417   30420      49   30417   30423      49   30432   30435
      47   30429   30432      49   30429   30435      49   30444   30447      47
   30441   30444      49   30441   30447      49   30456   30459      47   30453
   30456      49   30453   30459      49   30468   30471      47   30465   30468
      49   30465   30471      49   30480   30483      47   30477   30480      49
   30477   30483      49   30492   30495      47   30489   30492      49   30489
   30495      49   30504   30507      47   30501   30504      49   30501   30507
      49   30516   30519      47   30513   30516      49   30513   30519      49
   30528   30531      47   30525   30528      49   30525   30531      49   30540
   30543      47   30537   30540      49   30537   30543      49   30552   30555
      47   30549   30552      49   30549   30555      49   30564   30567      47
   30561   30564      49   30561   30567      49   30576   30579      47   30573
   30576      49   30573   30579      49   30588   30591      47   30585   30588
      49   30585   30591      49   30600   30603      47   30597   30600      49
   30597   30603      49   30612   30615      47   30609   30612      49   30609
   30615      49   30624   30627      47   30621   30624      49   30621   30627
      49   30636   30639      47   30633   30636      49   30633   30639      49
   30648   30651      47   30645   30648      49   30645   30651      49   30660
   30663      47   30657   30660      49   30657   30663      49   30672   30675
      47   30669   30672      49   30669   30675      49   30684   30687      47
   30681   30684      49   30681   30687      49   30696   30699      47   30693
   30696      49   30693   30699      49   30708   30711      47   30705   30708
      49   30705   30711      49   30720   30723      47   30717   30720      49
   30717   30723      49   30732   30735      47   30729   30732      49   30729
   30735      49   30744   30747      47   30741   30744      49   30741   30747
      49   30756   30759      47   30753   30756      49   30753   30759      49
   30768   30771      47   30765   30768      49   30765   30771      49   30780
   30783      47   30777   30780      49   30777   30783      49   30792   30795
      47   30789   30792      49   30789   30795      49   30804   30807      47
   30801   30804      49   30801   30807      49   30816   30819      47   30813
   30816      49   30813   30819      49   30828   30831      47   30825   30828
      49   30825   30831      49   30840   30843      47   30837   30840      49
   30837   30843      49   30852   30855      47   30849   30852      49   30849
   30855      49   30864   30867      47   30861   30864      49   30861   30867
      49   30876   30879      47   30873   30876      49   30873   30879      49
   30888   30891      47   30885   30888      49   30885   30891      49   30900
   30903      47   30897   30900      49   30897   30903      49   30912   30915
      47   30909   30912      49   30909   30915      49   30924   30927      47
   30921   30924      49   30921   30927      49   30936   30939      47   30933
   30936      49   30933   30939      49   30948   30951      47   30945   30948
      49   30945   30951      49   30960   30963      47   30957   30960      49
   30957   30963      49   30972   30975      47   30969   30972      49   30969
   30975      49   30984   30987      47   30981   30984      49   30981   30987
      49   30996   30999      47   30993   30996      49   30993   30999      49
   31008   31011      47   31005   31008      49   31005   31011      49   31020
   31023      47   31017   31020      49   31017   31023      49   31032   31035
      47   31029   31032      49   31029   31035      49   31044   31047      47
   31041   31044      49   31041   31047      49   31056   31059      47   31053
   31056      49   31053   31059      49   31068   31071      47   31065   31068
      49   31065   31071      49   31080   31083      47   31077   31080      49
   31077   31083      49   31092   31095      47   31089   31092      49   31089
   31095      49   31104   31107      47   31101   31104      49   31101   31107
      49   31116   31119      47   31113   31116      49   31113   31119      49
   31128   31131      47   31125   31128      49   31125   31131      49   31140
   31143      47   31137   31140      49   31137   31143      49   31152   31155
      47   31149   31152      49   31149   31155      49   31164   31167      47
   31161   31164      49   31161   31167      49   31176   31179      47   31173
   31176      49   31173   31179      49   31188   31191      47   31185   31188
      49   31185   31191      49   31200   31203      47   31197   31200      49
   31197   31203      49   31212   31215      47   31209   31212      49   31209
   31215      49   31224   31227      47   31221   31224      49   31221   31227
      49   31236   31239      47   31233   31236      49   31233   31239      49
   31248   31251      47   31245   31248      49   31245   31251      49   31260
   31263      47   31257   31260      49   31257   31263      49   31272   31275
      47   31269   31272      49   31269   31275      49   31284   31287      47
   31281   31284      49   31281   31287      49   31296   31299      47   31293
   31296      49   31293   31299      49   31308   31311      47   31305   31308
      49   31305   31311      49   31320   31323      47   31317   31320      49
   31317   31323      49   31332   31335      47   31329   31332      49   31329
   31335      49   31344   31347      47   31341   31344      49   31341   31347
      49   31356   31359      47   31353   31356      49   31353   31359      49
   31368   31371      47   31365   31368      49   31365   31371      49   31380
   31383      47   31377   31380      49   31377   31383      49   31392   31395
      47   31389   31392      49   31389   31395      49   31404   31407      47
   31401   31404      49   31401   31407      49   31416   31419      47   31413
   31416      49   31413   31419      49   31428   31431      47   31425   31428
      49   31425   31431      49   31440   31443      47   31437   31440      49
   31437   31443      49   31452   31455      47   31449   31452      49   31449
   31455      49   31464   31467      47   31461   31464      49   31461   31467
      49   31476   31479      47   31473   31476      49   31473   31479      49
   31488   31491      47   31485   31488      49   31485   31491      49   31500
   31503      47   31497   31500      49   31497   31503      49   31512   31515
      47   31509   31512      49   31509   31515      49   31524   31527      47
   31521   31524      49   31521   31527      49   31536   31539      47   31533
   31536      49   31533   31539      49   31548   31551      47   31545   31548
      49   31545   31551      49   31560   31563      47   31557   31560      49
   31557   31563      49   31572   31575      47   31569   31572      49   31569
   31575      49   31584   31587      47   31581   31584      49   31581   31587
      49   31596   31599      47   31593   31596      49   31593   31599      49
   31608   31611      47   31605   31608      49   31605   31611      49   31620
   31623      47   31617   31620      49   31617   31623      49   31632   31635
      47   31629   31632      49   31629   31635      49   31644   31647      47
   31641   31644      49   31641   31647      49   31656   31659      47   31653
   31656      49   31653   31659      49   31668   31671      47   31665   31668
      49   31665   31671      49   31680   31683      47   31677   31680      49
   31677   31683      49   31692   31695      47   31689   31692      49   31689
   31695      49   31704   31707      47   31701   31704      49   31701   31707
      49   31716   31719      47   31713   31716      49   31713   31719      49
   31728   31731      47   31725   31728      49   31725   31731      49   31740
   31743      47   31737   31740      49   31737   31743      49   31752   31755
      47   31749   31752      49   31749   31755      49   31764   31767      47
   31761   31764      49   31761   31767      49   31776   31779      47   31773
   31776      49   31773   31779      49   31788   31791      47   31785   31788
      49   31785   31791      49   31800   31803      47   31797   31800      49
   31797   31803      49   31812   31815      47   31809   31812      49   31809
   31815      49   31824   31827      47   31821   31824      49   31821   31827
      49   31836   31839      47   31833   31836      49   31833   31839      49
   31848   31851      47   31845   31848      49   31845   31851      49   31860
   31863      47   31857   31860      49   31857   31863      49   31872   31875
      47   31869   31872      49   31869   31875      49   31884   31887      47
   31881   31884      49   31881   31887      49   31896   31899      47   31893
   31896      49   31893   31899      49   31908   31911      47   31905   31908
      49   31905   31911      49   31920   31923      47   31917   31920      49
   31917   31923      49   31932   31935      47   31929   31932      49   31929
   31935      49   31944   31947      47   31941   31944      49   31941   31947
      49   31956   31959      47   31953   31956      49   31953   31959      49
   31968   31971      47   31965   31968      49   31965   31971      49   31980
   31983      47   31977   31980      49   31977   31983      49   31992   31995
      47   31989   31992      49   31989   31995      49   32004   32007      47
   32001   32004      49   32001   32007      49   32016   32019      47   32013
   32016      49   32013   32019      49   32028   32031      47   32025   32028
      49   32025   32031      49   32040   32043      47   32037   32040      49
   32037   32043      49   32052   32055      47   32049   32052      49   32049
   32055      49   32064   32067      47   32061   32064      49   32061   32067
      49   32076   32079      47   32073   32076      49   32073   32079      49
   32088   32091      47   32085   32088      49   32085   32091      49   32100
   32103      47   32097   32100      49   32097   32103      49   32112   32115
      47   32109   32112      49   32109   32115      49   32124   32127      47
   32121   32124      49   32121   32127      49   32136   32139      47   32133
   32136      49   32133   32139      49   32148   32151      47   32145   32148
      49   32145   32151      49   32160   32163      47   32157   32160      49
   32157   32163      49   32172   32175      47   32169   32172      49   32169
   32175      49   32184   32187      47   32181   32184      49   32181   32187
      49   32196   32199      47   32193   32196      49   32193   32199      49
   32208   32211      47   32205   32208      49   32205   32211      49   32220
   32223      47   32217   32220      49   32217   32223      49   32232   32235
      47   32229   32232      49   32229   32235      49   32244   32247      47
   32241   32244      49   32241   32247      49   32256   32259      47   32253
   32256      49   32253   32259      49   32268   32271      47   32265   32268
      49   32265   32271      49   32280   32283      47   32277   32280      49
   32277   32283      49   32292   32295      47   32289   32292      49   32289
   32295      49   32304   32307      47   32301   32304      49   32301   32307
      49   32316   32319      47   32313   32316      49   32313   32319      49
   32328   32331      47   32325   32328      49   32325   32331      49   32340
   32343      47   32337   32340      49   32337   32343      49   32352   32355
      47   32349   32352      49   32349   32355      49   32364   32367      47
   32361   32364      49   32361   32367      49   32376   32379      47   32373
   32376      49   32373   32379      49   32388   32391      47   32385   32388
      49   32385   32391      49   32400   32403      47   32397   32400      49
   32397   32403      49   32412   32415      47   32409   32412      49   32409
   32415      49   32424   32427      47   32421   32424      49   32421   32427
      49   32436   32439      47   32433   32436      49   32433   32439      49
   32448   32451      47   32445   32448      49   32445   32451      49   32460
   32463      47   32457   32460      49   32457   32463      49   32472   32475
      47   32469   32472      49   32469   32475      49   32484   32487      47
   32481   32484      49   32481   32487      49   32496   32499      47   32493
   32496      49   32493   32499      49   32508   32511      47   32505   32508
      49   32505   32511      49   32520   32523      47   32517   32520      49
   32517   32523      49   32532   32535      47   32529   32532      49   32529
   32535      49   32544   32547      47   32541   32544      49   32541   32547
      49   32556   32559      47   32553   32556      49   32553   32559      49
   32568   32571      47   32565   32568      49   32565   32571      49   32580
   32583      47   32577   32580      49   32577   32583      49   32592   32595
      47   32589   32592      49   32589   32595      49   32604   32607      47
   32601   32604      49   32601   32607      49   32616   32619      47   32613
   32616      49   32613   32619      49   32628   32631      47   32625   32628
      49   32625   32631      49   32640   32643      47   32637   32640      49
   32637   32643      49   32652   32655      47   32649   32652      49   32649
   32655      49   32664   32667      47   32661   32664      49   32661   32667
      49   32676   32679      47   32673   32676      49   32673   32679      49
   32688   32691      47   32685   32688      49   32685   32691      49   32700
   32703      47   32697   32700      49   32697   32703      49   32712   32715
      47   32709   32712      49   32709   32715      49   32724   32727      47
   32721   32724      49   32721   32727      49   32736   32739      47   32733
   32736      49   32733   32739      49   32748   32751      47   32745   32748
      49   32745   32751      49   32760   32763      47   32757   32760      49
   32757   32763      49   32772   32775      47   32769   32772      49   32769
   32775      49   32784   32787      47   32781   32784      49   32781   32787
      49   32796   32799      47   32793   32796      49   32793   32799      49
   32808   32811      47   32805   32808      49   32805   32811      49   32820
   32823      47   32817   32820      49   32817   32823      49   32832   32835
      47   32829   32832      49   32829   32835      49   32844   32847      47
   32841   32844      49   32841   32847      49   32856   32859      47   32853
   32856      49   32853   32859      49   32868   32871      47   32865   32868
      49   32865   32871      49   32880   32883      47   32877   32880      49
   32877   32883      49   32892   32895      47   32889   32892      49   32889
   32895      49   32904   32907      47   32901   32904      49   32901   32907
      49   32916   32919      47   32913   32916      49   32913   32919      49
   32928   32931      47   32925   32928      49   32925   32931      49   32940
   32943      47   32937   32940      49   32937   32943      49   32952   32955
      47   32949   32952      49   32949   32955      49   32964   32967      47
   32961   32964      49   32961   32967      49   32976   32979      47   32973
   32976      49   32973   32979      49   32988   32991      47   32985   32988
      49   32985   32991      49   33000   33003      47   32997   33000      49
   32997   33003      49   33012   33015      47   33009   33012      49   33009
   33015      49   33024   33027      47   33021   33024      49   33021   33027
      49   33036   33039      47   33033   33036      49   33033   33039      49
   33048   33051      47   33045   33048      49   33045   33051      49   33060
   33063      47   33057   33060      49   33057   33063      49   33072   33075
      47   33069   33072      49   33069   33075      49   33084   33087      47
   33081   33084      49   33081   33087      49   33096   33099      47   33093
   33096      49   33093   33099      49   33108   33111      47   33105   33108
      49   33105   33111      49   33120   33123      47   33117   33120      49
   33117   33123      49   33132   33135      47   33129   33132      49   33129
   33135      49   33144   33147      47   33141   33144      49   33141   33147
      49   33156   33159      47   33153   33156      49   33153   33159      49
   33168   33171      47   33165   33168      49   33165   33171      49   33180
   33183      47   33177   33180      49   33177   33183      49   33192   33195
      47   33189   33192      49   33189   33195      49   33204   33207      47
   33201   33204      49   33201   33207      49   33216   33219      47   33213
   33216      49   33213   33219      49   33228   33231      47   33225   33228
      49   33225   33231      49   33240   33243      47   33237   33240      49
   33237   33243      49   33252   33255      47   33249   33252      49   33249
   33255      49   33264   33267      47   33261   33264      49   33261   33267
      49   33276   33279      47   33273   33276      49   33273   33279      49
   33288   33291      47   33285   33288      49   33285   33291      49   33300
   33303      47   33297   33300      49   33297   33303      49   33312   33315
      47   33309   33312      49   33309   33315      49   33324   33327      47
   33321   33324      49   33321   33327      49   33336   33339      47   33333
   33336      49   33333   33339      49   33348   33351      47   33345   33348
      49   33345   33351      49   33360   33363      47   33357   33360      49
   33357   33363      49   33372   33375      47   33369   33372      49   33369
   33375      49   33384   33387      47   33381   33384      49   33381   33387
      49   33396   33399      47   33393   33396      49   33393   33399      49
   33408   33411      47   33405   33408      49   33405   33411      49   33420
   33423      47   33417   33420      49   33417   33423      49   33432   33435
      47   33429   33432      49   33429   33435      49   33444   33447      47
   33441   33444      49   33441   33447      49   33456   33459      47   33453
   33456      49   33453   33459      49   33468   33471      47   33465   33468
      49   33465   33471      49   33480   33483      47   33477   33480      49
   33477   33483      49   33492   33495      47   33489   33492      49   33489
   33495      49   33504   33507      47   33501   33504      49   33501   33507
      49   33516   33519      47   33513   33516      49   33513   33519      49
   33528   33531      47   33525   33528      49   33525   33531      49   33540
   33543      47   33537   33540      49   33537   33543      49   33552   33555
      47   33549   33552      49   33549   33555      49   33564   33567      47
   33561   33564      49   33561   33567      49   33576   33579      47   33573
   33576      49   33573   33579      49   33588   33591      47   33585   33588
      49   33585   33591      49   33600   33603      47   33597   33600      49
   33597   33603      49   33612   33615      47   33609   33612      49   33609
   33615      49   33624   33627      47   33621   33624      49   33621   33627
      49   33636   33639      47   33633   33636      49   33633   33639      49
   33648   33651      47   33645   33648      49   33645   33651      49   33660
   33663      47   33657   33660      49   33657   33663      49   33672   33675
      47   33669   33672      49   33669   33675      49   33684   33687      47
   33681   33684      49   33681   33687      49   33696   33699      47   33693
   33696      49   33693   33699      49   33708   33711      47   33705   33708
      49   33705   33711      49   33720   33723      47   33717   33720      49
   33717   33723      49   33732   33735      47   33729   33732      49   33729
   33735      49   33744   33747      47   33741   33744      49   33741   33747
      49   33756   33759      47   33753   33756      49   33753   33759      49
   33768   33771      47   33765   33768      49   33765   33771      49   33780
   33783      47   33777   33780      49   33777   33783      49   33792   33795
      47   33789   33792      49   33789   33795      49   33804   33807      47
   33801   33804      49   33801   33807      49   33816   33819      47   33813
   33816      49   33813   33819      49   33828   33831      47   33825   33828
      49   33825   33831      49   33840   33843      47   33837   33840      49
   33837   33843      49   33852   33855      47   33849   33852      49   33849
   33855      49   33864   33867      47   33861   33864      49   33861   33867
      49   33876   33879      47   33873   33876      49   33873   33879      49
   33888   33891      47   33885   33888      49   33885   33891      49   33900
   33903      47   33897   33900      49   33897   33903      49   33912   33915
      47   33909   33912      49   33909   33915      49   33924   33927      47
   33921   33924      49   33921   33927      49   33936   33939      47   33933
   33936      49   33933   33939      49   33948   33951      47   33945   33948
      49   33945   33951      49   33960   33963      47   33957   33960      49
   33957   33963      49   33972   33975      47   33969   33972      49   33969
   33975      49   33984   33987      47   33981   33984      49   33981   33987
      49   33996   33999      47   33993   33996      49   33993   33999      49
   34008   34011      47   34005   34008      49   34005   34011      49   34020
   34023      47   34017   34020      49   34017   34023      49   34032   34035
      47   34029   34032      49   34029   34035      49   34044   34047      47
   34041   34044      49   34041   34047      49   34056   34059      47   34053
   34056      49   34053   34059      49   34068   34071      47   34065   34068
      49   34065   34071      49   34080   34083      47   34077   34080      49
   34077   34083      49   34092   34095      47   34089   34092      49   34089
   34095      49   34104   34107      47   34101   34104      49   34101   34107
      49   34116   34119      47   34113   34116      49   34113   34119      49
   34128   34131      47   34125   34128      49   34125   34131      49   34140
   34143      47   34137   34140      49   34137   34143      49   34152   34155
      47   34149   34152      49   34149   34155      49   34164   34167      47
   34161   34164      49   34161   34167      49   34176   34179      47   34173
   34176      49   34173   34179      49   34188   34191      47   34185   34188
      49   34185   34191      49   34200   34203      47   34197   34200      49
   34197   34203      49   34212   34215      47   34209   34212      49   34209
   34215      49   34224   34227      47   34221   34224      49   34221   34227
      49   34236   34239      47   34233   34236      49   34233   34239      49
   34248   34251      47   34245   34248      49   34245   34251      49   34260
   34263      47   34257   34260      49   34257   34263      49   34272   34275
      47   34269   34272      49   34269   34275      49   34284   34287      47
   34281   34284      49   34281   34287      49   34296   34299      47   34293
   34296      49   34293   34299      49   34308   34311      47   34305   34308
      49   34305   34311      49   34320   34323      47   34317   34320      49
   34317   34323      49   34332   34335      47   34329   34332      49   34329
   34335      49   34344   34347      47   34341   34344      49   34341   34347
      49   34356   34359      47   34353   34356      49   34353   34359      49
   34368   34371      47   34365   34368      49   34365   34371      49   34380
   34383      47   34377   34380      49   34377   34383      49   34392   34395
      47   34389   34392      49   34389   34395      49   34404   34407      47
   34401   34404      49   34401   34407      49   34416   34419      47   34413
   34416      49   34413   34419      49   34428   34431      47   34425   34428
      49   34425   34431      49   34440   34443      47   34437   34440      49
   34437   34443      49   34452   34455      47   34449   34452      49   34449
   34455      49   34464   34467      47   34461   34464      49   34461   34467
      49   34476   34479      47   34473   34476      49   34473   34479      49
   34488   34491      47   34485   34488      49   34485   34491      49   34500
   34503      47   34497   34500      49   34497   34503      49   34512   34515
      47   34509   34512      49   34509   34515      49   34524   34527      47
   34521   34524      49   34521   34527      49   34536   34539      47   34533
   34536      49   34533   34539      49   34548   34551      47   34545   34548
      49   34545   34551      49   34560   34563      47   34557   34560      49
   34557   34563      49   34572   34575      47   34569   34572      49   34569
   34575      49   34584   34587      47   34581   34584      49   34581   34587
      49   34596   34599      47   34593   34596      49   34593   34599      49
   34608   34611      47   34605   34608      49   34605   34611      49   34620
   34623      47   34617   34620      49   34617   34623      49   34632   34635
      47   34629   34632      49   34629   34635      49   34644   34647      47
   34641   34644      49   34641   34647      49   34656   34659      47   34653
   34656      49   34653   34659      49   34668   34671      47   34665   34668
      49   34665   34671      49   34680   34683      47   34677   34680      49
   34677   34683      49   34692   34695      47   34689   34692      49   34689
   34695      49   34704   34707      47   34701   34704      49   34701   34707
      49   34716   34719      47   34713   34716      49   34713   34719      49
   34728   34731      47   34725   34728      49   34725   34731      49   34740
   34743      47   34737   34740      49   34737   34743      49   34752   34755
      47   34749   34752      49   34749   34755      49   34764   34767      47
   34761   34764      49   34761   34767      49   34776   34779      47   34773
   34776      49   34773   34779      49   34788   34791      47   34785   34788
      49   34785   34791      49   34800   34803      47   34797   34800      49
   34797   34803      49   34812   34815      47   34809   34812      49   34809
   34815      49   34824   34827      47   34821   34824      49   34821   34827
      49   34836   34839      47   34833   34836      49   34833   34839      49
   34848   34851      47   34845   34848      49   34845   34851      49   34860
   34863      47   34857   34860      49   34857   34863      49   34872   34875
      47   34869   34872      49   34869   34875      49   34884   34887      47
   34881   34884      49   34881   34887      49   34896   34899      47   34893
   34896      49   34893   34899      49   34908   34911      47   34905   34908
      49   34905   34911      49   34920   34923      47   34917   34920      49
   34917   34923      49   34932   34935      47   34929   34932      49   34929
   34935      49   34944   34947      47   34941   34944      49   34941   34947
      49   34956   34959      47   34953   34956      49   34953   34959      49
   34968   34971      47   34965   34968      49   34965   34971      49   34980
   34983      47   34977   34980      49   34977   34983      49   34992   34995
      47   34989   34992      49   34989   34995      49   35004   35007      47
   35001   35004      49   35001   35007      49   35016   35019      47   35013
   35016      49   35013   35019      49   35028   35031      47   35025   35028
      49   35025   35031      49   35040   35043      47   35037   35040      49
   35037   35043      49   35052   35055      47   35049   35052      49   35049
   35055      49   35064   35067      47   35061   35064      49   35061   35067
      49   35076   35079      47   35073   35076      49   35073   35079      49
   35088   35091      47   35085   35088      49   35085   35091      49   35100
   35103      47   35097   35100      49   35097   35103      49   35112   35115
      47   35109   35112      49   35109   35115      49   35124   35127      47
   35121   35124      49   35121   35127      49   35136   35139      47   35133
   35136      49   35133   35139      49   35148   35151      47   35145   35148
      49   35145   35151      49   35160   35163      47   35157   35160      49
   35157   35163      49   35172   35175      47   35169   35172      49   35169
   35175      49   35184   35187      47   35181   35184      49   35181   35187
      49   35196   35199      47   35193   35196      49   35193   35199      49
   35208   35211      47   35205   35208      49   35205   35211      49   35220
   35223      47   35217   35220      49   35217   35223      49   35232   35235
      47   35229   35232      49   35229   35235      49   35244   35247      47
   35241   35244      49   35241   35247      49   35256   35259      47   35253
   35256      49   35253   35259      49   35268   35271      47   35265   35268
      49   35265   35271      49   35280   35283      47   35277   35280      49
   35277   35283      49   35292   35295      47   35289   35292      49   35289
   35295      49   35304   35307      47   35301   35304      49   35301   35307
      49   35316   35319      47   35313   35316      49   35313   35319      49
   35328   35331      47   35325   35328      49   35325   35331      49   35340
   35343      47   35337   35340      49   35337   35343      49   35352   35355
      47   35349   35352      49   35349   35355      49   35364   35367      47
   35361   35364      49   35361   35367      49   35376   35379      47   35373
   35376      49   35373   35379      49   35388   35391      47   35385   35388
      49   35385   35391      49   35400   35403      47   35397   35400      49
   35397   35403      49   35412   35415      47   35409   35412      49   35409
   35415      49   35424   35427      47   35421   35424      49   35421   35427
      49   35436   35439      47   35433   35436      49   35433   35439      49
   35448   35451      47   35445   35448      49   35445   35451      49   35460
   35463      47   35457   35460      49   35457   35463      49   35472   35475
      47   35469   35472      49   35469   35475      49   35484   35487      47
   35481   35484      49   35481   35487      49   35496   35499      47   35493
   35496      49   35493   35499      49   35508   35511      47   35505   35508
      49   35505   35511      49   35520   35523      47   35517   35520      49
   35517   35523      49   35532   35535      47   35529   35532      49   35529
   35535      49   35544   35547      47   35541   35544      49   35541   35547
      49   35556   35559      47   35553   35556      49   35553   35559      49
   35568   35571      47   35565   35568      49   35565   35571      49   35580
   35583      47   35577   35580      49   35577   35583      49   35592   35595
      47   35589   35592      49   35589   35595      49   35604   35607      47
   35601   35604      49   35601   35607      49   35616   35619      47   35613
   35616      49   35613   35619      49   35628   35631      47   35625   35628
      49   35625   35631      49   35640   35643      47   35637   35640      49
   35637   35643      49   35652   35655      47   35649   35652      49   35649
   35655      49   35664   35667      47   35661   35664      49   35661   35667
      49   35676   35679      47   35673   35676      49   35673   35679      49
   35688   35691      47   35685   35688      49   35685   35691      49   35700
   35703      47   35697   35700      49   35697   35703      49   35712   35715
      47   35709   35712      49   35709   35715      49   35724   35727      47
   35721   35724      49   35721   35727      49   35736   35739      47   35733
   35736      49   35733   35739      49   35748   35751      47   35745   35748
      49   35745   35751      49   35760   35763      47   35757   35760      49
   35757   35763      49   35772   35775      47   35769   35772      49   35769
   35775      49   35784   35787      47   35781   35784      49   35781   35787
      49   35796   35799      47   35793   35796      49   35793   35799      49
   35808   35811      47   35805   35808      49   35805   35811      49   35820
   35823      47   35817   35820      49   35817   35823      49   35832   35835
      47   35829   35832      49   35829   35835      49   35844   35847      47
   35841   35844      49   35841   35847      49   35856   35859      47   35853
   35856      49   35853   35859      49   35868   35871      47   35865   35868
      49   35865   35871      49   35880   35883      47   35877   35880      49
   35877   35883      49   35892   35895      47   35889   35892      49   35889
   35895      49   35904   35907      47   35901   35904      49   35901   35907
      49   35916   35919      47   35913   35916      49   35913   35919      49
   35928   35931      47   35925   35928      49   35925   35931      49   35940
   35943      47   35937   35940      49   35937   35943      49   35952   35955
      47   35949   35952      49   35949   35955      49   35964   35967      47
   35961   35964      49   35961   35967      49   35976   35979      47   35973
   35976      49   35973   35979      49   35988   35991      47   35985   35988
      49   35985   35991      49   36000   36003      47   35997   36000      49
   35997   36003      49   36012   36015      47   36009   36012      49   36009
   36015      49   36024   36027      47   36021   36024      49   36021   36027
      49   36036   36039      47   36033   36036      49   36033   36039      49
   36048   36051      47   36045   36048      49   36045   36051      49   36060
   36063      47   36057   36060      49   36057   36063      49   36072   36075
      47   36069   36072      49   36069   36075      49   36084   36087      47
   36081   36084      49   36081   36087      49   36096   36099      47   36093
   36096      49   36093   36099      49   36108   36111      47   36105   36108
      49   36105   36111      49   36120   36123      47   36117   36120      49
   36117   36123      49   36132   36135      47   36129   36132      49   36129
   36135      49   36144   36147      47   36141   36144      49   36141   36147
      49   36156   36159      47   36153   36156      49   36153   36159      49
   36168   36171      47   36165   36168      49   36165   36171      49   36180
   36183      47   36177   36180      49   36177   36183      49   36192   36195
      47   36189   36192      49   36189   36195      49   36204   36207      47
   36201   36204      49   36201   36207      49   36216   36219      47   36213
   36216      49   36213   36219      49   36228   36231      47   36225   36228
      49   36225   36231      49   36240   36243      47   36237   36240      49
   36237   36243      49   36252   36255      47   36249   36252      49   36249
   36255      49   36264   36267      47   36261   36264      49   36261   36267
      49   36276   36279      47   36273   36276      49   36273   36279      49
   36288   36291      47   36285   36288      49   36285   36291      49   36300
   36303      47   36297   36300      49   36297   36303      49   36312   36315
      47   36309   36312      49   36309   36315      49   36324   36327      47
   36321   36324      49   36321   36327      49   36336   36339      47   36333
   36336      49   36333   36339      49   36348   36351      47   36345   36348
      49   36345   36351      49   36360   36363      47   36357   36360      49
   36357   36363      49   36372   36375      47   36369   36372      49   36369
   36375      49   36384   36387      47   36381   36384      49   36381   36387
      49   36396   36399      47   36393   36396      49   36393   36399      49
   36408   36411      47   36405   36408      49   36405   36411      49   36420
   36423      47   36417   36420      49   36417   36423      49   36432   36435
      47   36429   36432      49   36429   36435      49   36444   36447      47
   36441   36444      49   36441   36447      49   36456   36459      47   36453
   36456      49   36453   36459      49   36468   36471      47   36465   36468
      49   36465   36471      49   36480   36483      47   36477   36480      49
   36477   36483      49   36492   36495      47   36489   36492      49   36489
   36495      49   36504   36507      47   36501   36504      49   36501   36507
      49   36516   36519      47   36513   36516      49   36513   36519      49
   36528   36531      47   36525   36528      49   36525   36531      49   36540
   36543      47   36537   36540      49   36537   36543      49   36552   36555
      47   36549   36552      49   36549   36555      49   36564   36567      47
   36561   36564      49   36561   36567      49   36576   36579      47   36573
   36576      49   36573   36579      49   36588   36591      47   36585   36588
      49   36585   36591      49   36600   36603      47   36597   36600      49
   36597   36603      49   36612   36615      47   36609   36612      49   36609
   36615      49   36624   36627      47   36621   36624      49   36621   36627
      49   36636   36639      47   36633   36636      49   36633   36639      49
   36648   36651      47   36645   36648      49   36645   36651      49   36660
   36663      47   36657   36660      49   36657   36663      49   36672   36675
      47   36669   36672      49   36669   36675      49   36684   36687      47
   36681   36684      49   36681   36687      49   36696   36699      47   36693
   36696      49   36693   36699      49   36708   36711      47   36705   36708
      49   36705   36711      49   36720   36723      47   36717   36720      49
   36717   36723      49   36732   36735      47   36729   36732      49   36729
   36735      49   36744   36747      47   36741   36744      49   36741   36747
      49   36756   36759      47   36753   36756      49   36753   36759      49
   36768   36771      47   36765   36768      49   36765   36771      49   36780
   36783      47   36777   36780      49   36777   36783      49   36792   36795
      47   36789   36792      49   36789   36795      49   36804   36807      47
   36801   36804      49   36801   36807      49   36816   36819      47   36813
   36816      49   36813   36819      49   36828   36831      47   36825   36828
      49   36825   36831      49   36840   36843      47   36837   36840      49
   36837   36843      49   36852   36855      47   36849   36852      49   36849
   36855      49   36864   36867      47   36861   36864      49   36861   36867
      49   36876   36879      47   36873   36876      49   36873   36879      49
   36888   36891      47   36885   36888      49   36885   36891      49   36900
   36903      47   36897   36900      49   36897   36903      49   36912   36915
      47   36909   36912      49   36909   36915      49   36924   36927      47
   36921   36924      49   36921   36927      49   36936   36939      47   36933
   36936      49   36933   36939      49   36948   36951      47   36945   36948
      49   36945   36951      49   36960   36963      47   36957   36960      49
   36957   36963      49   36972   36975      47   36969   36972      49   36969
   36975      49   36984   36987      47   36981   36984      49   36981   36987
      49   36996   36999      47   36993   36996      49   36993   36999      49
   37008   37011      47   37005   37008      49   37005   37011      49   37020
   37023      47   37017   37020      49   37017   37023      49   37032   37035
      47   37029   37032      49   37029   37035      49   37044   37047      47
   37041   37044      49   37041   37047      49   37056   37059      47   37053
   37056      49   37053   37059      49   37068   37071      47   37065   37068
      49   37065   37071      49   37080   37083      47   37077   37080      49
   37077   37083      49   37092   37095      47   37089   37092      49   37089
   37095      49   37104   37107      47   37101   37104      49   37101   37107
      49   37116   37119      47   37113   37116      49   37113   37119      49
   37128   37131      47   37125   37128      49   37125   37131      49   37140
   37143      47   37137   37140      49   37137   37143      49   37152   37155
      47   37149   37152      49   37149   37155      49   37164   37167      47
   37161   37164      49   37161   37167      49   37176   37179      47   37173
   37176      49   37173   37179      49   37188   37191      47   37185   37188
      49   37185   37191      49   37200   37203      47   37197   37200      49
   37197   37203      49   37212   37215      47   37209   37212      49   37209
   37215      49   37224   37227      47   37221   37224      49   37221   37227
      49   37236   37239      47   37233   37236      49   37233   37239      49
   37248   37251      47   37245   37248      49   37245   37251      49   37260
   37263      47   37257   37260      49   37257   37263      49   37272   37275
      47   37269   37272      49   37269   37275      49   37284   37287      47
   37281   37284      49   37281   37287      49   37296   37299      47   37293
   37296      49   37293   37299      49   37308   37311      47   37305   37308
      49   37305   37311      49   37320   37323      47   37317   37320      49
   37317   37323      49   37332   37335      47   37329   37332      49   37329
   37335      49   37344   37347      47   37341   37344      49   37341   37347
      49   37356   37359      47   37353   37356      49   37353   37359      49
   37368   37371      47   37365   37368      49   37365   37371      49   37380
   37383      47   37377   37380      49   37377   37383      49   37392   37395
      47   37389   37392      49   37389   37395      49   37404   37407      47
   37401   37404      49   37401   37407      49   37416   37419      47   37413
   37416      49   37413   37419      49   37428   37431      47   37425   37428
      49   37425   37431      49   37440   37443      47   37437   37440      49
   37437   37443      49   37452   37455      47   37449   37452      49   37449
   37455      49   37464   37467      47   37461   37464      49   37461   37467
      49   37476   37479      47   37473   37476      49   37473   37479      49
   37488   37491      47   37485   37488      49   37485   37491      49   37500
   37503      47   37497   37500      49   37497   37503      49   37512   37515
      47   37509   37512      49   37509   37515      49   37524   37527      47
   37521   37524      49   37521   37527      49   37536   37539      47   37533
   37536      49   37533   37539      49   37548   37551      47   37545   37548
      49   37545   37551      49   37560   37563      47   37557   37560      49
   37557   37563      49   37572   37575      47   37569   37572      49   37569
   37575      49   37584   37587      47   37581   37584      49   37581   37587
      49   37596   37599      47   37593   37596      49   37593   37599      49
   37608   37611      47   37605   37608      49   37605   37611      49   37620
   37623      47   37617   37620      49   37617   37623      49   37632   37635
      47   37629   37632      49   37629   37635      49   37644   37647      47
   37641   37644      49   37641   37647      49   37656   37659      47   37653
   37656      49   37653   37659      49   37668   37671      47   37665   37668
      49   37665   37671      49   37680   37683      47   37677   37680      49
   37677   37683      49   37692   37695      47   37689   37692      49   37689
   37695      49   37704   37707      47   37701   37704      49   37701   37707
      49   37716   37719      47   37713   37716      49   37713   37719      49
   37728   37731      47   37725   37728      49   37725   37731      49   37740
   37743      47   37737   37740      49   37737   37743      49   37752   37755
      47   37749   37752      49   37749   37755      49   37764   37767      47
   37761   37764      49   37761   37767      49   37776   37779      47   37773
   37776      49   37773   37779      49   37788   37791      47   37785   37788
      49   37785   37791      49   37800   37803      47   37797   37800      49
   37797   37803      49   37812   37815      47   37809   37812      49   37809
   37815      49   37824   37827      47   37821   37824      49   37821   37827
      49   37836   37839      47   37833   37836      49   37833   37839      49
   37848   37851      47   37845   37848      49   37845   37851      49   37860
   37863      47   37857   37860      49   37857   37863      49   37872   37875
      47   37869   37872      49   37869   37875      49   37884   37887      47
   37881   37884      49   37881   37887      49   37896   37899      47   37893
   37896      49   37893   37899      49   37908   37911      47   37905   37908
      49   37905   37911      49   37920   37923      47   37917   37920      49
   37917   37923      49   37932   37935      47   37929   37932      49   37929
   37935      49   37944   37947      47   37941   37944      49   37941   37947
      49   37956   37959      47   37953   37956      49   37953   37959      49
   37968   37971      47   37965   37968      49   37965   37971      49   37980
   37983      47   37977   37980      49   37977   37983      49   37992   37995
      47   37989   37992      49   37989   37995      49   38004   38007      47
   38001   38004      49   38001   38007      49   38016   38019      47   38013
   38016      49   38013   38019      49   38028   38031      47   38025   38028
      49   38025   38031      49   38040   38043      47   38037   38040      49
   38037   38043      49   38052   38055      47   38049   38052      49   38049
   38055      49   38064   38067      47   38061   38064      49   38061   38067
      49   38076   38079      47   38073   38076      49   38073   38079      49
   38088   38091      47   38085   38088      49   38085   38091      49   38100
   38103      47   38097   38100      49   38097   38103      49   38112   38115
      47   38109   38112      49   38109   38115      49   38124   38127      47
   38121   38124      49   38121   38127      49   38136   38139      47   38133
   38136      49   38133   38139      49   38148   38151      47   38145   38148
      49   38145   38151      49   38160   38163      47   38157   38160      49
   38157   38163      49   38172   38175      47   38169   38172      49   38169
   38175      49   38184   38187      47   38181   38184      49   38181   38187
      49   38196   38199      47   38193   38196      49   38193   38199      49
   38208   38211      47   38205   38208      49   38205   38211      49   38220
   38223      47   38217   38220      49   38217   38223      49   38232   38235
      47   38229   38232      49   38229   38235      49   38244   38247      47
   38241   38244      49   38241   38247      49   38256   38259      47   38253
   38256      49   38253   38259      49   38268   38271      47   38265   38268
      49   38265   38271      49   38280   38283      47   38277   38280      49
   38277   38283      49   38292   38295      47   38289   38292      49   38289
   38295      49   38304   38307      47   38301   38304      49   38301   38307
      49   38316   38319      47   38313   38316      49   38313   38319      49
   38328   38331      47   38325   38328      49   38325   38331      49   38340
   38343      47   38337   38340      49   38337   38343      49   38352   38355
      47   38349   38352      49   38349   38355      49   38364   38367      47
   38361   38364      49   38361   38367      49   38376   38379      47   38373
   38376      49   38373   38379      49   38388   38391      47   38385   38388
      49   38385   38391      49   38400   38403      47   38397   38400      49
   38397   38403      49   38412   38415      47   38409   38412      49   38409
   38415      49   38424   38427      47   38421   38424      49   38421   38427
      49   38436   38439      47   38433   38436      49   38433   38439      49
   38448   38451      47   38445   38448      49   38445   38451      49   38460
   38463      47   38457   38460      49   38457   38463      49   38472   38475
      47   38469   38472      49   38469   38475      49   38484   38487      47
   38481   38484      49   38481   38487      49   38496   38499      47   38493
   38496      49   38493   38499      49   38508   38511      47   38505   38508
      49   38505   38511      49   38520   38523      47   38517   38520      49
   38517   38523      49   38532   38535      47   38529   38532      49   38529
   38535      49   38544   38547      47   38541   38544      49   38541   38547
      49   38556   38559      47   38553   38556      49   38553   38559      49
   38568   38571      47   38565   38568      49   38565   38571      49   38580
   38583      47   38577   38580      49   38577   38583      49   38592   38595
      47   38589   38592      49   38589   38595      49   38604   38607      47
   38601   38604      49   38601   38607      49   38616   38619      47   38613
   38616      49   38613   38619      49   38628   38631      47   38625   38628
      49   38625   38631      49   38640   38643      47   38637   38640      49
   38637   38643      49   38652   38655      47   38649   38652      49   38649
   38655      49   38664   38667      47   38661   38664      49   38661   38667
      49   38676   38679      47   38673   38676      49   38673   38679      49
   38688   38691      47   38685   38688      49   38685   38691      49   38700
   38703      47   38697   38700      49   38697   38703      49   38712   38715
      47   38709   38712      49   38709   38715      49   38724   38727      47
   38721   38724      49   38721   38727      49   38736   38739      47   38733
   38736      49   38733   38739      49   38748   38751      47   38745   38748
      49   38745   38751      49   38760   38763      47   38757   38760      49
   38757   38763      49   38772   38775      47   38769   38772      49   38769
   38775      49   38784   38787      47   38781   38784      49   38781   38787
      49   38796   38799      47   38793   38796      49   38793   38799      49
   38808   38811      47   38805   38808      49   38805   38811      49   38820
   38823      47   38817   38820      49   38817   38823      49   38832   38835
      47   38829   38832      49   38829   38835      49   38844   38847      47
   38841   38844      49   38841   38847      49   38856   38859      47   38853
   38856      49   38853   38859      49   38868   38871      47   38865   38868
      49   38865   38871      49   38880   38883      47   38877   38880      49
   38877   38883      49   38892   38895      47   38889   38892      49   38889
   38895      49   38904   38907      47   38901   38904      49   38901   38907
      49   38916   38919      47   38913   38916      49   38913   38919      49
   38928   38931      47   38925   38928      49   38925   38931      49   38940
   38943      47   38937   38940      49   38937   38943      49   38952   38955
      47   38949   38952      49   38949   38955      49   38964   38967      47
   38961   38964      49   38961   38967      49   38976   38979      47   38973
   38976      49   38973   38979      49   38988   38991      47   38985   38988
      49   38985   38991      49   39000   39003      47   38997   39000      49
   38997   39003      49   39012   39015      47   39009   39012      49   39009
   39015      49   39024   39027      47   39021   39024      49   39021   39027
      49   39036   39039      47   39033   39036      49   39033   39039      49
   39048   39051      47   39045   39048      49   39045   39051      49   39060
   39063      47   39057   39060      49   39057   39063      49   39072   39075
      47   39069   39072      49   39069   39075      49   39084   39087      47
   39081   39084      49   39081   39087      49   39096   39099      47   39093
   39096      49   39093   39099      49   39108   39111      47   39105   39108
      49   39105   39111      49   39120   39123      47   39117   39120      49
   39117   39123      49   39132   39135      47   39129   39132      49   39129
   39135      49   39144   39147      47   39141   39144      49   39141   39147
      49   39156   39159      47   39153   39156      49   39153   39159      49
   39168   39171      47   39165   39168      49   39165   39171      49   39180
   39183      47   39177   39180      49   39177   39183      49   39192   39195
      47   39189   39192      49   39189   39195      49   39204   39207      47
   39201   39204      49   39201   39207      49   39216   39219      47   39213
   39216      49   39213   39219      49   39228   39231      47   39225   39228
      49   39225   39231      49   39240   39243      47   39237   39240      49
   39237   39243      49   39252   39255      47   39249   39252      49   39249
   39255      49   39264   39267      47   39261   39264      49   39261   39267
      49   39276   39279      47   39273   39276      49   39273   39279      49
   39288   39291      47   39285   39288      49   39285   39291      49   39300
   39303      47   39297   39300      49   39297   39303      49   39312   39315
      47   39309   39312      49   39309   39315      49   39324   39327      47
   39321   39324      49   39321   39327      49   39336   39339      47   39333
   39336      49   39333   39339      49   39348   39351      47   39345   39348
      49   39345   39351      49   39360   39363      47   39357   39360      49
   39357   39363      49   39372   39375      47   39369   39372      49   39369
   39375      49   39384   39387      47   39381   39384      49   39381   39387
      49   39396   39399      47   39393   39396      49   39393   39399      49
   39408   39411      47   39405   39408      49   39405   39411      49   39420
   39423      47   39417   39420      49   39417   39423      49   39432   39435
      47   39429   39432      49   39429   39435      49   39444   39447      47
   39441   39444      49   39441   39447      49   39456   39459      47   39453
   39456      49   39453   39459      49   39468   39471      47   39465   39468
      49   39465   39471      49   39480   39483      47   39477   39480      49
   39477   39483      49   39492   39495      47   39489   39492      49   39489
   39495      49   39504   39507      47   39501   39504      49   39501   39507
      49   39516   39519      47   39513   39516      49   39513   39519      49
   39528   39531      47   39525   39528      49   39525   39531      49   39540
   39543      47   39537   39540      49   39537   39543      49   39552   39555
      47   39549   39552      49   39549   39555      49   39564   39567      47
   39561   39564      49   39561   39567      49   39576   39579      47   39573
   39576      49   39573   39579      49   39588   39591      47   39585   39588
      49   39585   39591      49   39600   39603      47   39597   39600      49
   39597   39603      49   39612   39615      47   39609   39612      49   39609
   39615      49   39624   39627      47   39621   39624      49   39621   39627
      49   39636   39639      47   39633   39636      49   39633   39639      49
   39648   39651      47   39645   39648      49   39645   39651      49   39660
   39663      47   39657   39660      49   39657   39663      49   39672   39675
      47   39669   39672      49   39669   39675      49   39684   39687      47
   39681   39684      49   39681   39687      49   39696   39699      47   39693
   39696      49   39693   39699      49   39708   39711      47   39705   39708
      49   39705   39711      49   39720   39723      47   39717   39720      49
   39717   39723      49   39732   39735      47   39729   39732      49   39729
   39735      49   39744   39747      47   39741   39744      49   39741   39747
      49   39756   39759      47   39753   39756      49   39753   39759      49
   39768   39771      47   39765   39768      49   39765   39771      49   39780
   39783      47   39777   39780      49   39777   39783      49   39792   39795
      47   39789   39792      49   39789   39795      49   39804   39807      47
   39801   39804      49   39801   39807      49   39816   39819      47   39813
   39816      49   39813   39819      49   39828   39831      47   39825   39828
      49   39825   39831      49   39840   39843      47   39837   39840      49
   39837   39843      49   39852   39855      47   39849   39852      49   39849
   39855      49   39864   39867      47   39861   39864      49   39861   39867
      49   39876   39879      47   39873   39876      49   39873   39879      49
   39888   39891      47   39885   39888      49   39885   39891      49   39900
   39903      47   39897   39900      49   39897   39903      49   39912   39915
      47   39909   39912      49   39909   39915      49   39924   39927      47
   39921   39924      49   39921   39927      49   39936   39939      47   39933
   39936      49   39933   39939      49   39948   39951      47   39945   39948
      49   39945   39951      49   39960   39963      47   39957   39960      49
   39957   39963      49   39972   39975      47   39969   39972      49   39969
   39975      49   39984   39987      47   39981   39984      49   39981   39987
      49   39996   39999      47   39993   39996      49   39993   39999      49
   40008   40011      47   40005   40008      49   40005   40011      49   40020
   40023      47   40017   40020      49   40017   40023      49   40032   40035
      47   40029   40032      49   40029   40035      49   40044   40047      47
   40041   40044      49   40041   40047      49   40056   40059      47   40053
   40056      49   40053   40059      49   40068   40071      47   40065   40068
      49   40065   40071      49   40080   40083      47   40077   40080      49
   40077   40083      49   40092   40095      47   40089   40092      49   40089
   40095      49   40104   40107      47   40101   40104      49   40101   40107
      49   40116   40119      47   40113   40116      49   40113   40119      49
   40128   40131      47   40125   40128      49   40125   40131      49   40140
   40143      47   40137   40140      49   40137   40143      49   40152   40155
      47   40149   40152      49   40149   40155      49   40164   40167      47
   40161   40164      49   40161   40167      49   40176   40179      47   40173
   40176      49   40173   40179      49   40188   40191      47   40185   40188
      49   40185   40191      49   40200   40203      47   40197   40200      49
   40197   40203      49   40212   40215      47   40209   40212      49   40209
   40215      49   40224   40227      47   40221   40224      49   40221   40227
      49   40236   40239      47   40233   40236      49   40233   40239      49
   40248   40251      47   40245   40248      49   40245   40251      49   40260
   40263      47   40257   40260      49   40257   40263      49   40272   40275
      47   40269   40272      49   40269   40275      49   40284   40287      47
   40281   40284      49   40281   40287      49   40296   40299      47   40293
   40296      49   40293   40299      49   40308   40311      47   40305   40308
      49   40305   40311      49   40320   40323      47   40317   40320      49
   40317   40323      49   40332   40335      47   40329   40332      49   40329
   40335      49   40344   40347      47   40341   40344      49   40341   40347
      49   40356   40359      47   40353   40356      49   40353   40359      49
   40368   40371      47   40365   40368      49   40365   40371      49   40380
   40383      47   40377   40380      49   40377   40383      49   40392   40395
      47   40389   40392      49   40389   40395      49   40404   40407      47
   40401   40404      49   40401   40407      49   40416   40419      47   40413
   40416      49   40413   40419      49   40428   40431      47   40425   40428
      49   40425   40431      49   40440   40443      47   40437   40440      49
   40437   40443      49   40452   40455      47   40449   40452      49   40449
   40455      49   40464   40467      47   40461   40464      49   40461   40467
      49   40476   40479      47   40473   40476      49   40473   40479      49
   40488   40491      47   40485   40488      49   40485   40491      49   40500
   40503      47   40497   40500      49   40497   40503      49   40512   40515
      47   40509   40512      49   40509   40515      49   40524   40527      47
   40521   40524      49   40521   40527      49   40536   40539      47   40533
   40536      49   40533   40539      49   40548   40551      47   40545   40548
      49   40545   40551      49   40560   40563      47   40557   40560      49
   40557   40563      49   40572   40575      47   40569   40572      49   40569
   40575      49   40584   40587      47   40581   40584      49   40581   40587
      49   40596   40599      47   40593   40596      49   40593   40599      49
   40608   40611      47   40605   40608      49   40605   40611      49   40620
   40623      47   40617   40620      49   40617   40623      49   40632   40635
      47   40629   40632      49   40629   40635      49   40644   40647      47
   40641   40644      49   40641   40647      49   40656   40659      47   40653
   40656      49   40653   40659      49   40668   40671      47   40665   40668
      49   40665   40671      49   40680   40683      47   40677   40680      49
   40677   40683      49   40692   40695      47   40689   40692      49   40689
   40695      49   40704   40707      47   40701   40704      49   40701   40707
      49   40716   40719      47   40713   40716      49   40713   40719      49
   40728   40731      47   40725   40728      49   40725   40731      49   40740
   40743      47   40737   40740      49   40737   40743      49   40752   40755
      47   40749   40752      49   40749   40755      49   40764   40767      47
   40761   40764      49   40761   40767      49   40776   40779      47   40773
   40776      49   40773   40779      49   40788   40791      47   40785   40788
      49   40785   40791      49   40800   40803      47   40797   40800      49
   40797   40803      49   40812   40815      47   40809   40812      49   40809
   40815      49   40824   40827      47   40821   40824      49   40821   40827
      49   40836   40839      47   40833   40836      49   40833   40839      49
   40848   40851      47   40845   40848      49   40845   40851      49   40860
   40863      47   40857   40860      49   40857   40863      49   40872   40875
      47   40869   40872      49   40869   40875      49   40884   40887      47
   40881   40884      49   40881   40887      49   40896   40899      47   40893
   40896      49   40893   40899      49   40908   40911      47   40905   40908
      49   40905   40911      49   40920   40923      47   40917   40920      49
   40917   40923      49   40932   40935      47   40929   40932      49   40929
   40935      49   40944   40947      47   40941   40944      49   40941   40947
      49   40956   40959      47   40953   40956      49   40953   40959      49
   40968   40971      47   40965   40968      49   40965   40971      49   40980
   40983      47   40977   40980      49   40977   40983      49   40992   40995
      47   40989   40992      49   40989   40995      49   41004   41007      47
   41001   41004      49   41001   41007      49   41016   41019      47   41013
   41016      49   41013   41019      49   41028   41031      47   41025   41028
      49   41025   41031      49   41040   41043      47   41037   41040      49
   41037   41043      49   41052   41055      47   41049   41052      49   41049
   41055      49   41064   41067      47   41061   41064      49   41061   41067
      49   41076   41079      47   41073   41076      49   41073   41079      49
   41088   41091      47   41085   41088      49   41085   41091      49   41100
   41103      47   41097   41100      49   41097   41103      49   41112   41115
      47   41109   41112      49   41109   41115      49   41124   41127      47
   41121   41124      49   41121   41127      49   41136   41139      47   41133
   41136      49   41133   41139      49   41148   41151      47   41145   41148
      49   41145   41151      49   41160   41163      47   41157   41160      49
   41157   41163      49   41172   41175      47   41169   41172      49   41169
   41175      49   41184   41187      47   41181   41184      49   41181   41187
      49   41196   41199      47   41193   41196      49   41193   41199      49
   41208   41211      47   41205   41208      49   41205   41211      49   41220
   41223      47   41217   41220      49   41217   41223      49   41232   41235
      47   41229   41232      49   41229   41235      49   41244   41247      47
   41241   41244      49   41241   41247      49   41256   41259      47   41253
   41256      49   41253   41259      49   41268   41271      47   41265   41268
      49   41265   41271      49   41280   41283      47   41277   41280      49
   41277   41283      49   41292   41295      47   41289   41292      49   41289
   41295      49   41304   41307      47   41301   41304      49   41301   41307
      49   41316   41319      47   41313   41316      49   41313   41319      49
   41328   41331      47   41325   41328      49   41325   41331      49   41340
   41343      47   41337   41340      49   41337   41343      49   41352   41355
      47   41349   41352      49   41349   41355      49   41364   41367      47
   41361   41364      49   41361   41367      49   41376   41379      47   41373
   41376      49   41373   41379      49   41388   41391      47   41385   41388
      49   41385   41391      49   41400   41403      47   41397   41400      49
   41397   41403      49   41412   41415      47   41409   41412      49   41409
   41415      49   41424   41427      47   41421   41424      49   41421   41427
      49   41436   41439      47   41433   41436      49   41433   41439      49
   41448   41451      47   41445   41448      49   41445   41451      49   41460
   41463      47   41457   41460      49   41457   41463      49   41472   41475
      47   41469   41472      49   41469   41475      49   41484   41487      47
   41481   41484      49   41481   41487      49   41496   41499      47   41493
   41496      49   41493   41499      49   41508   41511      47   41505   41508
      49   41505   41511      49   41520   41523      47   41517   41520      49
   41517   41523      49   41532   41535      47   41529   41532      49   41529
   41535      49   41544   41547      47   41541   41544      49   41541   41547
      49   41556   41559      47   41553   41556      49   41553   41559      49
   41568   41571      47   41565   41568      49   41565   41571      49   41580
   41583      47   41577   41580      49   41577   41583      49   41592   41595
      47   41589   41592      49   41589   41595      49   41604   41607      47
   41601   41604      49   41601   41607      49   41616   41619      47   41613
   41616      49   41613   41619      49   41628   41631      47   41625   41628
      49   41625   41631      49   41640   41643      47   41637   41640      49
   41637   41643      49   41652   41655      47   41649   41652      49   41649
   41655      49   41664   41667      47   41661   41664      49   41661   41667
      49   41676   41679      47   41673   41676      49   41673   41679      49
   41688   41691      47   41685   41688      49   41685   41691      49   41700
   41703      47   41697   41700      49   41697   41703      49   41712   41715
      47   41709   41712      49   41709   41715      49   41724   41727      47
   41721   41724      49   41721   41727      49   41736   41739      47   41733
   41736      49   41733   41739      49   41748   41751      47   41745   41748
      49   41745   41751      49   41760   41763      47   41757   41760      49
   41757   41763      49   41772   41775      47   41769   41772      49   41769
   41775      49   41784   41787      47   41781   41784      49   41781   41787
      49   41796   41799      47   41793   41796      49   41793   41799      49
   41808   41811      47   41805   41808      49   41805   41811      49   41820
   41823      47   41817   41820      49   41817   41823      49   41832   41835
      47   41829   41832      49   41829   41835      49   41844   41847      47
   41841   41844      49   41841   41847      49   41856   41859      47   41853
   41856      49   41853   41859      49   41868   41871      47   41865   41868
      49   41865   41871      49   41880   41883      47   41877   41880      49
   41877   41883      49   41892   41895      47   41889   41892      49   41889
   41895      49   41904   41907      47   41901   41904      49   41901   41907
      49   41916   41919      47   41913   41916      49   41913   41919      49
   41928   41931      47   41925   41928      49   41925   41931      49   41940
   41943      47   41937   41940      49   41937   41943      49   41952   41955
      47   41949   41952      49   41949   41955      49   41964   41967      47
   41961   41964      49   41961   41967      49   41976   41979      47   41973
   41976      49   41973   41979      49   41988   41991      47   41985   41988
      49   41985   41991      49   42000   42003      47   41997   42000      49
   41997   42003      49   42012   42015      47   42009   42012      49   42009
   42015      49   42024   42027      47   42021   42024      49   42021   42027
      49   42036   42039      47   42033   42036      49   42033   42039      49
   42048   42051      47   42045   42048      49   42045   42051      49   42060
   42063      47   42057   42060      49   42057   42063      49   42072   42075
      47   42069   42072      49   42069   42075      49   42084   42087      47
   42081   42084      49   42081   42087      49   42096   42099      47   42093
   42096      49   42093   42099      49   42108   42111      47   42105   42108
      49   42105   42111      49   42120   42123      47   42117   42120      49
   42117   42123      49   42132   42135      47   42129   42132      49   42129
   42135      49   42144   42147      47   42141   42144      49   42141   42147
      49   42156   42159      47   42153   42156      49   42153   42159      49
   42168   42171      47   42165   42168      49   42165   42171      49   42180
   42183      47   42177   42180      49   42177   42183      49   42192   42195
      47   42189   42192      49   42189   42195      49   42204   42207      47
   42201   42204      49   42201   42207      49   42216   42219      47   42213
   42216      49   42213   42219      49   42228   42231      47   42225   42228
      49   42225   42231      49   42240   42243      47   42237   42240      49
   42237   42243      49   42252   42255      47   42249   42252      49   42249
   42255      49   42264   42267      47   42261   42264      49   42261   42267
      49   42276   42279      47   42273   42276      49   42273   42279      49
   42288   42291      47   42285   42288      49   42285   42291      49   42300
   42303      47   42297   42300      49   42297   42303      49   42312   42315
      47   42309   42312      49   42309   42315      49   42324   42327      47
   42321   42324      49   42321   42327      49   42336   42339      47   42333
   42336      49   42333   42339      49   42348   42351      47   42345   42348
      49   42345   42351      49   42360   42363      47   42357   42360      49
   42357   42363      49   42372   42375      47   42369   42372      49   42369
   42375      49   42384   42387      47   42381   42384      49   42381   42387
      49   42396   42399      47   42393   42396      49   42393   42399      49
   42408   42411      47   42405   42408      49   42405   42411      49   42420
   42423      47   42417   42420      49   42417   42423      49   42432   42435
      47   42429   42432      49   42429   42435      49   42444   42447      47
   42441   42444      49   42441   42447      49   42456   42459      47   42453
   42456      49   42453   42459      49   42468   42471      47   42465   42468
      49   42465   42471      49   42480   42483      47   42477   42480      49
   42477   42483      49   42492   42495      47   42489   42492      49   42489
   42495      49   42504   42507      47   42501   42504      49   42501   42507
      49   42516   42519      47   42513   42516      49   42513   42519      49
   42528   42531      47   42525   42528      49   42525   42531      49   42540
   42543      47   42537   42540      49   42537   42543      49   42552   42555
      47   42549   42552      49   42549   42555      49   42564   42567      47
   42561   42564      49   42561   42567      49   42576   42579      47   42573
   42576      49   42573   42579      49   42588   42591      47   42585   42588
      49   42585   42591      49   42600   42603      47   42597   42600      49
   42597   42603      49   42612   42615      47   42609   42612      49   42609
   42615      49   42624   42627      47   42621   42624      49   42621   42627
      49   42636   42639      47   42633   42636      49   42633   42639      49
   42648   42651      47   42645   42648      49   42645   42651      49   42660
   42663      47   42657   42660      49   42657   42663      49   42672   42675
      47   42669   42672      49   42669   42675      49   42684   42687      47
   42681   42684      49   42681   42687      49   42696   42699      47   42693
   42696      49   42693   42699      49   42708   42711      47   42705   42708
      49   42705   42711      49   42720   42723      47   42717   42720      49
   42717   42723      49   42732   42735      47   42729   42732      49   42729
   42735      49   42744   42747      47   42741   42744      49   42741   42747
      49   42756   42759      47   42753   42756      49   42753   42759      49
   42768   42771      47   42765   42768      49   42765   42771      49   42780
   42783      47   42777   42780      49   42777   42783      49   42792   42795
      47   42789   42792      49   42789   42795      49   42804   42807      47
   42801   42804      49   42801   42807      49   42816   42819      47   42813
   42816      49   42813   42819      49   42828   42831      47   42825   42828
      49   42825   42831      49   42840   42843      47   42837   42840      49
   42837   42843      49   42852   42855      47   42849   42852      49   42849
   42855      49   42864   42867      47   42861   42864      49   42861   42867
      49   42876   42879      47   42873   42876      49   42873   42879      49
   42888   42891      47   42885   42888      49   42885   42891      49   42900
   42903      47   42897   42900      49   42897   42903      49   42912   42915
      47   42909   42912      49   42909   42915      49   42924   42927      47
   42921   42924      49   42921   42927      49   42936   42939      47   42933
   42936      49   42933   42939      49   42948   42951      47   42945   42948
      49   42945   42951      49   42960   42963      47   42957   42960      49
   42957   42963      49   42972   42975      47   42969   42972      49   42969
   42975      49   42984   42987      47   42981   42984      49   42981   42987
      49   42996   42999      47   42993   42996      49   42993   42999      49
   43008   43011      47   43005   43008      49   43005   43011      49   43020
   43023      47   43017   43020      49   43017   43023      49   43032   43035
      47   43029   43032      49   43029   43035      49   43044   43047      47
   43041   43044      49   43041   43047      49   43056   43059      47   43053
   43056      49   43053   43059      49   43068   43071      47   43065   43068
      49   43065   43071      49   43080   43083      47   43077   43080      49
   43077   43083      49   43092   43095      47   43089   43092      49   43089
   43095      49   43104   43107      47   43101   43104      49   43101   43107
      49   43116   43119      47   43113   43116      49   43113   43119      49
   43128   43131      47   43125   43128      49   43125   43131      49   43140
   43143      47   43137   43140      49   43137   43143      49   43152   43155
      47   43149   43152      49   43149   43155      49   43164   43167      47
   43161   43164      49   43161   43167      49   43176   43179      47   43173
   43176      49   43173   43179      49   43188   43191      47   43185   43188
      49   43185   43191      49   43200   43203      47   43197   43200      49
   43197   43203      49   43212   43215      47   43209   43212      49   43209
   43215      49   43224   43227      47   43221   43224      49   43221   43227
      49   43236   43239      47   43233   43236      49   43233   43239      49
   43248   43251      47   43245   43248      49   43245   43251      49   43260
   43263      47   43257   43260      49   43257   43263      49   43272   43275
      47   43269   43272      49   43269   43275      49   43284   43287      47
   43281   43284      49   43281   43287      49   43296   43299      47   43293
   43296      49   43293   43299      49   43308   43311      47   43305   43308
      49   43305   43311      49   43320   43323      47   43317   43320      49
   43317   43323      49   43332   43335      47   43329   43332      49   43329
   43335      49   43344   43347      47   43341   43344      49   43341   43347
      49   43356   43359      47   43353   43356      49   43353   43359      49
   43368   43371      47   43365   43368      49   43365   43371      49   43380
   43383      47   43377   43380      49   43377   43383      49   43392   43395
      47   43389   43392      49   43389   43395      49   43404   43407      47
   43401   43404      49   43401   43407      49   43416   43419      47   43413
   43416      49   43413   43419      49   43428   43431      47   43425   43428
      49   43425   43431      49   43440   43443      47   43437   43440      49
   43437   43443      49   43452   43455      47   43449   43452      49   43449
   43455      49   43464   43467      47   43461   43464      49   43461   43467
      49   43476   43479      47   43473   43476      49   43473   43479      49
   43488   43491      47   43485   43488      49   43485   43491      49   43500
   43503      47   43497   43500      49   43497   43503      49   43512   43515
      47   43509   43512      49   43509   43515      49   43524   43527      47
   43521   43524      49   43521   43527      49   43536   43539      47   43533
   43536      49   43533   43539      49   43548   43551      47   43545   43548
      49   43545   43551      49   43560   43563      47   43557   43560      49
   43557   43563      49   43572   43575      47   43569   43572      49   43569
   43575      49   43584   43587      47   43581   43584      49   43581   43587
      49   43596   43599      47   43593   43596      49   43593   43599      49
   43608   43611      47   43605   43608      49   43605   43611      49   43620
   43623      47   43617   43620      49   43617   43623      49   43632   43635
      47   43629   43632      49   43629   43635      49   43644   43647      47
   43641   43644      49   43641   43647      49   43656   43659      47   43653
   43656      49   43653   43659      49   43668   43671      47   43665   43668
      49   43665   43671      49   43680   43683      47   43677   43680      49
   43677   43683      49   43692   43695      47   43689   43692      49   43689
   43695      49   43704   43707      47   43701   43704      49   43701   43707
      49   43716   43719      47   43713   43716      49   43713   43719      49
   43728   43731      47   43725   43728      49   43725   43731      49   43740
   43743      47   43737   43740      49   43737   43743      49   43752   43755
      47   43749   43752      49   43749   43755      49   43764   43767      47
   43761   43764      49   43761   43767      49   43776   43779      47   43773
   43776      49   43773   43779      49   43788   43791      47   43785   43788
      49   43785   43791      49   43800   43803      47   43797   43800      49
   43797   43803      49   43812   43815      47   43809   43812      49   43809
   43815      49   43824   43827      47   43821   43824      49   43821   43827
      49   43836   43839      47   43833   43836      49   43833   43839      49
   43848   43851      47   43845   43848      49   43845   43851      49   43860
   43863      47   43857   43860      49   43857   43863      49   43872   43875
      47   43869   43872      49   43869   43875      49   43884   43887      47
   43881   43884      49   43881   43887      49   43896   43899      47   43893
   43896      49   43893   43899      49   43908   43911      47   43905   43908
      49   43905   43911      49   43920   43923      47   43917   43920      49
   43917   43923      49   43932   43935      47   43929   43932      49   43929
   43935      49   43944   43947      47   43941   43944      49   43941   43947
      49   43956   43959      47   43953   43956      49   43953   43959      49
   43968   43971      47   43965   43968      49   43965   43971      49   43980
   43983      47   43977   43980      49   43977   43983      49   43992   43995
      47   43989   43992      49   43989   43995      49   44004   44007      47
   44001   44004      49   44001   44007      49   44016   44019      47   44013
   44016      49   44013   44019      49   44028   44031      47   44025   44028
      49   44025   44031      49   44040   44043      47   44037   44040      49
   44037   44043      49   44052   44055      47   44049   44052      49   44049
   44055      49   44064   44067      47   44061   44064      49   44061   44067
      49   44076   44079      47   44073   44076      49   44073   44079      49
   44088   44091      47   44085   44088      49   44085   44091      49   44100
   44103      47   44097   44100      49   44097   44103      49   44112   44115
      47   44109   44112      49   44109   44115      49   44124   44127      47
   44121   44124      49   44121   44127      49   44136   44139      47   44133
   44136      49   44133   44139      49   44148   44151      47   44145   44148
      49   44145   44151      49   44160   44163      47   44157   44160      49
   44157   44163      49   44172   44175      47   44169   44172      49   44169
   44175      49   44184   44187      47   44181   44184      49   44181   44187
      49   44196   44199      47   44193   44196      49   44193   44199      49
   44208   44211      47   44205   44208      49   44205   44211      49   44220
   44223      47   44217   44220      49   44217   44223      49   44232   44235
      47   44229   44232      49   44229   44235      49   44244   44247      47
   44241   44244      49   44241   44247      49   44256   44259      47   44253
   44256      49   44253   44259      49   44268   44271      47   44265   44268
      49   44265   44271      49   44280   44283      47   44277   44280      49
   44277   44283      49   44292   44295      47   44289   44292      49   44289
   44295      49   44304   44307      47   44301   44304      49   44301   44307
      49   44316   44319      47   44313   44316      49   44313   44319      49
   44328   44331      47   44325   44328      49   44325   44331      49   44340
   44343      47   44337   44340      49   44337   44343      49   44352   44355
      47   44349   44352      49   44349   44355      49   44364   44367      47
   44361   44364      49   44361   44367      49   44376   44379      47   44373
   44376      49   44373   44379      49   44388   44391      47   44385   44388
      49   44385   44391      49   44400   44403      47   44397   44400      49
   44397   44403      49   44412   44415      47   44409   44412      49   44409
   44415      49   44424   44427      47   44421   44424      49   44421   44427
      49   44436   44439      47   44433   44436      49   44433   44439      49
   44448   44451      47   44445   44448      49   44445   44451      49   44460
   44463      47   44457   44460      49   44457   44463      49   44472   44475
      47   44469   44472      49   44469   44475      49   44484   44487      47
   44481   44484      49   44481   44487      49   44496   44499      47   44493
   44496      49   44493   44499      49   44508   44511      47   44505   44508
      49   44505   44511      49   44520   44523      47   44517   44520      49
   44517   44523      49   44532   44535      47   44529   44532      49   44529
   44535      49   44544   44547      47   44541   44544      49   44541   44547
      49   44556   44559      47   44553   44556      49   44553   44559      49
   44568   44571      47   44565   44568      49   44565   44571      49   44580
   44583      47   44577   44580      49   44577   44583      49   44592   44595
      47   44589   44592      49   44589   44595      49   44604   44607      47
   44601   44604      49   44601   44607      49   44616   44619      47   44613
   44616      49   44613   44619      49   44628   44631      47   44625   44628
      49   44625   44631      49   44640   44643      47   44637   44640      49
   44637   44643      49   44652   44655      47   44649   44652      49   44649
   44655      49   44664   44667      47   44661   44664      49   44661   44667
      49   44676   44679      47   44673   44676      49   44673   44679      49
   44688   44691      47   44685   44688      49   44685   44691      49   44700
   44703      47   44697   44700      49   44697   44703      49   44712   44715
      47   44709   44712      49   44709   44715      49   44724   44727      47
   44721   44724      49   44721   44727      49   44736   44739      47   44733
   44736      49   44733   44739      49   44748   44751      47   44745   44748
      49   44745   44751      49   44760   44763      47   44757   44760      49
   44757   44763      49   44772   44775      47   44769   44772      49   44769
   44775      49   44784   44787      47   44781   44784      49   44781   44787
      49   44796   44799      47   44793   44796      49   44793   44799      49
   44808   44811      47   44805   44808      49   44805   44811      49   44820
   44823      47   44817   44820      49   44817   44823      49   44832   44835
      47   44829   44832      49   44829   44835      49   44844   44847      47
   44841   44844      49   44841   44847      49   44856   44859      47   44853
   44856      49   44853   44859      49   44868   44871      47   44865   44868
      49   44865   44871      49   44880   44883      47   44877   44880      49
   44877   44883      49   44892   44895      47   44889   44892      49   44889
   44895      49   44904   44907      47   44901   44904      49   44901   44907
      49   44916   44919      47   44913   44916      49   44913   44919      49
   44928   44931      47   44925   44928      49   44925   44931      49   44940
   44943      47   44937   44940      49   44937   44943      49   44952   44955
      47   44949   44952      49   44949   44955      49   44964   44967      47
   44961   44964      49   44961   44967      49   44976   44979      47   44973
   44976      49   44973   44979      49   44988   44991      47   44985   44988
      49   44985   44991      49   45000   45003      47   44997   45000      49
   44997   45003      49   45012   45015      47   45009   45012      49   45009
   45015      49   45024   45027      47   45021   45024      49   45021   45027
      49   45036   45039      47   45033   45036      49   45033   45039      49
   45048   45051      47   45045   45048      49   45045   45051      49   45060
   45063      47   45057   45060      49   45057   45063      49   45072   45075
      47   45069   45072      49   45069   45075      49   45084   45087      47
   45081   45084      49   45081   45087      49   45096   45099      47   45093
   45096      49   45093   45099      49   45108   45111      47   45105   45108
      49   45105   45111      49   45120   45123      47   45117   45120      49
   45117   45123      49   45132   45135      47   45129   45132      49   45129
   45135      49   45144   45147      47   45141   45144      49   45141   45147
      49   45156   45159      47   45153   45156      49   45153   45159      49
   45168   45171      47   45165   45168      49   45165   45171      49   45180
   45183      47   45177   45180      49   45177   45183      49   45192   45195
      47   45189   45192      49   45189   45195      49   45204   45207      47
   45201   45204      49   45201   45207      49   45216   45219      47   45213
   45216      49   45213   45219      49   45228   45231      47   45225   45228
      49   45225   45231      49   45240   45243      47   45237   45240      49
   45237   45243      49   45252   45255      47   45249   45252      49   45249
   45255      49   45264   45267      47   45261   45264      49   45261   45267
      49   45276   45279      47   45273   45276      49   45273   45279      49
   45288   45291      47   45285   45288      49   45285   45291      49   45300
   45303      47   45297   45300      49   45297   45303      49   45312   45315
      47   45309   45312      49   45309   45315      49   45324   45327      47
   45321   45324      49   45321   45327      49   45336   45339      47   45333
   45336      49   45333   45339      49   45348   45351      47   45345   45348
      49   45345   45351      49   45360   45363      47   45357   45360      49
   45357   45363      49   45372   45375      47   45369   45372      49   45369
   45375      49   45384   45387      47   45381   45384      49   45381   45387
      49   45396   45399      47   45393   45396      49   45393   45399      49
   45408   45411      47   45405   45408      49   45405   45411      49   45420
   45423      47   45417   45420      49   45417   45423      49   45432   45435
      47   45429   45432      49   45429   45435      49   45444   45447      47
   45441   45444      49   45441   45447      49   45456   45459      47   45453
   45456      49   45453   45459      49   45468   45471      47   45465   45468
      49   45465   45471      49   45480   45483      47   45477   45480      49
   45477   45483      49   45492   45495      47   45489   45492      49   45489
   45495      49   45504   45507      47   45501   45504      49   45501   45507
      49   45516   45519      47   45513   45516      49   45513   45519      49
   45528   45531      47   45525   45528      49   45525   45531      49   45540
   45543      47   45537   45540      49   45537   45543      49   45552   45555
      47   45549   45552      49   45549   45555      49   45564   45567      47
   45561   45564      49   45561   45567      49   45576   45579      47   45573
   45576      49   45573   45579      49   45588   45591      47   45585   45588
      49   45585   45591      49   45600   45603      47   45597   45600      49
   45597   45603      49   45612   45615      47   45609   45612      49   45609
   45615      49   45624   45627      47   45621   45624      49   45621   45627
      49   45636   45639      47   45633   45636      49   45633   45639      49
   45648   45651      47   45645   45648      49   45645   45651      49   45660
   45663      47   45657   45660      49   45657   45663      49   45672   45675
      47   45669   45672      49   45669   45675      49   45684   45687      47
   45681   45684      49   45681   45687      49   45696   45699      47   45693
   45696      49   45693   45699      49   45708   45711      47   45705   45708
      49   45705   45711      49   45720   45723      47   45717   45720      49
   45717   45723      49   45732   45735      47   45729   45732      49   45729
   45735      49   45744   45747      47   45741   45744      49   45741   45747
      49   45756   45759      47   45753   45756      49   45753   45759      49
   45768   45771      47   45765   45768      49   45765   45771      49   45780
   45783      47   45777   45780      49   45777   45783      49   45792   45795
      47   45789   45792      49   45789   45795      49   45804   45807      47
   45801   45804      49   45801   45807      49   45816   45819      47   45813
   45816      49   45813   45819      49   45828   45831      47   45825   45828
      49   45825   45831      49   45840   45843      47   45837   45840      49
   45837   45843      49   45852   45855      47   45849   45852      49   45849
   45855      49   45864   45867      47   45861   45864      49   45861   45867
      49   45876   45879      47   45873   45876      49   45873   45879      49
   45888   45891      47   45885   45888      49   45885   45891      49   45900
   45903      47   45897   45900      49   45897   45903      49   45912   45915
      47   45909   45912      49   45909   45915      49   45924   45927      47
   45921   45924      49   45921   45927      49   45936   45939      47   45933
   45936      49   45933   45939      49   45948   45951      47   45945   45948
      49   45945   45951      49   45960   45963      47   45957   45960      49
   45957   45963      49   45972   45975      47   45969   45972      49   45969
   45975      49   45984   45987      47   45981   45984      49   45981   45987
      49   45996   45999      47   45993   45996      49   45993   45999      49
   46008   46011      47   46005   46008      49   46005   46011      49   46020
   46023      47   46017   46020      49   46017   46023      49   46032   46035
      47   46029   46032      49   46029   46035      49   46044   46047      47
   46041   46044      49   46041   46047      49   46056   46059      47   46053
   46056      49   46053   46059      49   46068   46071      47   46065   46068
      49   46065   46071      49   46080   46083      47   46077   46080      49
   46077   46083      49   46092   46095      47   46089   46092      49   46089
   46095      49   46104   46107      47   46101   46104      49   46101   46107
      49   46116   46119      47   46113   46116      49   46113   46119      49
   46128   46131      47   46125   46128      49   46125   46131      49   46140
   46143      47   46137   46140      49   46137   46143      49   46152   46155
      47   46149   46152      49   46149   46155      49   46164   46167      47
   46161   46164      49   46161   46167      49   46176   46179      47   46173
   46176      49   46173   46179      49   46188   46191      47   46185   46188
      49   46185   46191      49   46200   46203      47   46197   46200      49
   46197   46203      49   46212   46215      47   46209   46212      49   46209
   46215      49   46224   46227      47   46221   46224      49   46221   46227
      49   46236   46239      47   46233   46236      49   46233   46239      49
   46248   46251      47   46245   46248      49   46245   46251      49   46260
   46263      47   46257   46260      49   46257   46263      49   46272   46275
      47   46269   46272      49   46269   46275      49   46284   46287      47
   46281   46284      49   46281   46287      49   46296   46299      47   46293
   46296      49   46293   46299      49   46308   46311      47   46305   46308
      49   46305   46311      49   46320   46323      47   46317   46320      49
   46317   46323      49   46332   46335      47   46329   46332      49   46329
   46335      49   46344   46347      47   46341   46344      49   46341   46347
      49   46356   46359      47   46353   46356      49   46353   46359      49
   46368   46371      47   46365   46368      49   46365   46371      49   46380
   46383      47   46377   46380      49   46377   46383      49   46392   46395
      47   46389   46392      49   46389   46395      49   46404   46407      47
   46401   46404      49   46401   46407      49   46416   46419      47   46413
   46416      49   46413   46419      49   46428   46431      47   46425   46428
      49   46425   46431      49   46440   46443      47   46437   46440      49
   46437   46443      49   46452   46455      47   46449   46452      49   46449
   46455      49   46464   46467      47   46461   46464      49   46461   46467
      49   46476   46479      47   46473   46476      49   46473   46479      49
   46488   46491      47   46485   46488      49   46485   46491      49   46500
   46503      47   46497   46500      49   46497   46503      49   46512   46515
      47   46509   46512      49   46509   46515      49   46524   46527      47
   46521   46524      49   46521   46527      49   46536   46539      47   46533
   46536      49   46533   46539      49   46548   46551      47   46545   46548
      49   46545   46551      49   46560   46563      47   46557   46560      49
   46557   46563      49   46572   46575      47   46569   46572      49   46569
   46575      49   46584   46587      47   46581   46584      49   46581   46587
      49   46596   46599      47   46593   46596      49   46593   46599      49
   46608   46611      47   46605   46608      49   46605   46611      49   46620
   46623      47   46617   46620      49   46617   46623      49   46632   46635
      47   46629   46632      49   46629   46635      49   46644   46647      47
   46641   46644      49   46641   46647      49   46656   46659      47   46653
   46656      49   46653   46659      49   46668   46671      47   46665   46668
      49   46665   46671      49   46680   46683      47   46677   46680      49
   46677   46683      49   46692   46695      47   46689   46692      49   46689
   46695      49   46704   46707      47   46701   46704      49   46701   46707
      49   46716   46719      47   46713   46716      49   46713   46719      49
   46728   46731      47   46725   46728      49   46725   46731      49   46740
   46743      47   46737   46740      49   46737   46743      49   46752   46755
      47   46749   46752      49   46749   46755      49   46764   46767      47
   46761   46764      49   46761   46767      49   46776   46779      47   46773
   46776      49   46773   46779      49   46788   46791      47   46785   46788
      49   46785   46791      49   46800   46803      47   46797   46800      49
   46797   46803      49   46812   46815      47   46809   46812      49   46809
   46815      49   46824   46827      47   46821   46824      49   46821   46827
      49   46836   46839      47   46833   46836      49   46833   46839      49
   46848   46851      47   46845   46848      49   46845   46851      49   46860
   46863      47   46857   46860      49   46857   46863      49   46872   46875
      47   46869   46872      49   46869   46875      49   46884   46887      47
   46881   46884      49   46881   46887      49   46896   46899      47   46893
   46896      49   46893   46899      49   46908   46911      47   46905   46908
      49   46905   46911      49   46920   46923      47   46917   46920      49
   46917   46923      49   46932   46935      47   46929   46932      49   46929
   46935      49   46944   46947      47   46941   46944      49   46941   46947
      49   46956   46959      47   46953   46956      49   46953   46959      49
   46968   46971      47   46965   46968      49   46965   46971      49   46980
   46983      47   46977   46980      49   46977   46983      49   46992   46995
      47   46989   46992      49   46989   46995      49   47004   47007      47
   47001   47004      49   47001   47007      49   47016   47019      47   47013
   47016      49   47013   47019      49   47028   47031      47   47025   47028
      49   47025   47031      49   47040   47043      47   47037   47040      49
   47037   47043      49   47052   47055      47   47049   47052      49   47049
   47055      49   47064   47067      47   47061   47064      49   47061   47067
      49   47076   47079      47   47073   47076      49   47073   47079      49
   47088   47091      47   47085   47088      49   47085   47091      49   47100
   47103      47   47097   47100      49   47097   47103      49   47112   47115
      47   47109   47112      49   47109   47115      49   47124   47127      47
   47121   47124      49   47121   47127      49   47136   47139      47   47133
   47136      49   47133   47139      49   47148   47151      47   47145   47148
      49   47145   47151      49   47160   47163      47   47157   47160      49
   47157   47163      49   47172   47175      47   47169   47172      49   47169
   47175      49   47184   47187      47   47181   47184      49   47181   47187
      49   47196   47199      47   47193   47196      49   47193   47199      49
   47208   47211      47   47205   47208      49   47205   47211      49   47220
   47223      47   47217   47220      49   47217   47223      49   47232   47235
      47   47229   47232      49   47229   47235      49   47244   47247      47
   47241   47244      49   47241   47247      49   47256   47259      47   47253
   47256      49   47253   47259      49   47268   47271      47   47265   47268
      49   47265   47271      49   47280   47283      47   47277   47280      49
   47277   47283      49   47292   47295      47   47289   47292      49   47289
   47295      49   47304   47307      47   47301   47304      49   47301   47307
      49   47316   47319      47   47313   47316      49   47313   47319      49
   47328   47331      47   47325   47328      49   47325   47331      49   47340
   47343      47   47337   47340      49   47337   47343      49   47352   47355
      47   47349   47352      49   47349   47355      49   47364   47367      47
   47361   47364      49   47361   47367      49   47376   47379      47   47373
   47376      49   47373   47379      49   47388   47391      47   47385   47388
      49   47385   47391      49   47400   47403      47   47397   47400      49
   47397   47403      49   47412   47415      47   47409   47412      49   47409
   47415      49   47424   47427      47   47421   47424      49   47421   47427
      49   47436   47439      47   47433   47436      49   47433   47439      49
   47448   47451      47   47445   47448      49   47445   47451      49   47460
   47463      47   47457   47460      49   47457   47463      49   47472   47475
      47   47469   47472      49   47469   47475      49   47484   47487      47
   47481   47484      49   47481   47487      49   47496   47499      47   47493
   47496      49   47493   47499      49   47508   47511      47   47505   47508
      49   47505   47511      49   47520   47523      47   47517   47520      49
   47517   47523      49   47532   47535      47   47529   47532      49   47529
   47535      49   47544   47547      47   47541   47544      49   47541   47547
      49   47556   47559      47   47553   47556      49   47553   47559      49
   47568   47571      47   47565   47568      49   47565   47571      49   47580
   47583      47   47577   47580      49   47577   47583      49   47592   47595
      47   47589   47592      49   47589   47595      49   47604   47607      47
   47601   47604      49   47601   47607      49   47616   47619      47   47613
   47616      49   47613   47619      49   47628   47631      47   47625   47628
      49   47625   47631      49   47640   47643      47   47637   47640      49
   47637   47643      49   47652   47655      47   47649   47652      49   47649
   47655      49   47664   47667      47   47661   47664      49   47661   47667
      49   47676   47679      47   47673   47676      49   47673   47679      49
   47688   47691      47   47685   47688      49   47685   47691      49   47700
   47703      47   47697   47700      49   47697   47703      49   47712   47715
      47   47709   47712      49   47709   47715      49   47724   47727      47
   47721   47724      49   47721   47727      49   47736   47739      47   47733
   47736      49   47733   47739      49   47748   47751      47   47745   47748
      49   47745   47751      49   47760   47763      47   47757   47760      49
   47757   47763      49   47772   47775      47   47769   47772      49   47769
   47775      49   47784   47787      47   47781   47784      49   47781   47787
      49   47796   47799      47   47793   47796      49   47793   47799      49
   47808   47811      47   47805   47808      49   47805   47811      49   47820
   47823      47   47817   47820      49   47817   47823      49   47832   47835
      47   47829   47832      49   47829   47835      49   47844   47847      47
   47841   47844      49   47841   47847      49   47856   47859      47   47853
   47856      49   47853   47859      49   47868   47871      47   47865   47868
      49   47865   47871      49   47880   47883      47   47877   47880      49
   47877   47883      49   47892   47895      47   47889   47892      49   47889
   47895      49   47904   47907      47   47901   47904      49   47901   47907
      49   47916   47919      47   47913   47916      49   47913   47919      49
   47928   47931      47   47925   47928      49   47925   47931      49   47940
   47943      47   47937   47940      49   47937   47943      49   47952   47955
      47   47949   47952      49   47949   47955      49   47964   47967      47
   47961   47964      49   47961   47967      49   47976   47979      47   47973
   47976      49   47973   47979      49   47988   47991      47   47985   47988
      49   47985   47991      49   48000   48003      47   47997   48000      49
   47997   48003      49   48012   48015      47   48009   48012      49   48009
   48015      49   48024   48027      47   48021   48024      49   48021   48027
      49   48036   48039      47   48033   48036      49   48033   48039      49
   48048   48051      47   48045   48048      49   48045   48051      49   48060
   48063      47   48057   48060      49   48057   48063      49   48072   48075
      47   48069   48072      49   48069   48075      49   48084   48087      47
   48081   48084      49   48081   48087      49   48096   48099      47   48093
   48096      49   48093   48099      49   48108   48111      47   48105   48108
      49   48105   48111      49   48120   48123      47   48117   48120      49
   48117   48123      49   48132   48135      47   48129   48132      49   48129
   48135      49   48144   48147      47   48141   48144      49   48141   48147
      49   48156   48159      47   48153   48156      49   48153   48159      49
   48168   48171      47   48165   48168      49   48165   48171      49   48180
   48183      47   48177   48180      49   48177   48183      49   48192   48195
      47   48189   48192      49   48189   48195      49   48204   48207      47
   48201   48204      49   48201   48207      49   48216   48219      47   48213
   48216      49   48213   48219      49   48228   48231      47   48225   48228
      49   48225   48231      49   48240   48243      47   48237   48240      49
   48237   48243      49   48252   48255      47   48249   48252      49   48249
   48255      49   48264   48267      47   48261   48264      49   48261   48267
      49   48276   48279      47   48273   48276      49   48273   48279      49
   48288   48291      47   48285   48288      49   48285   48291      49   48300
   48303      47   48297   48300      49   48297   48303      49   48312   48315
      47   48309   48312      49   48309   48315      49   48324   48327      47
   48321   48324      49   48321   48327      49   48336   48339      47   48333
   48336      49   48333   48339      49   48348   48351      47   48345   48348
      49   48345   48351      49   48360   48363      47   48357   48360      49
   48357   48363      49   48372   48375      47   48369   48372      49   48369
   48375      49   48384   48387      47   48381   48384      49   48381   48387
      49   48396   48399      47   48393   48396      49   48393   48399      49
   48408   48411      47   48405   48408      49   48405   48411      49   48420
   48423      47   48417   48420      49   48417   48423      49   48432   48435
      47   48429   48432      49   48429   48435      49   48444   48447      47
   48441   48444      49   48441   48447      49   48456   48459      47   48453
   48456      49   48453   48459      49   48468   48471      47   48465   48468
      49   48465   48471      49   48480   48483      47   48477   48480      49
   48477   48483      49   48492   48495      47   48489   48492      49   48489
   48495      49   48504   48507      47   48501   48504      49   48501   48507
      49   48516   48519      47   48513   48516      49   48513   48519      49
   48528   48531      47   48525   48528      49   48525   48531      49   48540
   48543      47   48537   48540      49   48537   48543      49   48552   48555
      47   48549   48552      49   48549   48555      49   48564   48567      47
   48561   48564      49   48561   48567      49   48576   48579      47   48573
   48576      49   48573   48579      49   48588   48591      47   48585   48588
      49   48585   48591      49   48600   48603      47   48597   48600      49
   48597   48603      49   48612   48615      47   48609   48612      49   48609
   48615      49   48624   48627      47   48621   48624      49   48621   48627
      49   48636   48639      47   48633   48636      49   48633   48639      49
   48648   48651      47   48645   48648      49   48645   48651      49   48660
   48663      47   48657   48660      49   48657   48663      49   48672   48675
      47   48669   48672      49   48669   48675      49   48684   48687      47
   48681   48684      49   48681   48687      49   48696   48699      47   48693
   48696      49   48693   48699      49   48708   48711      47   48705   48708
      49   48705   48711      49   48720   48723      47   48717   48720      49
   48717   48723      49   48732   48735      47   48729   48732      49   48729
   48735      49   48744   48747      47   48741   48744      49   48741   48747
      49   48756   48759      47   48753   48756      49   48753   48759      49
   48768   48771      47   48765   48768      49   48765   48771      49   48780
   48783      47   48777   48780      49   48777   48783      49   48792   48795
      47   48789   48792      49   48789   48795      49   48804   48807      47
   48801   48804      49   48801   48807      49   48816   48819      47   48813
   48816      49   48813   48819      49   48828   48831      47   48825   48828
      49   48825   48831      49   48840   48843      47   48837   48840      49
   48837   48843      49   48852   48855      47   48849   48852      49   48849
   48855      49   48864   48867      47   48861   48864      49   48861   48867
      49   48876   48879      47   48873   48876      49   48873   48879      49
   48888   48891      47   48885   48888      49   48885   48891      49   48900
   48903      47   48897   48900      49   48897   48903      49   48912   48915
      47   48909   48912      49   48909   48915      49   48924   48927      47
   48921   48924      49   48921   48927      49   48936   48939      47   48933
   48936      49   48933   48939      49   48948   48951      47   48945   48948
      49   48945   48951      49   48960   48963      47   48957   48960      49
   48957   48963      49   48972   48975      47   48969   48972      49   48969
   48975      49   48984   48987      47   48981   48984      49   48981   48987
      49   48996   48999      47   48993   48996      49   48993   48999      49
   49008   49011      47   49005   49008      49   49005   49011      49   49020
   49023      47   49017   49020      49   49017   49023      49   49032   49035
      47   49029   49032      49   49029   49035      49   49044   49047      47
   49041   49044      49   49041   49047      49   49056   49059      47   49053
   49056      49   49053   49059      49   49068   49071      47   49065   49068
      49   49065   49071      49   49080   49083      47   49077   49080      49
   49077   49083      49   49092   49095      47   49089   49092      49   49089
   49095      49   49104   49107      47   49101   49104      49   49101   49107
      49   49116   49119      47   49113   49116      49   49113   49119      49
   49128   49131      47   49125   49128      49   49125   49131      49   49140
   49143      47   49137   49140      49   49137   49143      49   49152   49155
      47   49149   49152      49   49149   49155      49   49164   49167      47
   49161   49164      49   49161   49167      49   49176   49179      47   49173
   49176      49   49173   49179      49   49188   49191      47   49185   49188
      49   49185   49191      49   49200   49203      47   49197   49200      49
   49197   49203      49   49212   49215      47   49209   49212      49   49209
   49215      49   49224   49227      47   49221   49224      49   49221   49227
      49   49236   49239      47   49233   49236      49   49233   49239      49
   49248   49251      47   49245   49248      49   49245   49251      49   49260
   49263      47   49257   49260      49   49257   49263      49   49272   49275
      47   49269   49272      49   49269   49275      49   49284   49287      47
   49281   49284      49   49281   49287      49   49296   49299      47   49293
   49296      49   49293   49299      49   49308   49311      47   49305   49308
      49   49305   49311      49   49320   49323      47   49317   49320      49
   49317   49323      49   49332   49335      47   49329   49332      49   49329
   49335      49   49344   49347      47   49341   49344      49   49341   49347
      49   49356   49359      47   49353   49356      49   49353   49359      49
   49368   49371      47   49365   49368      49   49365   49371      49   49380
   49383      47   49377   49380      49   49377   49383      49   49392   49395
      47   49389   49392      49   49389   49395      49   49404   49407      47
   49401   49404      49   49401   49407      49   49416   49419      47   49413
   49416      49   49413   49419      49   49428   49431      47   49425   49428
      49   49425   49431      49   49440   49443      47   49437   49440      49
   49437   49443      49   49452   49455      47   49449   49452      49   49449
   49455      49   49464   49467      47   49461   49464      49   49461   49467
      49   49476   49479      47   49473   49476      49   49473   49479      49
   49488   49491      47   49485   49488      49   49485   49491      49   49500
   49503      47   49497   49500      49   49497   49503      49   49512   49515
      47   49509   49512      49   49509   49515      49   49524   49527      47
   49521   49524      49   49521   49527      49   49536   49539      47   49533
   49536      49   49533   49539      49   49548   49551      47   49545   49548
      49   49545   49551      49   49560   49563      47   49557   49560      49
   49557   49563      49   49572   49575      47   49569   49572      49   49569
   49575      49   49584   49587      47   49581   49584      49   49581   49587
      49   49596   49599      47   49593   49596      49   49593   49599      49
   49608   49611      47   49605   49608      49   49605   49611      49   49620
   49623      47   49617   49620      49   49617   49623      49   49632   49635
      47   49629   49632      49   49629   49635      49   49644   49647      47
   49641   49644      49   49641   49647      49   49656   49659      47   49653
   49656      49   49653   49659      49   49668   49671      47   49665   49668
      49   49665   49671      49   49680   49683      47   49677   49680      49
   49677   49683      49   49692   49695      47   49689   49692      49   49689
   49695      49   49704   49707      47   49701   49704      49   49701   49707
      49   49716   49719      47   49713   49716      49   49713   49719      49
   49728   49731      47   49725   49728      49   49725   49731      49   49740
   49743      47   49737   49740      49   49737   49743      49   49752   49755
      47   49749   49752      49   49749   49755      49   49764   49767      47
   49761   49764      49   49761   49767      49   49776   49779      47   49773
   49776      49   49773   49779      49   49788   49791      47   49785   49788
      49   49785   49791      49   49800   49803      47   49797   49800      49
   49797   49803      49   49812   49815      47   49809   49812      49   49809
   49815      49   49824   49827      47   49821   49824      49   49821   49827
      49   49836   49839      47   49833   49836      49   49833   49839      49
   49848   49851      47   49845   49848      49   49845   49851      49   49860
   49863      47   49857   49860      49   49857   49863      49   49872   49875
      47   49869   49872      49   49869   49875      49   49884   49887      47
   49881   49884      49   49881   49887      49   49896   49899      47   49893
   49896      49   49893   49899      49   49908   49911      47   49905   49908
      49   49905   49911      49   49920   49923      47   49917   49920      49
   49917   49923      49   49932   49935      47   49929   49932      49   49929
   49935      49   49944   49947      47   49941   49944      49   49941   49947
      49   49956   49959      47   49953   49956      49   49953   49959      49
   49968   49971      47   49965   49968      49   49965   49971      49   49980
   49983      47   49977   49980      49   49977   49983      49   49992   49995
      47   49989   49992      49   49989   49995      49   50004   50007      47
   50001   50004      49   50001   50007      49   50016   50019      47   50013
   50016      49   50013   50019      49   50028   50031      47   50025   50028
      49   50025   50031      49   50040   50043      47   50037   50040      49
   50037   50043      49   50052   50055      47   50049   50052      49   50049
   50055      49   50064   50067      47   50061   50064      49   50061   50067
      49   50076   50079      47   50073   50076      49   50073   50079      49
   50088   50091      47   50085   50088      49   50085   50091      49   50100
   50103      47   50097   50100      49   50097   50103      49   50112   50115
      47   50109   50112      49   50109   50115      49   50124   50127      47
   50121   50124      49   50121   50127      49   50136   50139      47   50133
   50136      49   50133   50139      49   50148   50151      47   50145   50148
      49   50145   50151      49   50160   50163      47   50157   50160      49
   50157   50163      49   50172   50175      47   50169   50172      49   50169
   50175      49   50184   50187      47   50181   50184      49   50181   50187
      49   50196   50199      47   50193   50196      49   50193   50199      49
   50208   50211      47   50205   50208      49   50205   50211      49   50220
   50223      47   50217   50220      49   50217   50223      49   50232   50235
      47   50229   50232      49   50229   50235      49   50244   50247      47
   50241   50244      49   50241   50247      49   50256   50259      47   50253
   50256      49   50253   50259      49   50268   50271      47   50265   50268
      49   50265   50271      49   50280   50283      47   50277   50280      49
   50277   50283      49   50292   50295      47   50289   50292      49   50289
   50295      49   50304   50307      47   50301   50304      49   50301   50307
      49   50316   50319      47   50313   50316      49   50313   50319      49
   50328   50331      47   50325   50328      49   50325   50331      49   50340
   50343      47   50337   50340      49   50337   50343      49   50352   50355
      47   50349   50352      49   50349   50355      49   50364   50367      47
   50361   50364      49   50361   50367      49   50376   50379      47   50373
   50376      49   50373   50379      49   50388   50391      47   50385   50388
      49   50385   50391      49   50400   50403      47   50397   50400      49
   50397   50403      49   50412   50415      47   50409   50412      49   50409
   50415      49   50424   50427      47   50421   50424      49   50421   50427
      49   50436   50439      47   50433   50436      49   50433   50439      49
   50448   50451      47   50445   50448      49   50445   50451      49   50460
   50463      47   50457   50460      49   50457   50463      49   50472   50475
      47   50469   50472      49   50469   50475      49   50484   50487      47
   50481   50484      49   50481   50487      49   50496   50499      47   50493
   50496      49   50493   50499      49   50508   50511      47   50505   50508
      49   50505   50511      49   50520   50523      47   50517   50520      49
   50517   50523      49   50532   50535      47   50529   50532      49   50529
   50535      49   50544   50547      47   50541   50544      49   50541   50547
      49   50556   50559      47   50553   50556      49   50553   50559      49
   50568   50571      47   50565   50568      49   50565   50571      49   50580
   50583      47   50577   50580      49   50577   50583      49   50592   50595
      47   50589   50592      49   50589   50595      49   50604   50607      47
   50601   50604      49   50601   50607      49   50616   50619      47   50613
   50616      49   50613   50619      49   50628   50631      47   50625   50628
      49   50625   50631      49   50640   50643      47   50637   50640      49
   50637   50643      49   50652   50655      47   50649   50652      49   50649
   50655      49   50664   50667      47   50661   50664      49   50661   50667
      49   50676   50679      47   50673   50676      49   50673   50679      49
   50688   50691      47   50685   50688      49   50685   50691      49   50700
   50703      47   50697   50700      49   50697   50703      49   50712   50715
      47   50709   50712      49   50709   50715      49   50724   50727      47
   50721   50724      49   50721   50727      49   50736   50739      47   50733
   50736      49   50733   50739      49   50748   50751      47   50745   50748
      49   50745   50751      49   50760   50763      47   50757   50760      49
   50757   50763      49   50772   50775      47   50769   50772      49   50769
   50775      49   50784   50787      47   50781   50784      49   50781   50787
      49   50796   50799      47   50793   50796      49   50793   50799      49
   50808   50811      47   50805   50808      49   50805   50811      49   50820
   50823      47   50817   50820      49   50817   50823      49   50832   50835
      47   50829   50832      49   50829   50835      49   50844   50847      47
   50841   50844      49   50841   50847      49   50856   50859      47   50853
   50856      49   50853   50859      49   50868   50871      47   50865   50868
      49   50865   50871      49   50880   50883      47   50877   50880      49
   50877   50883      49   50892   50895      47   50889   50892      49   50889
   50895      49   50904   50907      47   50901   50904      49   50901   50907
      49   50916   50919      47   50913   50916      49   50913   50919      49
   50928   50931      47   50925   50928      49   50925   50931      49   50940
   50943      47   50937   50940      49   50937   50943      49   50952   50955
      47   50949   50952      49   50949   50955      49   50964   50967      47
   50961   50964      49   50961   50967      49   50976   50979      47   50973
   50976      49   50973   50979      49   50988   50991      47   50985   50988
      49   50985   50991      49   51000   51003      47   50997   51000      49
   50997   51003      49   51012   51015      47   51009   51012      49   51009
   51015      49   51024   51027      47   51021   51024      49   51021   51027
      49   51036   51039      47   51033   51036      49   51033   51039      49
   51048   51051      47   51045   51048      49   51045   51051      49   51060
   51063      47   51057   51060      49   51057   51063      49   51072   51075
      47   51069   51072      49   51069   51075      49   51084   51087      47
   51081   51084      49   51081   51087      49   51096   51099      47   51093
   51096      49   51093   51099      49   51108   51111      47   51105   51108
      49   51105   51111      49   51120   51123      47   51117   51120      49
   51117   51123      49   51132   51135      47   51129   51132      49   51129
   51135      49   51144   51147      47   51141   51144      49   51141   51147
      49   51156   51159      47   51153   51156      49   51153   51159      49
   51168   51171      47   51165   51168      49   51165   51171      49   51180
   51183      47   51177   51180      49   51177   51183      49   51192   51195
      47   51189   51192      49   51189   51195      49   51204   51207      47
   51201   51204      49   51201   51207      49   51216   51219      47   51213
   51216      49   51213   51219      49   51228   51231      47   51225   51228
      49   51225   51231      49   51240   51243      47   51237   51240      49
   51237   51243      49   51252   51255      47   51249   51252      49   51249
   51255      49   51264   51267      47   51261   51264      49   51261   51267
      49   51276   51279      47   51273   51276      49   51273   51279      49
   51288   51291      47   51285   51288      49   51285   51291      49   51300
   51303      47   51297   51300      49   51297   51303      49   51312   51315
      47   51309   51312      49   51309   51315      49   51324   51327      47
   51321   51324      49   51321   51327      49   51336   51339      47   51333
   51336      49   51333   51339      49   51348   51351      47   51345   51348
      49   51345   51351      49   51360   51363      47   51357   51360      49
   51357   51363      49   51372   51375      47   51369   51372      49   51369
   51375      49   51384   51387      47   51381   51384      49   51381   51387
      49   51396   51399      47   51393   51396      49   51393   51399      49
   51408   51411      47   51405   51408      49   51405   51411      49   51420
   51423      47   51417   51420      49   51417   51423      49   51432   51435
      47   51429   51432      49   51429   51435      49   51444   51447      47
   51441   51444      49   51441   51447      49   51456   51459      47   51453
   51456      49   51453   51459      49   51468   51471      47   51465   51468
      49   51465   51471      49   51480   51483      47   51477   51480      49
   51477   51483      49   51492   51495      47   51489   51492      49   51489
   51495      49   51504   51507      47   51501   51504      49   51501   51507
      49   51516   51519      47   51513   51516      49   51513   51519      49
   51528   51531      47   51525   51528      49   51525   51531      49   51540
   51543      47   51537   51540      49   51537   51543      49   51552   51555
      47   51549   51552      49   51549   51555      49   51564   51567      47
   51561   51564      49   51561   51567      49   51576   51579      47   51573
   51576      49   51573   51579      49   51588   51591      47   51585   51588
      49   51585   51591      49   51600   51603      47   51597   51600      49
   51597   51603      49   51612   51615      47   51609   51612      49   51609
   51615      49   51624   51627      47   51621   51624      49   51621   51627
      49   51636   51639      47   51633   51636      49   51633   51639      49
   51648   51651      47   51645   51648      49   51645   51651      49   51660
   51663      47   51657   51660      49   51657   51663      49   51672   51675
      47   51669   51672      49   51669   51675      49   51684   51687      47
   51681   51684      49   51681   51687      49   51696   51699      47   51693
   51696      49   51693   51699      49   51708   51711      47   51705   51708
      49   51705   51711      49   51720   51723      47   51717   51720      49
   51717   51723      49   51732   51735      47   51729   51732      49   51729
   51735      49   51744   51747      47   51741   51744      49   51741   51747
      49   51756   51759      47   51753   51756      49   51753   51759      49
   51768   51771      47   51765   51768      49   51765   51771      49   51780
   51783      47   51777   51780      49   51777   51783      49   51792   51795
      47   51789   51792      49   51789   51795      49   51804   51807      47
   51801   51804      49   51801   51807      49   51816   51819      47   51813
   51816      49   51813   51819      49   51828   51831      47   51825   51828
      49   51825   51831      49   51840   51843      47   51837   51840      49
   51837   51843      49   51852   51855      47   51849   51852      49   51849
   51855      49   51864   51867      47   51861   51864      49   51861   51867
      49   51876   51879      47   51873   51876      49   51873   51879      49
   51888   51891      47   51885   51888      49   51885   51891      49   51900
   51903      47   51897   51900      49   51897   51903      49   51912   51915
      47   51909   51912      49   51909   51915      49   51924   51927      47
   51921   51924      49   51921   51927      49   51936   51939      47   51933
   51936      49   51933   51939      49   51948   51951      47   51945   51948
      49   51945   51951      49   51960   51963      47   51957   51960      49
   51957   51963      49   51972   51975      47   51969   51972      49   51969
   51975      49   51984   51987      47   51981   51984      49   51981   51987
      49   51996   51999      47   51993   51996      49   51993   51999      49
   52008   52011      47   52005   52008      49   52005   52011      49   52020
   52023      47   52017   52020      49   52017   52023      49   52032   52035
      47   52029   52032      49   52029   52035      49   52044   52047      47
   52041   52044      49   52041   52047      49   52056   52059      47   52053
   52056      49   52053   52059      49   52068   52071      47   52065   52068
      49   52065   52071      49   52080   52083      47   52077   52080      49
   52077   52083      49   52092   52095      47   52089   52092      49   52089
   52095      49   52104   52107      47   52101   52104      49   52101   52107
      49   52116   52119      47   52113   52116      49   52113   52119      49
   52128   52131      47   52125   52128      49   52125   52131      49   52140
   52143      47   52137   52140      49   52137   52143      49   52152   52155
      47   52149   52152      49   52149   52155      49   52164   52167      47
   52161   52164      49   52161   52167      49   52176   52179      47   52173
   52176      49   52173   52179      49   52188   52191      47   52185   52188
      49   52185   52191      49   52200   52203      47   52197   52200      49
   52197   52203      49   52212   52215      47   52209   52212      49   52209
   52215      49   52224   52227      47   52221   52224      49   52221   52227
      49   52236   52239      47   52233   52236      49   52233   52239      49
   52248   52251      47   52245   52248      49   52245   52251      49   52260
   52263      47   52257   52260      49   52257   52263      49   52272   52275
      47   52269   52272      49   52269   52275      49   52284   52287      47
   52281   52284      49   52281   52287      49   52296   52299      47   52293
   52296      49   52293   52299      49   52308   52311      47   52305   52308
      49   52305   52311      49   52320   52323      47   52317   52320      49
   52317   52323      49   52332   52335      47   52329   52332      49   52329
   52335      49   52344   52347      47   52341   52344      49   52341   52347
      49   52356   52359      47   52353   52356      49   52353   52359      49
   52368   52371      47   52365   52368      49   52365   52371      49   52380
   52383      47   52377   52380      49   52377   52383      49   52392   52395
      47   52389   52392      49   52389   52395      49   52404   52407      47
   52401   52404      49   52401   52407      49   52416   52419      47   52413
   52416      49   52413   52419      49   52428   52431      47   52425   52428
      49   52425   52431      49   52440   52443      47   52437   52440      49
   52437   52443      49   52452   52455      47   52449   52452      49   52449
   52455      49   52464   52467      47   52461   52464      49   52461   52467
      49   52476   52479      47   52473   52476      49   52473   52479      49
   52488   52491      47   52485   52488      49   52485   52491      49   52500
   52503      47   52497   52500      49   52497   52503      49   52512   52515
      47   52509   52512      49   52509   52515      49   52524   52527      47
   52521   52524      49   52521   52527      49   52536   52539      47   52533
   52536      49   52533   52539      49   52548   52551      47   52545   52548
      49   52545   52551      49   52560   52563      47   52557   52560      49
   52557   52563      49   52572   52575      47   52569   52572      49   52569
   52575      49   52584   52587      47   52581   52584      49   52581   52587
      49   52596   52599      47   52593   52596      49   52593   52599      49
   52608   52611      47   52605   52608      49   52605   52611      49   52620
   52623      47   52617   52620      49   52617   52623      49   52632   52635
      47   52629   52632      49   52629   52635      49   52644   52647      47
   52641   52644      49   52641   52647      49   52656   52659      47   52653
   52656      49   52653   52659      49   52668   52671      47   52665   52668
      49   52665   52671      49   52680   52683      47   52677   52680      49
   52677   52683      49   52692   52695      47   52689   52692      49   52689
   52695      49   52704   52707      47   52701   52704      49   52701   52707
      49   52716   52719      47   52713   52716      49   52713   52719      49
   52728   52731      47   52725   52728      49   52725   52731      49   52740
   52743      47   52737   52740      49   52737   52743      49   52752   52755
      47   52749   52752      49   52749   52755      49   52764   52767      47
   52761   52764      49   52761   52767      49   52776   52779      47   52773
   52776      49   52773   52779      49   52788   52791      47   52785   52788
      49   52785   52791      49   52800   52803      47   52797   52800      49
   52797   52803      49   52812   52815      47   52809   52812      49   52809
   52815      49   52824   52827      47   52821   52824      49   52821   52827
      49   52836   52839      47   52833   52836      49   52833   52839      49
   52848   52851      47   52845   52848      49   52845   52851      49   52860
   52863      47   52857   52860      49   52857   52863      49   52872   52875
      47   52869   52872      49   52869   52875      49   52884   52887      47
   52881   52884      49   52881   52887      49   52896   52899      47   52893
   52896      49   52893   52899      49   52908   52911      47   52905   52908
      49   52905   52911      49   52920   52923      47   52917   52920      49
   52917   52923      49   52932   52935      47   52929   52932      49   52929
   52935      49   52944   52947      47   52941   52944      49   52941   52947
      49   52956   52959      47   52953   52956      49   52953   52959      49
   52968   52971      47   52965   52968      49   52965   52971      49   52980
   52983      47   52977   52980      49   52977   52983      49   52992   52995
      47   52989   52992      49   52989   52995      49   53004   53007      47
   53001   53004      49   53001   53007      49   53016   53019      47   53013
   53016      49   53013   53019      49   53028   53031      47   53025   53028
      49   53025   53031      49   53040   53043      47   53037   53040      49
   53037   53043      49   53052   53055      47   53049   53052      49   53049
   53055      49   53064   53067      47   53061   53064      49   53061   53067
      49   53076   53079      47   53073   53076      49   53073   53079      49
   53088   53091      47   53085   53088      49   53085   53091      49   53100
   53103      47   53097   53100      49   53097   53103      49   53112   53115
      47   53109   53112      49   53109   53115      49   53124   53127      47
   53121   53124      49   53121   53127      49   53136   53139      47   53133
   53136      49   53133   53139      49   53148   53151      47   53145   53148
      49   53145   53151      49   53160   53163      47   53157   53160      49
   53157   53163      49   53172   53175      47   53169   53172      49   53169
   53175      49   53184   53187      47   53181   53184      49   53181   53187
      49   53196   53199      47   53193   53196      49   53193   53199      49
   53208   53211      47   53205   53208      49   53205   53211      49   53220
   53223      47   53217   53220      49   53217   53223      49   53232   53235
      47   53229   53232      49   53229   53235      49   53244   53247      47
   53241   53244      49   53241   53247      49   53256   53259      47   53253
   53256      49   53253   53259      49   53268   53271      47   53265   53268
      49   53265   53271      49   53280   53283      47   53277   53280      49
   53277   53283      49   53292   53295      47   53289   53292      49   53289
   53295      49   53304   53307      47   53301   53304      49   53301   53307
      49   53316   53319      47   53313   53316      49   53313   53319      49
   53328   53331      47   53325   53328      49   53325   53331      49   53340
   53343      47   53337   53340      49   53337   53343      49   53352   53355
      47   53349   53352      49   53349   53355      49   53364   53367      47
   53361   53364      49   53361   53367      49   53376   53379      47   53373
   53376      49   53373   53379      49   53388   53391      47   53385   53388
      49   53385   53391      49   53400   53403      47   53397   53400      49
   53397   53403      49   53412   53415      47   53409   53412      49   53409
   53415      49   53424   53427      47   53421   53424      49   53421   53427
      49   53436   53439      47   53433   53436      49   53433   53439      49
   53448   53451      47   53445   53448      49   53445   53451      49   53460
   53463      47   53457   53460      49   53457   53463      49   53472   53475
      47   53469   53472      49   53469   53475      49   53484   53487      47
   53481   53484      49   53481   53487      49   53496   53499      47   53493
   53496      49   53493   53499      49   53508   53511      47   53505   53508
      49   53505   53511      49   53520   53523      47   53517   53520      49
   53517   53523      49   53532   53535      47   53529   53532      49   53529
   53535      49   53544   53547      47   53541   53544      49   53541   53547
      49   53556   53559      47   53553   53556      49   53553   53559      49
   53568   53571      47   53565   53568      49   53565   53571      49   53580
   53583      47   53577   53580      49   53577   53583      49   53592   53595
      47   53589   53592      49   53589   53595      49   53604   53607      47
   53601   53604      49   53601   53607      49   53616   53619      47   53613
   53616      49   53613   53619      49   53628   53631      47   53625   53628
      49   53625   53631      49   53640   53643      47   53637   53640      49
   53637   53643      49   53652   53655      47   53649   53652      49   53649
   53655      49   53664   53667      47   53661   53664      49   53661   53667
      49   53676   53679      47   53673   53676      49   53673   53679      49
   53688   53691      47   53685   53688      49   53685   53691      49   53700
   53703      47   53697   53700      49   53697   53703      49   53712   53715
      47   53709   53712      49   53709   53715      49   53724   53727      47
   53721   53724      49   53721   53727      49   53736   53739      47   53733
   53736      49   53733   53739      49   53748   53751      47   53745   53748
      49   53745   53751      49   53760   53763      47   53757   53760      49
   53757   53763      49   53772   53775      47   53769   53772      49   53769
   53775      49   53784   53787      47   53781   53784      49   53781   53787
      49   53796   53799      47   53793   53796      49   53793   53799      49
   53808   53811      47   53805   53808      49   53805   53811      49   53820
   53823      47   53817   53820      49   53817   53823      49   53832   53835
      47   53829   53832      49   53829   53835      49   53844   53847      47
   53841   53844      49   53841   53847      49   53856   53859      47   53853
   53856      49   53853   53859      49   53868   53871      47   53865   53868
      49   53865   53871      49   53880   53883      47   53877   53880      49
   53877   53883      49   53892   53895      47   53889   53892      49   53889
   53895      49   53904   53907      47   53901   53904      49   53901   53907
      49   53916   53919      47   53913   53916      49   53913   53919      49
   53928   53931      47   53925   53928      49   53925   53931      49   53940
   53943      47   53937   53940      49   53937   53943      49   53952   53955
      47   53949   53952      49   53949   53955      49   53964   53967      47
   53961   53964      49   53961   53967      49   53976   53979      47   53973
   53976      49   53973   53979      49   53988   53991      47   53985   53988
      49   53985   53991      49   54000   54003      47   53997   54000      49
   53997   54003      49   54012   54015      47   54009   54012      49   54009
   54015      49   54024   54027      47   54021   54024      49   54021   54027
      49   54036   54039      47   54033   54036      49   54033   54039      49
   54048   54051      47   54045   54048      49   54045   54051      49   54060
   54063      47   54057   54060      49   54057   54063      49   54072   54075
      47   54069   54072      49   54069   54075      49   54084   54087      47
   54081   54084      49   54081   54087      49   54096   54099      47   54093
   54096      49   54093   54099      49   54108   54111      47   54105   54108
      49   54105   54111      49   54120   54123      47   54117   54120      49
   54117   54123      49   54132   54135      47   54129   54132      49   54129
   54135      49   54144   54147      47   54141   54144      49   54141   54147
      49   54156   54159      47   54153   54156      49   54153   54159      49
   54168   54171      47   54165   54168      49   54165   54171      49   54180
   54183      47   54177   54180      49   54177   54183      49   54192   54195
      47   54189   54192      49   54189   54195      49   54204   54207      47
   54201   54204      49   54201   54207      49   54216   54219      47   54213
   54216      49   54213   54219      49   54228   54231      47   54225   54228
      49   54225   54231      49   54240   54243      47   54237   54240      49
   54237   54243      49   54252   54255      47   54249   54252      49   54249
   54255      49   54264   54267      47   54261   54264      49   54261   54267
      49   54276   54279      47   54273   54276      49   54273   54279      49
   54288   54291      47   54285   54288      49   54285   54291      49   54300
   54303      47   54297   54300      49   54297   54303      49   54312   54315
      47   54309   54312      49   54309   54315      49   54324   54327      47
   54321   54324      49   54321   54327      49   54336   54339      47   54333
   54336      49   54333   54339      49   54348   54351      47   54345   54348
      49   54345   54351      49   54360   54363      47   54357   54360      49
   54357   54363      49   54372   54375      47   54369   54372      49   54369
   54375      49   54384   54387      47   54381   54384      49   54381   54387
      49   54396   54399      47   54393   54396      49   54393   54399      49
   54408   54411      47   54405   54408      49   54405   54411      49   54420
   54423      47   54417   54420      49   54417   54423      49   54432   54435
      47   54429   54432      49   54429   54435      49   54444   54447      47
   54441   54444      49   54441   54447      49   54456   54459      47   54453
   54456      49   54453   54459      49   54468   54471      47   54465   54468
      49   54465   54471      49   54480   54483      47   54477   54480      49
   54477   54483      49   54492   54495      47   54489   54492      49   54489
   54495      49   54504   54507      47   54501   54504      49   54501   54507
      49   54516   54519      47   54513   54516      49   54513   54519      49
   54528   54531      47   54525   54528      49   54525   54531      49   54540
   54543      47   54537   54540      49   54537   54543      49   54552   54555
      47   54549   54552      49   54549   54555      49   54564   54567      47
   54561   54564      49   54561   54567      49   54576   54579      47   54573
   54576      49   54573   54579      49   54588   54591      47   54585   54588
      49   54585   54591      49   54600   54603      47   54597   54600      49
   54597   54603      49   54612   54615      47   54609   54612      49   54609
   54615      49   54624   54627      47   54621   54624      49   54621   54627
      49   54636   54639      47   54633   54636      49   54633   54639      49
   54648   54651      47   54645   54648      49   54645   54651      49   54660
   54663      47   54657   54660      49   54657   54663      49   54672   54675
      47   54669   54672      49   54669   54675      49   54684   54687      47
   54681   54684      49   54681   54687      49   54696   54699      47   54693
   54696      49   54693   54699      49   54708   54711      47   54705   54708
      49   54705   54711      49   54720   54723      47   54717   54720      49
   54717   54723      49   54732   54735      47   54729   54732      49   54729
   54735      49   54744   54747      47   54741   54744      49   54741   54747
      49   54756   54759      47   54753   54756      49   54753   54759      49
   54768   54771      47   54765   54768      49   54765   54771      49   54780
   54783      47   54777   54780      49   54777   54783      49   54792   54795
      47   54789   54792      49   54789   54795      49   54804   54807      47
   54801   54804      49   54801   54807      49   54816   54819      47   54813
   54816      49   54813   54819      49   54828   54831      47   54825   54828
      49   54825   54831      49   54840   54843      47   54837   54840      49
   54837   54843      49   54852   54855      47   54849   54852      49   54849
   54855      49   54864   54867      47   54861   54864      49   54861   54867
      49   54876   54879      47   54873   54876      49   54873   54879      49
   54888   54891      47   54885   54888      49   54885   54891      49   54900
   54903      47   54897   54900      49   54897   54903      49   54912   54915
      47   54909   54912      49   54909   54915      49   54924   54927      47
   54921   54924      49   54921   54927      49   54936   54939      47   54933
   54936      49   54933   54939      49   54948   54951      47   54945   54948
      49   54945   54951      49   54960   54963      47   54957   54960      49
   54957   54963      49   54972   54975      47   54969   54972      49   54969
   54975      49   54984   54987      47   54981   54984      49   54981   54987
      49   54996   54999      47   54993   54996      49   54993   54999      49
   55008   55011      47   55005   55008      49   55005   55011      49   55020
   55023      47   55017   55020      49   55017   55023      49   55032   55035
      47   55029   55032      49   55029   55035      49   55044   55047      47
   55041   55044      49   55041   55047      49   55056   55059      47   55053
   55056      49   55053   55059      49   55068   55071      47   55065   55068
      49   55065   55071      49   55080   55083      47   55077   55080      49
   55077   55083      49   55092   55095      47   55089   55092      49   55089
   55095      49   55104   55107      47   55101   55104      49   55101   55107
      49   55116   55119      47   55113   55116      49   55113   55119      49
   55128   55131      47   55125   55128      49   55125   55131      49   55140
   55143      47   55137   55140      49   55137   55143      49   55152   55155
      47   55149   55152      49   55149   55155      49   55164   55167      47
   55161   55164      49   55161   55167      49   55176   55179      47   55173
   55176      49   55173   55179      49   55188   55191      47   55185   55188
      49   55185   55191      49   55200   55203      47   55197   55200      49
   55197   55203      49   55212   55215      47   55209   55212      49   55209
   55215      49   55224   55227      47   55221   55224      49   55221   55227
      49   55236   55239      47   55233   55236      49   55233   55239      49
   55248   55251      47   55245   55248      49   55245   55251      49   55260
   55263      47   55257   55260      49   55257   55263      49   55272   55275
      47   55269   55272      49   55269   55275      49   55284   55287      47
   55281   55284      49   55281   55287      49   55296   55299      47   55293
   55296      49   55293   55299      49   55308   55311      47   55305   55308
      49   55305   55311      49   55320   55323      47   55317   55320      49
   55317   55323      49   55332   55335      47   55329   55332      49   55329
   55335      49   55344   55347      47   55341   55344      49   55341   55347
      49   55356   55359      47   55353   55356      49   55353   55359      49
   55368   55371      47   55365   55368      49   55365   55371      49   55380
   55383      47   55377   55380      49   55377   55383      49   55392   55395
      47   55389   55392      49   55389   55395      49   55404   55407      47
   55401   55404      49   55401   55407      49   55416   55419      47   55413
   55416      49   55413   55419      49   55428   55431      47   55425   55428
      49   55425   55431      49   55440   55443      47   55437   55440      49
   55437   55443      49   55452   55455      47   55449   55452      49   55449
   55455      49   55464   55467      47   55461   55464      49   55461   55467
      49   55476   55479      47   55473   55476      49   55473   55479      49
   55488   55491      47   55485   55488      49   55485   55491      49   55500
   55503      47   55497   55500      49   55497   55503      49   55512   55515
      47   55509   55512      49   55509   55515      49   55524   55527      47
   55521   55524      49   55521   55527      49   55536   55539      47   55533
   55536      49   55533   55539      49   55548   55551      47   55545   55548
      49   55545   55551      49   55560   55563      47   55557   55560      49
   55557   55563      49   55572   55575      47   55569   55572      49   55569
   55575      49   55584   55587      47   55581   55584      49   55581   55587
      49   55596   55599      47   55593   55596      49   55593   55599      49
   55608   55611      47   55605   55608      49   55605   55611      49   55620
   55623      47   55617   55620      49   55617   55623      49   55632   55635
      47   55629   55632      49   55629   55635      49   55644   55647      47
   55641   55644      49   55641   55647      49   55656   55659      47   55653
   55656      49   55653   55659      49   55668   55671      47   55665   55668
      49   55665   55671      49   55680   55683      47   55677   55680      49
   55677   55683      49   55692   55695      47   55689   55692      49   55689
   55695      49   55704   55707      47   55701   55704      49   55701   55707
      49   55716   55719      47   55713   55716      49   55713   55719      49
   55728   55731      47   55725   55728      49   55725   55731      49   55740
   55743      47   55737   55740      49   55737   55743      49   55752   55755
      47   55749   55752      49   55749   55755      49   55764   55767      47
   55761   55764      49   55761   55767      49   55776   55779      47   55773
   55776      49   55773   55779      49   55788   55791      47   55785   55788
      49   55785   55791      49   55800   55803      47   55797   55800      49
   55797   55803      49   55812   55815      47   55809   55812      49   55809
   55815      49   55824   55827      47   55821   55824      49   55821   55827
      49   55836   55839      47   55833   55836      49   55833   55839      49
   55848   55851      47   55845   55848      49   55845   55851      49   55860
   55863      47   55857   55860      49   55857   55863      49   55872   55875
      47   55869   55872      49   55869   55875      49   55884   55887      47
   55881   55884      49   55881   55887      49   55896   55899      47   55893
   55896      49   55893   55899      49   55908   55911      47   55905   55908
      49   55905   55911      49   55920   55923      47   55917   55920      49
   55917   55923      49   55932   55935      47   55929   55932      49   55929
   55935      49   55944   55947      47   55941   55944      49   55941   55947
      49   55956   55959      47   55953   55956      49   55953   55959      49
   55968   55971      47   55965   55968      49   55965   55971      49   55980
   55983      47   55977   55980      49   55977   55983      49   55992   55995
      47   55989   55992      49   55989   55995      49   56004   56007      47
   56001   56004      49   56001   56007      49   56016   56019      47   56013
   56016      49   56013   56019      49   56028   56031      47   56025   56028
      49   56025   56031      49   56040   56043      47   56037   56040      49
   56037   56043      49   56052   56055      47   56049   56052      49   56049
   56055      49   56064   56067      47   56061   56064      49   56061   56067
      49   56076   56079      47   56073   56076      49   56073   56079      49
   56088   56091      47   56085   56088      49   56085   56091      49   56100
   56103      47   56097   56100      49   56097   56103      49   56112   56115
      47   56109   56112      49   56109   56115      49   56124   56127      47
   56121   56124      49   56121   56127      49   56136   56139      47   56133
   56136      49   56133   56139      49   56148   56151      47   56145   56148
      49   56145   56151      49   56160   56163      47   56157   56160      49
   56157   56163      49   56172   56175      47   56169   56172      49   56169
   56175      49   56184   56187      47   56181   56184      49   56181   56187
      49   56196   56199      47   56193   56196      49   56193   56199      49
   56208   56211      47   56205   56208      49   56205   56211      49   56220
   56223      47   56217   56220      49   56217   56223      49   56232   56235
      47   56229   56232      49   56229   56235      49   56244   56247      47
   56241   56244      49   56241   56247      49   56256   56259      47   56253
   56256      49   56253   56259      49   56268   56271      47   56265   56268
      49   56265   56271      49   56280   56283      47   56277   56280      49
   56277   56283      49   56292   56295      47   56289   56292      49   56289
   56295      49   56304   56307      47   56301   56304      49   56301   56307
      49   56316   56319      47   56313   56316      49   56313   56319      49
   56328   56331      47   56325   56328      49   56325   56331      49   56340
   56343      47   56337   56340      49   56337   56343      49   56352   56355
      47   56349   56352      49   56349   56355      49   56364   56367      47
   56361   56364      49   56361   56367      49   56376   56379      47   56373
   56376      49   56373   56379      49   56388   56391      47   56385   56388
      49   56385   56391      49   56400   56403      47   56397   56400      49
   56397   56403      49   56412   56415      47   56409   56412      49   56409
   56415      49   56424   56427      47   56421   56424      49   56421   56427
      49   56436   56439      47   56433   56436      49   56433   56439      49
   56448   56451      47   56445   56448      49   56445   56451      49   56460
   56463      47   56457   56460      49   56457   56463      49   56472   56475
      47   56469   56472      49   56469   56475      49   56484   56487      47
   56481   56484      49   56481   56487      49   56496   56499      47   56493
   56496      49   56493   56499      49   56508   56511      47   56505   56508
      49   56505   56511      49   56520   56523      47   56517   56520      49
   56517   56523      49   56532   56535      47   56529   56532      49   56529
   56535      49   56544   56547      47   56541   56544      49   56541   56547
      49   56556   56559      47   56553   56556      49   56553   56559      49
   56568   56571      47   56565   56568      49   56565   56571      49   56580
   56583      47   56577   56580      49   56577   56583      49   56592   56595
      47   56589   56592      49   56589   56595      49   56604   56607      47
   56601   56604      49   56601   56607      49   56616   56619      47   56613
   56616      49   56613   56619      49   56628   56631      47   56625   56628
      49   56625   56631      49   56640   56643      47   56637   56640      49
   56637   56643      49   56652   56655      47   56649   56652      49   56649
   56655      49   56664   56667      47   56661   56664      49   56661   56667
      49   56676   56679      47   56673   56676      49   56673   56679      49
   56688   56691      47   56685   56688      49   56685   56691      49   56700
   56703      47   56697   56700      49   56697   56703      49   56712   56715
      47   56709   56712      49   56709   56715      49   56724   56727      47
   56721   56724      49   56721   56727      49   56736   56739      47   56733
   56736      49   56733   56739      49   56748   56751      47   56745   56748
      49   56745   56751      49   56760   56763      47   56757   56760      49
   56757   56763      49   56772   56775      47   56769   56772      49   56769
   56775      49   56784   56787      47   56781   56784      49   56781   56787
      49   56796   56799      47   56793   56796      49   56793   56799      49
   56808   56811      47   56805   56808      49   56805   56811      49   56820
   56823      47   56817   56820      49   56817   56823      49   56832   56835
      47   56829   56832      49   56829   56835      49   56844   56847      47
   56841   56844      49   56841   56847      49   56856   56859      47   56853
   56856      49   56853   56859      49   56868   56871      47   56865   56868
      49   56865   56871      49   56880   56883      47   56877   56880      49
   56877   56883      49   56892   56895      47   56889   56892      49   56889
   56895      49   56904   56907      47   56901   56904      49   56901   56907
      49   56916   56919      47   56913   56916      49   56913   56919      49
   56928   56931      47   56925   56928      49   56925   56931      49   56940
   56943      47   56937   56940      49   56937   56943      49   56952   56955
      47   56949   56952      49   56949   56955      49   56964   56967      47
   56961   56964      49   56961   56967      49   56976   56979      47   56973
   56976      49   56973   56979      49   56988   56991      47   56985   56988
      49   56985   56991      49   57000   57003      47   56997   57000      49
   56997   57003      49   57012   57015      47   57009   57012      49   57009
   57015      49   57024   57027      47   57021   57024      49   57021   57027
      49   57036   57039      47   57033   57036      49   57033   57039      49
   57048   57051      47   57045   57048      49   57045   57051      49   57060
   57063      47   57057   57060      49   57057   57063      49   57072   57075
      47   57069   57072      49   57069   57075      49   57084   57087      47
   57081   57084      49   57081   57087      49   57096   57099      47   57093
   57096      49   57093   57099      49   57108   57111      47   57105   57108
      49   57105   57111      49   57120   57123      47   57117   57120      49
   57117   57123      49   57132   57135      47   57129   57132      49   57129
   57135      49   57144   57147      47   57141   57144      49   57141   57147
      49   57156   57159      47   57153   57156      49   57153   57159      49
   57168   57171      47   57165   57168      49   57165   57171      49   57180
   57183      47   57177   57180      49   57177   57183      49   57192   57195
      47   57189   57192      49   57189   57195      49   57204   57207      47
   57201   57204      49   57201   57207      49   57216   57219      47   57213
   57216      49   57213   57219      49   57228   57231      47   57225   57228
      49   57225   57231      49   57240   57243      47   57237   57240      49
   57237   57243      49   57252   57255      47   57249   57252      49   57249
   57255      49   57264   57267      47   57261   57264      49   57261   57267
      49   57276   57279      47   57273   57276      49   57273   57279      49
   57288   57291      47   57285   57288      49   57285   57291      49   57300
   57303      47   57297   57300      49   57297   57303      49   57312   57315
      47   57309   57312      49   57309   57315      49   57324   57327      47
   57321   57324      49   57321   57327      49   57336   57339      47   57333
   57336      49   57333   57339      49   57348   57351      47   57345   57348
      49   57345   57351      49   57360   57363      47   57357   57360      49
   57357   57363      49   57372   57375      47   57369   57372      49   57369
   57375      49   57384   57387      47   57381   57384      49   57381   57387
      49   57396   57399      47   57393   57396      49   57393   57399      49
   57408   57411      47   57405   57408      49   57405   57411      49   57420
   57423      47   57417   57420      49   57417   57423      49   57432   57435
      47   57429   57432      49   57429   57435      49   57444   57447      47
   57441   57444      49   57441   57447      49   57456   57459      47   57453
   57456      49   57453   57459      49   57468   57471      47   57465   57468
      49   57465   57471      49   57480   57483      47   57477   57480      49
   57477   57483      49   57492   57495      47   57489   57492      49   57489
   57495      49   57504   57507      47   57501   57504      49   57501   57507
      49   57516   57519      47   57513   57516      49   57513   57519      49
   57528   57531      47   57525   57528      49   57525   57531      49   57540
   57543      47   57537   57540      49   57537   57543      49   57552   57555
      47   57549   57552      49   57549   57555      49   57564   57567      47
   57561   57564      49   57561   57567      49   57576   57579      47   57573
   57576      49   57573   57579      49   57588   57591      47   57585   57588
      49   57585   57591      49   57600   57603      47   57597   57600      49
   57597   57603      49   57612   57615      47   57609   57612      49   57609
   57615      49   57624   57627      47   57621   57624      49   57621   57627
      49   57636   57639      47   57633   57636      49   57633   57639      49
   57648   57651      47   57645   57648      49   57645   57651      49   57660
   57663      47   57657   57660      49   57657   57663      49   57672   57675
      47   57669   57672      49   57669   57675      49   57684   57687      47
   57681   57684      49   57681   57687      49   57696   57699      47   57693
   57696      49   57693   57699      49   57708   57711      47   57705   57708
      49   57705   57711      49   57720   57723      47   57717   57720      49
   57717   57723      49   57732   57735      47   57729   57732      49   57729
   57735      49   57744   57747      47   57741   57744      49   57741   57747
      49   57756   57759      47   57753   57756      49   57753   57759      49
   57768   57771      47   57765   57768      49   57765   57771      49   57780
   57783      47   57777   57780      49   57777   57783      49   57792   57795
      47   57789   57792      49   57789   57795      49   57804   57807      47
   57801   57804      49   57801   57807      49   57816   57819      47   57813
   57816      49   57813   57819      49   57828   57831      47   57825   57828
      49   57825   57831      49   57840   57843      47   57837   57840      49
   57837   57843      49   57852   57855      47   57849   57852      49   57849
   57855      49   57864   57867      47   57861   57864      49   57861   57867
      49   57876   57879      47   57873   57876      49   57873   57879      49
   57888   57891      47   57885   57888      49   57885   57891      49   57900
   57903      47   57897   57900      49   57897   57903      49   57912   57915
      47   57909   57912      49   57909   57915      49   57924   57927      47
   57921   57924      49   57921   57927      49   57936   57939      47   57933
   57936      49   57933   57939      49   57948   57951      47   57945   57948
      49   57945   57951      49   57960   57963      47   57957   57960      49
   57957   57963      49   57972   57975      47   57969   57972      49   57969
   57975      49   57984   57987      47   57981   57984      49   57981   57987
      49   57996   57999      47   57993   57996      49   57993   57999      49
   58008   58011      47   58005   58008      49   58005   58011      49   58020
   58023      47   58017   58020      49   58017   58023      49   58032   58035
      47   58029   58032      49   58029   58035      49   58044   58047      47
   58041   58044      49   58041   58047      49   58056   58059      47   58053
   58056      49   58053   58059      49   58068   58071      47   58065   58068
      49   58065   58071      49   58080   58083      47   58077   58080      49
   58077   58083      49   58092   58095      47   58089   58092      49   58089
   58095      49   58104   58107      47   58101   58104      49   58101   58107
      49   58116   58119      47   58113   58116      49   58113   58119      49
   58128   58131      47   58125   58128      49   58125   58131      49   58140
   58143      47   58137   58140      49   58137   58143      49   58152   58155
      47   58149   58152      49   58149   58155      49   58164   58167      47
   58161   58164      49   58161   58167      49   58176   58179      47   58173
   58176      49   58173   58179      49   58188   58191      47   58185   58188
      49   58185   58191      49   58200   58203      47   58197   58200      49
   58197   58203      49   58212   58215      47   58209   58212      49   58209
   58215      49   58224   58227      47   58221   58224      49   58221   58227
      49   58236   58239      47   58233   58236      49   58233   58239      49
   58248   58251      47   58245   58248      49   58245   58251      49   58260
   58263      47   58257   58260      49   58257   58263      49   58272   58275
      47   58269   58272      49   58269   58275      49   58284   58287      47
   58281   58284      49   58281   58287      49   58296   58299      47   58293
   58296      49   58293   58299      49   58308   58311      47   58305   58308
      49   58305   58311      49   58320   58323      47   58317   58320      49
   58317   58323      49   58332   58335      47   58329   58332      49   58329
   58335      49   58344   58347      47   58341   58344      49   58341   58347
      49   58356   58359      47   58353   58356      49   58353   58359      49
   58368   58371      47   58365   58368      49   58365   58371      49   58380
   58383      47   58377   58380      49   58377   58383      49   58392   58395
      47   58389   58392      49   58389   58395      49   58404   58407      47
   58401   58404      49   58401   58407      49   58416   58419      47   58413
   58416      49   58413   58419      49   58428   58431      47   58425   58428
      49   58425   58431      49   58440   58443      47   58437   58440      49
   58437   58443      49   58452   58455      47   58449   58452      49   58449
   58455      49   58464   58467      47   58461   58464      49   58461   58467
      49   58476   58479      47   58473   58476      49   58473   58479      49
   58488   58491      47   58485   58488      49   58485   58491      49   58500
   58503      47   58497   58500      49   58497   58503      49   58512   58515
      47   58509   58512      49   58509   58515      49   58524   58527      47
   58521   58524      49   58521   58527      49   58536   58539      47   58533
   58536      49   58533   58539      49   58548   58551      47   58545   58548
      49   58545   58551      49   58560   58563      47   58557   58560      49
   58557   58563      49   58572   58575      47   58569   58572      49   58569
   58575      49   58584   58587      47   58581   58584      49   58581   58587
      49   58596   58599      47   58593   58596      49   58593   58599      49
   58608   58611      47   58605   58608      49   58605   58611      49   58620
   58623      47   58617   58620      49   58617   58623      49   58632   58635
      47   58629   58632      49   58629   58635      49   58644   58647      47
   58641   58644      49   58641   58647      49   58656   58659      47   58653
   58656      49   58653   58659      49   58668   58671      47   58665   58668
      49   58665   58671      49   58680   58683      47   58677   58680      49
   58677   58683      49   58692   58695      47   58689   58692      49   58689
   58695      49   58704   58707      47   58701   58704      49   58701   58707
      49   58716   58719      47   58713   58716      49   58713   58719      49
   58728   58731      47   58725   58728      49   58725   58731      49   58740
   58743      47   58737   58740      49   58737   58743      49   58752   58755
      47   58749   58752      49   58749   58755      49   58764   58767      47
   58761   58764      49   58761   58767      49   58776   58779      47   58773
   58776      49   58773   58779      49   58788   58791      47   58785   58788
      49   58785   58791      49   58800   58803      47   58797   58800      49
   58797   58803      49   58812   58815      47   58809   58812      49   58809
   58815      49   58824   58827      47   58821   58824      49   58821   58827
      49   58836   58839      47   58833   58836      49   58833   58839      49
   58848   58851      47   58845   58848      49   58845   58851      49   58860
   58863      47   58857   58860      49   58857   58863      49   58872   58875
      47   58869   58872      49   58869   58875      49   58884   58887      47
   58881   58884      49   58881   58887      49   58896   58899      47   58893
   58896      49   58893   58899      49   58908   58911      47   58905   58908
      49   58905   58911      49   58920   58923      47   58917   58920      49
   58917   58923      49   58932   58935      47   58929   58932      49   58929
   58935      49   58944   58947      47   58941   58944      49   58941   58947
      49   58956   58959      47   58953   58956      49   58953   58959      49
   58968   58971      47   58965   58968      49   58965   58971      49   58980
   58983      47   58977   58980      49   58977   58983      49   58992   58995
      47   58989   58992      49   58989   58995      49   59004   59007      47
   59001   59004      49   59001   59007      49   59016   59019      47   59013
   59016      49   59013   59019      49   59028   59031      47   59025   59028
      49   59025   59031      49   59040   59043      47   59037   59040      49
   59037   59043      49   59052   59055      47   59049   59052      49   59049
   59055      49   59064   59067      47   59061   59064      49   59061   59067
      49   59076   59079      47   59073   59076      49   59073   59079      49
   59088   59091      47   59085   59088      49   59085   59091      49   59100
   59103      47   59097   59100      49   59097   59103      49   59112   59115
      47   59109   59112      49   59109   59115      49   59124   59127      47
   59121   59124      49   59121   59127      49   59136   59139      47   59133
   59136      49   59133   59139      49   59148   59151      47   59145   59148
      49   59145   59151      49   59160   59163      47   59157   59160      49
   59157   59163      49   59172   59175      47   59169   59172      49   59169
   59175      49   59184   59187      47   59181   59184      49   59181   59187
      49   59196   59199      47   59193   59196      49   59193   59199      49
   59208   59211      47   59205   59208      49   59205   59211      49   59220
   59223      47   59217   59220      49   59217   59223      49   59232   59235
      47   59229   59232      49   59229   59235      49   59244   59247      47
   59241   59244      49   59241   59247      49   59256   59259      47   59253
   59256      49   59253   59259      49   59268   59271      47   59265   59268
      49   59265   59271      49   59280   59283      47   59277   59280      49
   59277   59283      49   59292   59295      47   59289   59292      49   59289
   59295      49   59304   59307      47   59301   59304      49   59301   59307
      49   59316   59319      47   59313   59316      49   59313   59319      49
   59328   59331      47   59325   59328      49   59325   59331      49   59340
   59343      47   59337   59340      49   59337   59343      49   59352   59355
      47   59349   59352      49   59349   59355      49   59364   59367      47
   59361   59364      49   59361   59367      49   59376   59379      47   59373
   59376      49   59373   59379      49   59388   59391      47   59385   59388
      49   59385   59391      49   59400   59403      47   59397   59400      49
   59397   59403      49   59412   59415      47   59409   59412      49   59409
   59415      49   59424   59427      47   59421   59424      49   59421   59427
      49   59436   59439      47   59433   59436      49   59433   59439      49
   59448   59451      47   59445   59448      49   59445   59451      49   59460
   59463      47   59457   59460      49   59457   59463      49   59472   59475
      47   59469   59472      49   59469   59475      49   59484   59487      47
   59481   59484      49   59481   59487      49   59496   59499      47   59493
   59496      49   59493   59499      49   59508   59511      47   59505   59508
      49   59505   59511      49   59520   59523      47   59517   59520      49
   59517   59523      49   59532   59535      47   59529   59532      49   59529
   59535      49   59544   59547      47   59541   59544      49   59541   59547
      49   59556   59559      47   59553   59556      49   59553   59559      49
   59568   59571      47   59565   59568      49   59565   59571      49   59580
   59583      47   59577   59580      49   59577   59583      49   59592   59595
      47   59589   59592      49   59589   59595      49   59604   59607      47
   59601   59604      49   59601   59607      49   59616   59619      47   59613
   59616      49   59613   59619      49   59628   59631      47   59625   59628
      49   59625   59631      49   59640   59643      47   59637   59640      49
   59637   59643      49   59652   59655      47   59649   59652      49   59649
   59655      49   59664   59667      47   59661   59664      49   59661   59667
      49   59676   59679      47   59673   59676      49   59673   59679      49
   59688   59691      47   59685   59688      49   59685   59691      49   59700
   59703      47   59697   59700      49   59697   59703      49   59712   59715
      47   59709   59712      49   59709   59715      49   59724   59727      47
   59721   59724      49   59721   59727      49   59736   59739      47   59733
   59736      49   59733   59739      49   59748   59751      47   59745   59748
      49   59745   59751      49   59760   59763      47   59757   59760      49
   59757   59763      49   59772   59775      47   59769   59772      49   59769
   59775      49   59784   59787      47   59781   59784      49   59781   59787
      49   59796   59799      47   59793   59796      49   59793   59799      49
   59808   59811      47   59805   59808      49   59805   59811      49   59820
   59823      47   59817   59820      49   59817   59823      49   59832   59835
      47   59829   59832      49   59829   59835      49   59844   59847      47
   59841   59844      49   59841   59847      49   59856   59859      47   59853
   59856      49   59853   59859      49   59868   59871      47   59865   59868
      49   59865   59871      49   59880   59883      47   59877   59880      49
   59877   59883      49   59892   59895      47   59889   59892      49   59889
   59895      49   59904   59907      47   59901   59904      49   59901   59907
      49   59916   59919      47   59913   59916      49   59913   59919      49
   59928   59931      47   59925   59928      49   59925   59931      49   59940
   59943      47   59937   59940      49   59937   59943      49   59952   59955
      47   59949   59952      49   59949   59955      49   59964   59967      47
   59961   59964      49   59961   59967      49   59976   59979      47   59973
   59976      49   59973   59979      49   59988   59991      47   59985   59988
      49   59985   59991      49   60000   60003      47   59997   60000      49
   59997   60003      49   60012   60015      47   60009   60012      49   60009
   60015      49   60024   60027      47   60021   60024      49   60021   60027
      49   60036   60039      47   60033   60036      49   60033   60039      49
   60048   60051      47   60045   60048      49   60045   60051      49   60060
   60063      47   60057   60060      49   60057   60063      49   60072   60075
      47   60069   60072      49   60069   60075      49   60084   60087      47
   60081   60084      49   60081   60087      49   60096   60099      47   60093
   60096      49   60093   60099      49   60108   60111      47   60105   60108
      49   60105   60111      49   60120   60123      47   60117   60120      49
   60117   60123      49   60132   60135      47   60129   60132      49   60129
   60135      49   60144   60147      47   60141   60144      49   60141   60147
      49   60156   60159      47   60153   60156      49   60153   60159      49
   60168   60171      47   60165   60168      49   60165   60171      49   60180
   60183      47   60177   60180      49   60177   60183      49   60192   60195
      47   60189   60192      49   60189   60195      49   60204   60207      47
   60201   60204      49   60201   60207      49   60216   60219      47   60213
   60216      49   60213   60219      49   60228   60231      47   60225   60228
      49   60225   60231      49   60240   60243      47   60237   60240      49
   60237   60243      49   60252   60255      47   60249   60252      49   60249
   60255      49   60264   60267      47   60261   60264      49   60261   60267
      49   60276   60279      47   60273   60276      49   60273   60279      49
   60288   60291      47   60285   60288      49   60285   60291      49   60300
   60303      47   60297   60300      49   60297   60303      49   60312   60315
      47   60309   60312      49   60309   60315      49   60324   60327      47
   60321   60324      49   60321   60327      49   60336   60339      47   60333
   60336      49   60333   60339      49   60348   60351      47   60345   60348
      49   60345   60351      49   60360   60363      47   60357   60360      49
   60357   60363      49   60372   60375      47   60369   60372      49   60369
   60375      49   60384   60387      47   60381   60384      49   60381   60387
      49   60396   60399      47   60393   60396      49   60393   60399      49
   60408   60411      47   60405   60408      49   60405   60411      49   60420
   60423      47   60417   60420      49   60417   60423      49   60432   60435
      47   60429   60432      49   60429   60435      49   60444   60447      47
   60441   60444      49   60441   60447      49   60456   60459      47   60453
   60456      49   60453   60459      49   60468   60471      47   60465   60468
      49   60465   60471      49   60480   60483      47   60477   60480      49
   60477   60483      49   60492   60495      47   60489   60492      49   60489
   60495      49   60504   60507      47   60501   60504      49   60501   60507
      49   60516   60519      47   60513   60516      49   60513   60519      49
   60528   60531      47   60525   60528      49   60525   60531      49   60540
   60543      47   60537   60540      49   60537   60543      49   60552   60555
      47   60549   60552      49   60549   60555      49   60564   60567      47
   60561   60564      49   60561   60567      49   60576   60579      47   60573
   60576      49   60573   60579      49   60588   60591      47   60585   60588
      49   60585   60591      49   60600   60603      47   60597   60600      49
   60597   60603      49   60612   60615      47   60609   60612      49   60609
   60615      49   60624   60627      47   60621   60624      49   60621   60627
      49   60636   60639      47   60633   60636      49   60633   60639      49
   60648   60651      47   60645   60648      49   60645   60651      49   60660
   60663      47   60657   60660      49   60657   60663      49   60672   60675
      47   60669   60672      49   60669   60675      49   60684   60687      47
   60681   60684      49   60681   60687      49   60696   60699      47   60693
   60696      49   60693   60699      49   60708   60711      47   60705   60708
      49   60705   60711      49   60720   60723      47   60717   60720      49
   60717   60723      49   60732   60735      47   60729   60732      49   60729
   60735      49   60744   60747      47   60741   60744      49   60741   60747
      49   60756   60759      47   60753   60756      49   60753   60759      49
   60768   60771      47   60765   60768      49   60765   60771      49   60780
   60783      47   60777   60780      49   60777   60783      49   60792   60795
      47   60789   60792      49   60789   60795      49   60804   60807      47
   60801   60804      49   60801   60807      49   60816   60819      47   60813
   60816      49   60813   60819      49   60828   60831      47   60825   60828
      49   60825   60831      49   60840   60843      47   60837   60840      49
   60837   60843      49   60852   60855      47   60849   60852      49   60849
   60855      49   60864   60867      47   60861   60864      49   60861   60867
      49   60876   60879      47   60873   60876      49   60873   60879      49
   60888   60891      47   60885   60888      49   60885   60891      49   60900
   60903      47   60897   60900      49   60897   60903      49   60912   60915
      47   60909   60912      49   60909   60915      49   60924   60927      47
   60921   60924      49   60921   60927      49   60936   60939      47   60933
   60936      49   60933   60939      49   60948   60951      47   60945   60948
      49   60945   60951      49   60960   60963      47   60957   60960      49
   60957   60963      49   60972   60975      47   60969   60972      49   60969
   60975      49   60984   60987      47   60981   60984      49   60981   60987
      49   60996   60999      47   60993   60996      49   60993   60999      49
   61008   61011      47   61005   61008      49   61005   61011      49   61020
   61023      47   61017   61020      49   61017   61023      49   61032   61035
      47   61029   61032      49   61029   61035      49   61044   61047      47
   61041   61044      49   61041   61047      49   61056   61059      47   61053
   61056      49   61053   61059      49   61068   61071      47   61065   61068
      49   61065   61071      49   61080   61083      47   61077   61080      49
   61077   61083      49   61092   61095      47   61089   61092      49   61089
   61095      49   61104   61107      47   61101   61104      49   61101   61107
      49   61116   61119      47   61113   61116      49   61113   61119      49
   61128   61131      47   61125   61128      49   61125   61131      49   61140
   61143      47   61137   61140      49   61137   61143      49   61152   61155
      47   61149   61152      49   61149   61155      49   61164   61167      47
   61161   61164      49   61161   61167      49   61176   61179      47   61173
   61176      49   61173   61179      49   61188   61191      47   61185   61188
      49   61185   61191      49   61200   61203      47   61197   61200      49
   61197   61203      49   61212   61215      47   61209   61212      49   61209
   61215      49   61224   61227      47   61221   61224      49   61221   61227
      49   61236   61239      47   61233   61236      49   61233   61239      49
   61248   61251      47   61245   61248      49   61245   61251      49   61260
   61263      47   61257   61260      49   61257   61263      49   61272   61275
      47   61269   61272      49   61269   61275      49   61284   61287      47
   61281   61284      49   61281   61287      49   61296   61299      47   61293
   61296      49   61293   61299      49   61308   61311      47   61305   61308
      49   61305   61311      49   61320   61323      47   61317   61320      49
   61317   61323      49   61332   61335      47   61329   61332      49   61329
   61335      49   61344   61347      47   61341   61344      49   61341   61347
      49   61356   61359      47   61353   61356      49   61353   61359      49
   61368   61371      47   61365   61368      49   61365   61371      49   61380
   61383      47   61377   61380      49   61377   61383      49   61392   61395
      47   61389   61392      49   61389   61395      49   61404   61407      47
   61401   61404      49   61401   61407      49   61416   61419      47   61413
   61416      49   61413   61419      49   61428   61431      47   61425   61428
      49   61425   61431      49   61440   61443      47   61437   61440      49
   61437   61443      49   61452   61455      47   61449   61452      49   61449
   61455      49   61464   61467      47   61461   61464      49   61461   61467
      49   61476   61479      47   61473   61476      49   61473   61479      49
   61488   61491      47   61485   61488      49   61485   61491      49   61500
   61503      47   61497   61500      49   61497   61503      49   61512   61515
      47   61509   61512      49   61509   61515      49   61524   61527      47
   61521   61524      49   61521   61527      49   61536   61539      47   61533
   61536      49   61533   61539      49   61548   61551      47   61545   61548
      49   61545   61551      49   61560   61563      47   61557   61560      49
   61557   61563      49   61572   61575      47   61569   61572      49   61569
   61575      49   61584   61587      47   61581   61584      49   61581   61587
      49   61596   61599      47   61593   61596      49   61593   61599      49
   61608   61611      47   61605   61608      49   61605   61611      49   61620
   61623      47   61617   61620      49   61617   61623      49   61632   61635
      47   61629   61632      49   61629   61635      49   61644   61647      47
   61641   61644      49   61641   61647      49   61656   61659      47   61653
   61656      49   61653   61659      49   61668   61671      47   61665   61668
      49   61665   61671      49   61680   61683      47   61677   61680      49
   61677   61683      49   61692   61695      47   61689   61692      49   61689
   61695      49   61704   61707      47   61701   61704      49   61701   61707
      49   61716   61719      47   61713   61716      49   61713   61719      49
   61728   61731      47   61725   61728      49   61725   61731      49   61740
   61743      47   61737   61740      49   61737   61743      49   61752   61755
      47   61749   61752      49   61749   61755      49   61764   61767      47
   61761   61764      49   61761   61767      49   61776   61779      47   61773
   61776      49   61773   61779      49   61788   61791      47   61785   61788
      49   61785   61791      49   61800   61803      47   61797   61800      49
   61797   61803      49   61812   61815      47   61809   61812      49   61809
   61815      49   61824   61827      47   61821   61824      49   61821   61827
      49   61836   61839      47   61833   61836      49   61833   61839      49
   61848   61851      47   61845   61848      49   61845   61851      49   61860
   61863      47   61857   61860      49   61857   61863      49   61872   61875
      47   61869   61872      49   61869   61875      49   61884   61887      47
   61881   61884      49   61881   61887      49   61896   61899      47   61893
   61896      49   61893   61899      49   61908   61911      47   61905   61908
      49   61905   61911      49   61920   61923      47   61917   61920      49
   61917   61923      49   61932   61935      47   61929   61932      49   61929
   61935      49   61944   61947      47   61941   61944      49   61941   61947
      49   61956   61959      47   61953   61956      49   61953   61959      49
   61968   61971      47   61965   61968      49   61965   61971      49   61980
   61983      47   61977   61980      49   61977   61983      49   61992   61995
      47   61989   61992      49   61989   61995      49   62004   62007      47
   62001   62004      49   62001   62007      49   62016   62019      47   62013
   62016      49   62013   62019      49   62028   62031      47   62025   62028
      49   62025   62031      49   62040   62043      47   62037   62040      49
   62037   62043      49   62052   62055      47   62049   62052      49   62049
   62055      49   62064   62067      47   62061   62064      49   62061   62067
      49   62076   62079      47   62073   62076      49   62073   62079      49
   62088   62091      47   62085   62088      49   62085   62091      49   62100
   62103      47   62097   62100      49   62097   62103      49   62112   62115
      47   62109   62112      49   62109   62115      49   62124   62127      47
   62121   62124      49   62121   62127      49   62136   62139      47   62133
   62136      49   62133   62139      49   62148   62151      47   62145   62148
      49   62145   62151      49   62160   62163      47   62157   62160      49
   62157   62163      49   62172   62175      47   62169   62172      49   62169
   62175      49   62184   62187      47   62181   62184      49   62181   62187
      49   62196   62199      47   62193   62196      49   62193   62199      49
   62208   62211      47   62205   62208      49   62205   62211      49   62220
   62223      47   62217   62220      49   62217   62223      49   62232   62235
      47   62229   62232      49   62229   62235      49   62244   62247      47
   62241   62244      49   62241   62247      49   62256   62259      47   62253
   62256      49   62253   62259      49   62268   62271      47   62265   62268
      49   62265   62271      49   62280   62283      47   62277   62280      49
   62277   62283      49   62292   62295      47   62289   62292      49   62289
   62295      49   62304   62307      47   62301   62304      49   62301   62307
      49   62316   62319      47   62313   62316      49   62313   62319      49
   62328   62331      47   62325   62328      49   62325   62331      49   62340
   62343      47   62337   62340      49   62337   62343      49   62352   62355
      47   62349   62352      49   62349   62355      49   62364   62367      47
   62361   62364      49   62361   62367      49   62376   62379      47   62373
   62376      49   62373   62379      49   62388   62391      47   62385   62388
      49   62385   62391      49   62400   62403      47   62397   62400      49
   62397   62403      49   62412   62415      47   62409   62412      49   62409
   62415      49   62424   62427      47   62421   62424      49   62421   62427
      49   62436   62439      47   62433   62436      49   62433   62439      49
   62448   62451      47   62445   62448      49   62445   62451      49   62460
   62463      47   62457   62460      49   62457   62463      49   62472   62475
      47   62469   62472      49   62469   62475      49   62484   62487      47
   62481   62484      49   62481   62487      49   62496   62499      47   62493
   62496      49   62493   62499      49   62508   62511      47   62505   62508
      49   62505   62511      49   62520   62523      47   62517   62520      49
   62517   62523      49   62532   62535      47   62529   62532      49   62529
   62535      49   62544   62547      47   62541   62544      49   62541   62547
      49   62556   62559      47   62553   62556      49   62553   62559      49
   62568   62571      47   62565   62568      49   62565   62571      49   62580
   62583      47   62577   62580      49   62577   62583      49   62592   62595
      47   62589   62592      49   62589   62595      49   62604   62607      47
   62601   62604      49   62601   62607      49   62616   62619      47   62613
   62616      49   62613   62619      49   62628   62631      47   62625   62628
      49   62625   62631      49   62640   62643      47   62637   62640      49
   62637   62643      49   62652   62655      47   62649   62652      49   62649
   62655      49   62664   62667      47   62661   62664      49   62661   62667
      49   62676   62679      47   62673   62676      49   62673   62679      49
   62688   62691      47   62685   62688      49   62685   62691      49   62700
   62703      47   62697   62700      49   62697   62703      49   62712   62715
      47   62709   62712      49   62709   62715      49   62724   62727      47
   62721   62724      49   62721   62727      49   62736   62739      47   62733
   62736      49   62733   62739      49   62748   62751      47   62745   62748
      49   62745   62751      49   62760   62763      47   62757   62760      49
   62757   62763      49   62772   62775      47   62769   62772      49   62769
   62775      49   62784   62787      47   62781   62784      49   62781   62787
      49   62796   62799      47   62793   62796      49   62793   62799      49
   62808   62811      47   62805   62808      49   62805   62811      49   62820
   62823      47   62817   62820      49   62817   62823      49   62832   62835
      47   62829   62832      49   62829   62835      49   62844   62847      47
   62841   62844      49   62841   62847      49   62856   62859      47   62853
   62856      49   62853   62859      49   62868   62871      47   62865   62868
      49   62865   62871      49   62880   62883      47   62877   62880      49
   62877   62883      49   62892   62895      47   62889   62892      49   62889
   62895      49   62904   62907      47   62901   62904      49   62901   62907
      49   62916   62919      47   62913   62916      49   62913   62919      49
   62928   62931      47   62925   62928      49   62925   62931      49   62940
   62943      47   62937   62940      49   62937   62943      49   62952   62955
      47   62949   62952      49   62949   62955      49   62964   62967      47
   62961   62964      49   62961   62967      49   62976   62979      47   62973
   62976      49   62973   62979      49   62988   62991      47   62985   62988
      49   62985   62991      49   63000   63003      47   62997   63000      49
   62997   63003      49   63012   63015      47   63009   63012      49   63009
   63015      49   63024   63027      47   63021   63024      49   63021   63027
      49   63036   63039      47   63033   63036      49   63033   63039      49
   63048   63051      47   63045   63048      49   63045   63051      49   63060
   63063      47   63057   63060      49   63057   63063      49   63072   63075
      47   63069   63072      49   63069   63075      49   63084   63087      47
   63081   63084      49   63081   63087      49   63096   63099      47   63093
   63096      49   63093   63099      49   63108   63111      47   63105   63108
      49   63105   63111      49   63120   63123      47   63117   63120      49
   63117   63123      49   63132   63135      47   63129   63132      49   63129
   63135      49   63144   63147      47   63141   63144      49   63141   63147
      49   63156   63159      47   63153   63156      49   63153   63159      49
   63168   63171      47   63165   63168      49   63165   63171      49   63180
   63183      47   63177   63180      49   63177   63183      49   63192   63195
      47   63189   63192      49   63189   63195      49   63204   63207      47
   63201   63204      49   63201   63207      49   63216   63219      47   63213
   63216      49   63213   63219      49   63228   63231      47   63225   63228
      49   63225   63231      49   63240   63243      47   63237   63240      49
   63237   63243      49   63252   63255      47   63249   63252      49   63249
   63255      49   63264   63267      47   63261   63264      49   63261   63267
      49   63276   63279      47   63273   63276      49   63273   63279      49
   63288   63291      47   63285   63288      49   63285   63291      49   63300
   63303      47   63297   63300      49   63297   63303      49   63312   63315
      47   63309   63312      49   63309   63315      49   63324   63327      47
   63321   63324      49   63321   63327      49   63336   63339      47   63333
   63336      49   63333   63339      49   63348   63351      47   63345   63348
      49   63345   63351      49   63360   63363      47   63357   63360      49
   63357   63363      49   63372   63375      47   63369   63372      49   63369
   63375      49   63384   63387      47   63381   63384      49   63381   63387
      49   63396   63399      47   63393   63396      49   63393   63399      49
   63408   63411      47   63405   63408      49   63405   63411      49   63420
   63423      47   63417   63420      49   63417   63423      49   63432   63435
      47   63429   63432      49   63429   63435      49   63444   63447      47
   63441   63444      49   63441   63447      49   63456   63459      47   63453
   63456      49   63453   63459      49   63468   63471      47   63465   63468
      49   63465   63471      49   63480   63483      47   63477   63480      49
   63477   63483      49   63492   63495      47   63489   63492      49   63489
   63495      49   63504   63507      47   63501   63504      49   63501   63507
      49   63516   63519      47   63513   63516      49   63513   63519      49
   63528   63531      47   63525   63528      49   63525   63531      49   63540
   63543      47   63537   63540      49   63537   63543      49   63552   63555
      47   63549   63552      49   63549   63555      49   63564   63567      47
   63561   63564      49   63561   63567      49   63576   63579      47   63573
   63576      49   63573   63579      49   63588   63591      47   63585   63588
      49   63585   63591      49   63600   63603      47   63597   63600      49
   63597   63603      49   63612   63615      47   63609   63612      49   63609
   63615      49   63624   63627      47   63621   63624      49   63621   63627
      49   63636   63639      47   63633   63636      49   63633   63639      49
   63648   63651      47   63645   63648      49   63645   63651      49   63660
   63663      47   63657   63660      49   63657   63663      49   63672   63675
      47   63669   63672      49   63669   63675      49   63684   63687      47
   63681   63684      49   63681   63687      49   63696   63699      47   63693
   63696      49   63693   63699      49   63708   63711      47   63705   63708
      49   63705   63711      49   63720   63723      47   63717   63720      49
   63717   63723      49   63732   63735      47   63729   63732      49   63729
   63735      49   63744   63747      47   63741   63744      49   63741   63747
      49   63756   63759      47   63753   63756      49   63753   63759      49
   63768   63771      47   63765   63768      49   63765   63771      49   63780
   63783      47   63777   63780      49   63777   63783      49   63792   63795
      47   63789   63792      49   63789   63795      49   63804   63807      47
   63801   63804      49   63801   63807      49   63816   63819      47   63813
   63816      49   63813   63819      49   63828   63831      47   63825   63828
      49   63825   63831      49   63840   63843      47   63837   63840      49
   63837   63843      49   63852   63855      47   63849   63852      49   63849
   63855      49   63864   63867      47   63861   63864      49   63861   63867
      49   63876   63879      47   63873   63876      49   63873   63879      49
   63888   63891      47   63885   63888      49   63885   63891      49   63900
   63903      47   63897   63900      49   63897   63903      49   63912   63915
      47   63909   63912      49   63909   63915      49   63924   63927      47
   63921   63924      49   63921   63927      49   63936   63939      47   63933
   63936      49   63933   63939      49   63948   63951      47   63945   63948
      49   63945   63951      49   63960   63963      47   63957   63960      49
   63957   63963      49   63972   63975      47   63969   63972      49   63969
   63975      49   63984   63987      47   63981   63984      49   63981   63987
      49   63996   63999      47   63993   63996      49   63993   63999      49
   64008   64011      47   64005   64008      49   64005   64011      49   64020
   64023      47   64017   64020      49   64017   64023      49   64032   64035
      47   64029   64032      49   64029   64035      49   64044   64047      47
   64041   64044      49   64041   64047      49   64056   64059      47   64053
   64056      49   64053   64059      49   64068   64071      47   64065   64068
      49   64065   64071      49   64080   64083      47   64077   64080      49
   64077   64083      49   64092   64095      47   64089   64092      49   64089
   64095      49   64104   64107      47   64101   64104      49   64101   64107
      49   64116   64119      47   64113   64116      49   64113   64119      49
   64128   64131      47   64125   64128      49   64125   64131      49   64140
   64143      47   64137   64140      49   64137   64143      49   64152   64155
      47   64149   64152      49   64149   64155      49   64164   64167      47
   64161   64164      49   64161   64167      49   64176   64179      47   64173
   64176      49   64173   64179      49   64188   64191      47   64185   64188
      49   64185   64191      49   64200   64203      47   64197   64200      49
   64197   64203      49   64212   64215      47   64209   64212      49   64209
   64215      49   64224   64227      47   64221   64224      49   64221   64227
      49   64236   64239      47   64233   64236      49   64233   64239      49
   64248   64251      47   64245   64248      49   64245   64251      49   64260
   64263      47   64257   64260      49   64257   64263      49   64272   64275
      47   64269   64272      49   64269   64275      49   64284   64287      47
   64281   64284      49   64281   64287      49   64296   64299      47   64293
   64296      49   64293   64299      49   64308   64311      47   64305   64308
      49   64305   64311      49   64320   64323      47   64317   64320      49
   64317   64323      49   64332   64335      47   64329   64332      49   64329
   64335      49   64344   64347      47   64341   64344      49   64341   64347
      49   64356   64359      47   64353   64356      49   64353   64359      49
   64368   64371      47   64365   64368      49   64365   64371      49   64380
   64383      47   64377   64380      49   64377   64383      49   64392   64395
      47   64389   64392      49   64389   64395      49   64404   64407      47
   64401   64404      49   64401   64407      49   64416   64419      47   64413
   64416      49   64413   64419      49   64428   64431      47   64425   64428
      49   64425   64431      49   64440   64443      47   64437   64440      49
   64437   64443      49   64452   64455      47   64449   64452      49   64449
   64455      49   64464   64467      47   64461   64464      49   64461   64467
      49   64476   64479      47   64473   64476      49   64473   64479      49
   64488   64491      47   64485   64488      49   64485   64491      49   64500
   64503      47   64497   64500      49   64497   64503      49   64512   64515
      47   64509   64512      49   64509   64515      49   64524   64527      47
   64521   64524      49   64521   64527      49   64536   64539      47   64533
   64536      49   64533   64539      49   64548   64551      47   64545   64548
      49   64545   64551      49   64560   64563      47   64557   64560      49
   64557   64563      49   64572   64575      47   64569   64572      49   64569
   64575      49   64584   64587      47   64581   64584      49   64581   64587
      49   64596   64599      47   64593   64596      49   64593   64599      49
   64608   64611      47   64605   64608      49   64605   64611      49   64620
   64623      47   64617   64620      49   64617   64623      49   64632   64635
      47   64629   64632      49   64629   64635      49   64644   64647      47
   64641   64644      49   64641   64647      49   64656   64659      47   64653
   64656      49   64653   64659      49   64668   64671      47   64665   64668
      49   64665   64671      49   64680   64683      47   64677   64680      49
   64677   64683      49   64692   64695      47   64689   64692      49   64689
   64695      49   64704   64707      47   64701   64704      49   64701   64707
      49   64716   64719      47   64713   64716      49   64713   64719      49
   64728   64731      47   64725   64728      49   64725   64731      49   64740
   64743      47   64737   64740      49   64737   64743      49   64752   64755
      47   64749   64752      49   64749   64755      49   64764   64767      47
   64761   64764      49   64761   64767      49   64776   64779      47   64773
   64776      49   64773   64779      49   64788   64791      47   64785   64788
      49   64785   64791      49   64800   64803      47   64797   64800      49
   64797   64803      49   64812   64815      47   64809   64812      49   64809
   64815      49   64824   64827      47   64821   64824      49   64821   64827
      49   64836   64839      47   64833   64836      49   64833   64839      49
   64848   64851      47   64845   64848      49   64845   64851      49   64860
   64863      47   64857   64860      49   64857   64863      49   64872   64875
      47   64869   64872      49   64869   64875      49   64884   64887      47
   64881   64884      49   64881   64887      49   64896   64899      47   64893
   64896      49   64893   64899      49   64908   64911      47   64905   64908
      49   64905   64911      49   64920   64923      47   64917   64920      49
   64917   64923      49   64932   64935      47   64929   64932      49   64929
   64935      49   64944   64947      47   64941   64944      49   64941   64947
      49   64956   64959      47   64953   64956      49   64953   64959      49
   64968   64971      47   64965   64968      49   64965   64971      49   64980
   64983      47   64977   64980      49   64977   64983      49   64992   64995
      47   64989   64992      49   64989   64995      49   65004   65007      47
   65001   65004      49   65001   65007      49   65016   65019      47   65013
   65016      49   65013   65019      49   65028   65031      47   65025   65028
      49   65025   65031      49   65040   65043      47   65037   65040      49
   65037   65043      49   65052   65055      47   65049   65052      49   65049
   65055      49   65064   65067      47   65061   65064      49   65061   65067
      49   65076   65079      47   65073   65076      49   65073   65079      49
   65088   65091      47   65085   65088      49   65085   65091      49   65100
   65103      47   65097   65100      49   65097   65103      49   65112   65115
      47   65109   65112      49   65109   65115      49   65124   65127      47
   65121   65124      49   65121   65127      49   65136   65139      47   65133
   65136      49   65133   65139      49   65148   65151      47   65145   65148
      49   65145   65151      49   65160   65163      47   65157   65160      49
   65157   65163      49   65172   65175      47   65169   65172      49   65169
   65175      49   65184   65187      47   65181   65184      49   65181   65187
      49   65196   65199      47   65193   65196      49   65193   65199      49
   65208   65211      47   65205   65208      49   65205   65211      49   65220
   65223      47   65217   65220      49   65217   65223      49   65232   65235
      47   65229   65232      49   65229   65235      49   65244   65247      47
   65241   65244      49   65241   65247      49   65256   65259      47   65253
   65256      49   65253   65259      49   65268   65271      47   65265   65268
      49   65265   65271      49   65280   65283      47   65277   65280      49
   65277   65283      49   65292   65295      47   65289   65292      49   65289
   65295      49   65304   65307      47   65301   65304      49   65301   65307
      49   65316   65319      47   65313   65316      49   65313   65319      49
   65328   65331      47   65325   65328      49   65325   65331      49   65340
   65343      47   65337   65340      49   65337   65343      49   65352   65355
      47   65349   65352      49   65349   65355      49   65364   65367      47
   65361   65364      49   65361   65367      49   65376   65379      47   65373
   65376      49   65373   65379      49   65388   65391      47   65385   65388
      49   65385   65391      49   65400   65403      47   65397   65400      49
   65397   65403      49   65412   65415      47   65409   65412      49   65409
   65415      49   65424   65427      47   65421   65424      49   65421   65427
      49   65436   65439      47   65433   65436      49   65433   65439      49
   65448   65451      47   65445   65448      49   65445   65451      49   65460
   65463      47   65457   65460      49   65457   65463      49   65472   65475
      47   65469   65472      49   65469   65475      49   65484   65487      47
   65481   65484      49   65481   65487      49   65496   65499      47   65493
   65496      49   65493   65499      49   65508   65511      47   65505   65508
      49   65505   65511      49   65520   65523      47   65517   65520      49
   65517   65523      49   65532   65535      47   65529   65532      49   65529
   65535      49   65544   65547      47   65541   65544      49   65541   65547
      49   65556   65559      47   65553   65556      49   65553   65559      49
   65568   65571      47   65565   65568      49   65565   65571      49   65580
   65583      47   65577   65580      49   65577   65583      49   65592   65595
      47   65589   65592      49   65589   65595      49   65604   65607      47
   65601   65604      49   65601   65607      49   65616   65619      47   65613
   65616      49   65613   65619      49   65628   65631      47   65625   65628
      49   65625   65631      49   65640   65643      47   65637   65640      49
   65637   65643      49   65652   65655      47   65649   65652      49   65649
   65655      49   65664   65667      47   65661   65664      49   65661   65667
      49   65676   65679      47   65673   65676      49   65673   65679      49
   65688   65691      47   65685   65688      49   65685   65691      49   65700
   65703      47   65697   65700      49   65697   65703      49   65712   65715
      47   65709   65712      49   65709   65715      49   65724   65727      47
   65721   65724      49   65721   65727      49   65736   65739      47   65733
   65736      49   65733   65739      49   65748   65751      47   65745   65748
      49   65745   65751      49   65760   65763      47   65757   65760      49
   65757   65763      49   65772   65775      47   65769   65772      49   65769
   65775      49   65784   65787      47   65781   65784      49   65781   65787
      49   65796   65799      47   65793   65796      49   65793   65799      49
   65808   65811      47   65805   65808      49   65805   65811      49   65820
   65823      47   65817   65820      49   65817   65823      49   65832   65835
      47   65829   65832      49   65829   65835      49   65844   65847      47
   65841   65844      49   65841   65847      49   65856   65859      47   65853
   65856      49   65853   65859      49   65868   65871      47   65865   65868
      49   65865   65871      49   65880   65883      47   65877   65880      49
   65877   65883      49   65892   65895      47   65889   65892      49   65889
   65895      49   65904   65907      47   65901   65904      49   65901   65907
      49   65916   65919      47   65913   65916      49   65913   65919      49
   65928   65931      47   65925   65928      49   65925   65931      49   65940
   65943      47   65937   65940      49   65937   65943      49   65952   65955
      47   65949   65952      49   65949   65955      49   65964   65967      47
   65961   65964      49   65961   65967      49   65976   65979      47   65973
   65976      49   65973   65979      49   65988   65991      47   65985   65988
      49   65985   65991      49   66000   66003      47   65997   66000      49
   65997   66003      49   66012   66015      47   66009   66012      49   66009
   66015      49   66024   66027      47   66021   66024      49   66021   66027
      49   66036   66039      47   66033   66036      49   66033   66039      49
   66048   66051      47   66045   66048      49   66045   66051      49   66060
   66063      47   66057   66060      49   66057   66063      49   66072   66075
      47   66069   66072      49   66069   66075      49   66084   66087      47
   66081   66084      49   66081   66087      49   66096   66099      47   66093
   66096      49   66093   66099      49   66108   66111      47   66105   66108
      49   66105   66111      49   66120   66123      47   66117   66120      49
   66117   66123      49   66132   66135      47   66129   66132      49   66129
   66135      49   66144   66147      47   66141   66144      49   66141   66147
      49   66156   66159      47   66153   66156      49   66153   66159      49
   66168   66171      47   66165   66168      49   66165   66171      49   66180
   66183      47   66177   66180      49   66177   66183      49   66192   66195
      47   66189   66192      49   66189   66195      49   66204   66207      47
   66201   66204      49   66201   66207      49   66216   66219      47   66213
   66216      49   66213   66219      49   66228   66231      47   66225   66228
      49   66225   66231      49   66240   66243      47   66237   66240      49
   66237   66243      49   66252   66255      47   66249   66252      49   66249
   66255      49   66264   66267      47   66261   66264      49   66261   66267
      49   66276   66279      47   66273   66276      49   66273   66279      49
   66288   66291      47   66285   66288      49   66285   66291      49   66300
   66303      47   66297   66300      49   66297   66303      49   66312   66315
      47   66309   66312      49   66309   66315      49   66324   66327      47
   66321   66324      49   66321   66327      49   66336   66339      47   66333
   66336      49   66333   66339      49   66348   66351      47   66345   66348
      49   66345   66351      49   66360   66363      47   66357   66360      49
   66357   66363      49   66372   66375      47   66369   66372      49   66369
   66375      49   66384   66387      47   66381   66384      49   66381   66387
      49   66396   66399      47   66393   66396      49   66393   66399      49
   66408   66411      47   66405   66408      49   66405   66411      49   66420
   66423      47   66417   66420      49   66417   66423      49   66432   66435
      47   66429   66432      49   66429   66435      49   66444   66447      47
   66441   66444      49   66441   66447      49   66456   66459      47   66453
   66456      49   66453   66459      49   66468   66471      47   66465   66468
      49   66465   66471      49   66480   66483      47   66477   66480      49
   66477   66483      49   66492   66495      47   66489   66492      49   66489
   66495      49   66504   66507      47   66501   66504      49   66501   66507
      49   66516   66519      47   66513   66516      49   66513   66519      49
   66528   66531      47   66525   66528      49   66525   66531      49   66540
   66543      47   66537   66540      49   66537   66543      49   66552   66555
      47   66549   66552      49   66549   66555      49   66564   66567      47
   66561   66564      49   66561   66567      49   66576   66579      47   66573
   66576      49   66573   66579      49   66588   66591      47   66585   66588
      49   66585   66591      49   66600   66603      47   66597   66600      49
   66597   66603      49   66612   66615      47   66609   66612      49   66609
   66615      49   66624   66627      47   66621   66624      49   66621   66627
      49   66636   66639      47   66633   66636      49   66633   66639      49
   66648   66651      47   66645   66648      49   66645   66651      49   66660
   66663      47   66657   66660      49   66657   66663      49   66672   66675
      47   66669   66672      49   66669   66675      49   66684   66687      47
   66681   66684      49   66681   66687      49   66696   66699      47   66693
   66696      49   66693   66699      49   66708   66711      47   66705   66708
      49   66705   66711      49   66720   66723      47   66717   66720      49
   66717   66723      49   66732   66735      47   66729   66732      49   66729
   66735      49   66744   66747      47   66741   66744      49   66741   66747
      49   66756   66759      47   66753   66756      49   66753   66759      49
   66768   66771      47   66765   66768      49   66765   66771      49   66780
   66783      47   66777   66780      49   66777   66783      49   66792   66795
      47   66789   66792      49   66789   66795      49   66804   66807      47
   66801   66804      49   66801   66807      49   66816   66819      47   66813
   66816      49   66813   66819      49   66828   66831      47   66825   66828
      49   66825   66831      49   66840   66843      47   66837   66840      49
   66837   66843      49   66852   66855      47   66849   66852      49   66849
   66855      49   66864   66867      47   66861   66864      49   66861   66867
      49   66876   66879      47   66873   66876      49   66873   66879      49
   66888   66891      47   66885   66888      49   66885   66891      49   66900
   66903      47   66897   66900      49   66897   66903      49   66912   66915
      47   66909   66912      49   66909   66915      49   66924   66927      47
   66921   66924      49   66921   66927      49   66936   66939      47   66933
   66936      49   66933   66939      49   66948   66951      47   66945   66948
      49   66945   66951      49   66960   66963      47   66957   66960      49
   66957   66963      49   66972   66975      47   66969   66972      49   66969
   66975      49   66984   66987      47   66981   66984      49   66981   66987
      49   66996   66999      47   66993   66996      49   66993   66999      49
   67008   67011      47   67005   67008      49   67005   67011      49   67020
   67023      47   67017   67020      49   67017   67023      49   67032   67035
      47   67029   67032      49   67029   67035      49   67044   67047      47
   67041   67044      49   67041   67047      49   67056   67059      47   67053
   67056      49   67053   67059      49   67068   67071      47   67065   67068
      49   67065   67071      49   67080   67083      47   67077   67080      49
   67077   67083      49   67092   67095      47   67089   67092      49   67089
   67095      49   67104   67107      47   67101   67104      49   67101   67107
      49   67116   67119      47   67113   67116      49   67113   67119      49
   67128   67131      47   67125   67128      49   67125   67131      49   67140
   67143      47   67137   67140      49   67137   67143      49   67152   67155
      47   67149   67152      49   67149   67155      49   67164   67167      47
   67161   67164      49   67161   67167      49   67176   67179      47   67173
   67176      49   67173   67179      49   67188   67191      47   67185   67188
      49   67185   67191      49   67200   67203      47   67197   67200      49
   67197   67203      49   67212   67215      47   67209   67212      49   67209
   67215      49   67224   67227      47   67221   67224      49   67221   67227
      49   67236   67239      47   67233   67236      49   67233   67239      49
   67248   67251      47   67245   67248      49   67245   67251      49   67260
   67263      47   67257   67260      49   67257   67263      49   67272   67275
      47   67269   67272      49   67269   67275      49   67284   67287      47
   67281   67284      49   67281   67287      49   67296   67299      47   67293
   67296      49   67293   67299      49   67308   67311      47   67305   67308
      49   67305   67311      49   67320   67323      47   67317   67320      49
   67317   67323      49   67332   67335      47   67329   67332      49   67329
   67335      49   67344   67347      47   67341   67344      49   67341   67347
      49   67356   67359      47   67353   67356      49   67353   67359      49
   67368   67371      47   67365   67368      49   67365   67371      49   67380
   67383      47   67377   67380      49   67377   67383      49   67392   67395
      47   67389   67392      49   67389   67395      49   67404   67407      47
   67401   67404      49   67401   67407      49   67416   67419      47   67413
   67416      49   67413   67419      49   67428   67431      47   67425   67428
      49   67425   67431      49   67440   67443      47   67437   67440      49
   67437   67443      49   67452   67455      47   67449   67452      49   67449
   67455      49   67464   67467      47   67461   67464      49   67461   67467
      49   67476   67479      47   67473   67476      49   67473   67479      49
   67488   67491      47   67485   67488      49   67485   67491      49   67500
   67503      47   67497   67500      49   67497   67503      49   67512   67515
      47   67509   67512      49   67509   67515      49   67524   67527      47
   67521   67524      49   67521   67527      49   67536   67539      47   67533
   67536      49   67533   67539      49   67548   67551      47   67545   67548
      49   67545   67551      49   67560   67563      47   67557   67560      49
   67557   67563      49   67572   67575      47   67569   67572      49   67569
   67575      49   67584   67587      47   67581   67584      49   67581   67587
      49   67596   67599      47   67593   67596      49   67593   67599      49
   67608   67611      47   67605   67608      49   67605   67611      49   67620
   67623      47   67617   67620      49   67617   67623      49   67632   67635
      47   67629   67632      49   67629   67635      49   67644   67647      47
   67641   67644      49   67641   67647      49   67656   67659      47   67653
   67656      49   67653   67659      49   67668   67671      47   67665   67668
      49   67665   67671      49   67680   67683      47   67677   67680      49
   67677   67683      49   67692   67695      47   67689   67692      49   67689
   67695      49   67704   67707      47   67701   67704      49   67701   67707
      49   67716   67719      47   67713   67716      49   67713   67719      49
   67728   67731      47   67725   67728      49   67725   67731      49   67740
   67743      47   67737   67740      49   67737   67743      49   67752   67755
      47   67749   67752      49   67749   67755      49   67764   67767      47
   67761   67764      49   67761   67767      49   67776   67779      47   67773
   67776      49   67773   67779      49   67788   67791      47   67785   67788
      49   67785   67791      49   67800   67803      47   67797   67800      49
   67797   67803      49   67812   67815      47   67809   67812      49   67809
   67815      49   67824   67827      47   67821   67824      49   67821   67827
      49   67836   67839      47   67833   67836      49   67833   67839      49
   67848   67851      47   67845   67848      49   67845   67851      49   67860
   67863      47   67857   67860      49   67857   67863      49   67872   67875
      47   67869   67872      49   67869   67875      49   67884   67887      47
   67881   67884      49   67881   67887      49   67896   67899      47   67893
   67896      49   67893   67899      49   67908   67911      47   67905   67908
      49   67905   67911      49   67920   67923      47   67917   67920      49
   67917   67923      49   67932   67935      47   67929   67932      49   67929
   67935      49   67944   67947      47   67941   67944      49   67941   67947
      49   67956   67959      47   67953   67956      49   67953   67959      49
   67968   67971      47   67965   67968      49   67965   67971      49   67980
   67983      47   67977   67980      49   67977   67983      49   67992   67995
      47   67989   67992      49   67989   67995      49   68004   68007      47
   68001   68004      49   68001   68007      49   68016   68019      47   68013
   68016      49   68013   68019      49   68028   68031      47   68025   68028
      49   68025   68031      49   68040   68043      47   68037   68040      49
   68037   68043      49   68052   68055      47   68049   68052      49   68049
   68055      49   68064   68067      47   68061   68064      49   68061   68067
      49   68076   68079      47   68073   68076      49   68073   68079      49
   68088   68091      47   68085   68088      49   68085   68091      49   68100
   68103      47   68097   68100      49   68097   68103      49   68112   68115
      47   68109   68112      49   68109   68115      49   68124   68127      47
   68121   68124      49   68121   68127      49   68136   68139      47   68133
   68136      49   68133   68139      49   68148   68151      47   68145   68148
      49   68145   68151      49   68160   68163      47   68157   68160      49
   68157   68163      49   68172   68175      47   68169   68172      49   68169
   68175      49   68184   68187      47   68181   68184      49   68181   68187
      49   68196   68199      47   68193   68196      49   68193   68199      49
   68208   68211      47   68205   68208      49   68205   68211      49   68220
   68223      47   68217   68220      49   68217   68223      49   68232   68235
      47   68229   68232      49   68229   68235      49   68244   68247      47
   68241   68244      49   68241   68247      49   68256   68259      47   68253
   68256      49   68253   68259      49   68268   68271      47   68265   68268
      49   68265   68271      49   68280   68283      47   68277   68280      49
   68277   68283      49   68292   68295      47   68289   68292      49   68289
   68295      49   68304   68307      47   68301   68304      49   68301   68307
      49   68316   68319      47   68313   68316      49   68313   68319      49
   68328   68331      47   68325   68328      49   68325   68331      49   68340
   68343      47   68337   68340      49   68337   68343      49   68352   68355
      47   68349   68352      49   68349   68355      49   68364   68367      47
   68361   68364      49   68361   68367      49   68376   68379      47   68373
   68376      49   68373   68379      49   68388   68391      47   68385   68388
      49   68385   68391      49   68400   68403      47   68397   68400      49
   68397   68403      49   68412   68415      47   68409   68412      49   68409
   68415      49   68424   68427      47   68421   68424      49   68421   68427
      49   68436   68439      47   68433   68436      49   68433   68439      49
   68448   68451      47   68445   68448      49   68445   68451      49   68460
   68463      47   68457   68460      49   68457   68463      49   68472   68475
      47   68469   68472      49   68469   68475      49   68484   68487      47
   68481   68484      49   68481   68487      49   68496   68499      47   68493
   68496      49   68493   68499      49   68508   68511      47   68505   68508
      49   68505   68511      49   68520   68523      47   68517   68520      49
   68517   68523      49   68532   68535      47   68529   68532      49   68529
   68535      49   68544   68547      47   68541   68544      49   68541   68547
      49   68556   68559      47   68553   68556      49   68553   68559      49
   68568   68571      47   68565   68568      49   68565   68571      49   68580
   68583      47   68577   68580      49   68577   68583      49   68592   68595
      47   68589   68592      49   68589   68595      49   68604   68607      47
   68601   68604      49   68601   68607      49   68616   68619      47   68613
   68616      49   68613   68619      49   68628   68631      47   68625   68628
      49   68625   68631      49   68640   68643      47   68637   68640      49
   68637   68643      49   68652   68655      47   68649   68652      49   68649
   68655      49   68664   68667      47   68661   68664      49   68661   68667
      49   68676   68679      47   68673   68676      49   68673   68679      49
   68688   68691      47   68685   68688      49   68685   68691      49   68700
   68703      47   68697   68700      49   68697   68703      49   68712   68715
      47   68709   68712      49   68709   68715      49   68724   68727      47
   68721   68724      49   68721   68727      49   68736   68739      47   68733
   68736      49   68733   68739      49   68748   68751      47   68745   68748
      49   68745   68751      49   68760   68763      47   68757   68760      49
   68757   68763      49   68772   68775      47   68769   68772      49   68769
   68775      49   68784   68787      47   68781   68784      49   68781   68787
      49   68796   68799      47   68793   68796      49   68793   68799      49
   68808   68811      47   68805   68808      49   68805   68811      49   68820
   68823      47   68817   68820      49   68817   68823      49   68832   68835
      47   68829   68832      49   68829   68835      49   68844   68847      47
   68841   68844      49   68841   68847      49   68856   68859      47   68853
   68856      49   68853   68859      49   68868   68871      47   68865   68868
      49   68865   68871      49   68880   68883      47   68877   68880      49
   68877   68883      49   68892   68895      47   68889   68892      49   68889
   68895      49   68904   68907      47   68901   68904      49   68901   68907
      49   68916   68919      47   68913   68916      49   68913   68919      49
   68928   68931      47   68925   68928      49   68925   68931      49   68940
   68943      47   68937   68940      49   68937   68943      49   68952   68955
      47   68949   68952      49   68949   68955      49   68964   68967      47
   68961   68964      49   68961   68967      49   68976   68979      47   68973
   68976      49   68973   68979      49   68988   68991      47   68985   68988
      49   68985   68991      49   69000   69003      47   68997   69000      49
   68997   69003      49   69012   69015      47   69009   69012      49   69009
   69015      49   69024   69027      47   69021   69024      49   69021   69027
      49   69036   69039      47   69033   69036      49   69033   69039      49
   69048   69051      47   69045   69048      49   69045   69051      49   69060
   69063      47   69057   69060      49   69057   69063      49   69072   69075
      47   69069   69072      49   69069   69075      49   69084   69087      47
   69081   69084      49   69081   69087      49   69096   69099      47   69093
   69096      49   69093   69099      49   69108   69111      47   69105   69108
      49   69105   69111      49   69120   69123      47   69117   69120      49
   69117   69123      49   69132   69135      47   69129   69132      49   69129
   69135      49   69144   69147      47   69141   69144      49   69141   69147
      49   69156   69159      47   69153   69156      49   69153   69159      49
   69168   69171      47   69165   69168      49   69165   69171      49   69180
   69183      47   69177   69180      49   69177   69183      49   69192   69195
      47   69189   69192      49   69189   69195      49   69204   69207      47
   69201   69204      49   69201   69207      49   69216   69219      47   69213
   69216      49   69213   69219      49   69228   69231      47   69225   69228
      49   69225   69231      49   69240   69243      47   69237   69240      49
   69237   69243      49   69252   69255      47   69249   69252      49   69249
   69255      49   69264   69267      47   69261   69264      49   69261   69267
      49   69276   69279      47   69273   69276      49   69273   69279      49
   69288   69291      47   69285   69288      49   69285   69291      49   69300
   69303      47   69297   69300      49   69297   69303      49   69312   69315
      47   69309   69312      49   69309   69315      49   69324   69327      47
   69321   69324      49   69321   69327      49   69336   69339      47   69333
   69336      49   69333   69339      49   69348   69351      47   69345   69348
      49   69345   69351      49   69360   69363      47   69357   69360      49
   69357   69363      49   69372   69375      47   69369   69372      49   69369
   69375      49   69384   69387      47   69381   69384      49   69381   69387
      49   69396   69399      47   69393   69396      49   69393   69399      49
   69408   69411      47   69405   69408      49   69405   69411      49   69420
   69423      47   69417   69420      49   69417   69423      49   69432   69435
      47   69429   69432      49   69429   69435      49   69444   69447      47
   69441   69444      49   69441   69447      49   69456   69459      47   69453
   69456      49   69453   69459      49   69468   69471      47   69465   69468
      49   69465   69471      49   69480   69483      47   69477   69480      49
   69477   69483      49   69492   69495      47   69489   69492      49   69489
   69495      49   69504   69507      47   69501   69504      49   69501   69507
      49   69516   69519      47   69513   69516      49   69513   69519      49
   69528   69531      47   69525   69528      49   69525   69531      49   69540
   69543      47   69537   69540      49   69537   69543      49   69552   69555
      47   69549   69552      49   69549   69555      49   69564   69567      47
   69561   69564      49   69561   69567      49   69576   69579      47   69573
   69576      49   69573   69579      49   69588   69591      47   69585   69588
      49   69585   69591      49   69600   69603      47   69597   69600      49
   69597   69603      49   69612   69615      47   69609   69612      49   69609
   69615      49   69624   69627      47   69621   69624      49   69621   69627
      49   69636   69639      47   69633   69636      49   69633   69639      49
   69648   69651      47   69645   69648      49   69645   69651      49   69660
   69663      47   69657   69660      49   69657   69663      49   69672   69675
      47   69669   69672      49   69669   69675      49   69684   69687      47
   69681   69684      49   69681   69687      49   69696   69699      47   69693
   69696      49   69693   69699      49   69708   69711      47   69705   69708
      49   69705   69711      49   69720   69723      47   69717   69720      49
   69717   69723      49   69732   69735      47   69729   69732      49   69729
   69735      49   69744   69747      47   69741   69744      49   69741   69747
      49   69756   69759      47   69753   69756      49   69753   69759      49
   69768   69771      47   69765   69768      49   69765   69771      49   69780
   69783      47   69777   69780      49   69777   69783      49   69792   69795
      47   69789   69792      49   69789   69795      49   69804   69807      47
   69801   69804      49   69801   69807      49   69816   69819      47   69813
   69816      49   69813   69819      49   69828   69831      47   69825   69828
      49   69825   69831      49   69840   69843      47   69837   69840      49
   69837   69843      49   69852   69855      47   69849   69852      49   69849
   69855      49   69864   69867      47   69861   69864      49   69861   69867
      49   69876   69879      47   69873   69876      49   69873   69879      49
   69888   69891      47   69885   69888      49   69885   69891      49   69900
   69903      47   69897   69900      49   69897   69903      49   69912   69915
      47   69909   69912      49   69909   69915      49   69924   69927      47
   69921   69924      49   69921   69927      49   69936   69939      47   69933
   69936      49   69933   69939      49   69948   69951      47   69945   69948
      49   69945   69951      49   69960   69963      47   69957   69960      49
   69957   69963      49   69972   69975      47   69969   69972      49   69969
   69975      49   69984   69987      47   69981   69984      49   69981   69987
      49   69996   69999      47   69993   69996      49   69993   69999      49
   70008   70011      47   70005   70008      49   70005   70011      49   70020
   70023      47   70017   70020      49   70017   70023      49   70032   70035
      47   70029   70032      49   70029   70035      49   70044   70047      47
   70041   70044      49   70041   70047      49   70056   70059      47   70053
   70056      49   70053   70059      49   70068   70071      47   70065   70068
      49   70065   70071      49   70080   70083      47   70077   70080      49
   70077   70083      49   70092   70095      47   70089   70092      49   70089
   70095      49   70104   70107      47   70101   70104      49   70101   70107
      49   70116   70119      47   70113   70116      49   70113   70119      49
   70128   70131      47   70125   70128      49   70125   70131      49   70140
   70143      47   70137   70140      49   70137   70143      49   70152   70155
      47   70149   70152      49   70149   70155      49   70164   70167      47
   70161   70164      49   70161   70167      49   70176   70179      47   70173
   70176      49   70173   70179      49   70188   70191      47   70185   70188
      49   70185   70191      49   70200   70203      47   70197   70200      49
   70197   70203      49   70212   70215      47   70209   70212      49   70209
   70215      49   70224   70227      47   70221   70224      49   70221   70227
      49   70236   70239      47   70233   70236      49   70233   70239      49
   70248   70251      47   70245   70248      49   70245   70251      49   70260
   70263      47   70257   70260      49   70257   70263      49   70272   70275
      47   70269   70272      49   70269   70275      49   70284   70287      47
   70281   70284      49   70281   70287      49   70296   70299      47   70293
   70296      49   70293   70299      49   70308   70311      47   70305   70308
      49   70305   70311      49   70320   70323      47   70317   70320      49
   70317   70323      49   70332   70335      47   70329   70332      49   70329
   70335      49   70344   70347      47   70341   70344      49   70341   70347
      49   70356   70359      47   70353   70356      49   70353   70359      49
   70368   70371      47   70365   70368      49   70365   70371      49   70380
   70383      47   70377   70380      49   70377   70383      49   70392   70395
      47   70389   70392      49   70389   70395      49   70404   70407      47
   70401   70404      49   70401   70407      49   70416   70419      47   70413
   70416      49   70413   70419      49   70428   70431      47   70425   70428
      49   70425   70431      49   70440   70443      47   70437   70440      49
   70437   70443      49   70452   70455      47   70449   70452      49   70449
   70455      49   70464   70467      47   70461   70464      49   70461   70467
      49   70476   70479      47   70473   70476      49   70473   70479      49
   70488   70491      47   70485   70488      49   70485   70491      49   70500
   70503      47   70497   70500      49   70497   70503      49   70512   70515
      47   70509   70512      49   70509   70515      49   70524   70527      47
   70521   70524      49   70521   70527      49   70536   70539      47   70533
   70536      49   70533   70539      49   70548   70551      47   70545   70548
      49   70545   70551      49   70560   70563      47   70557   70560      49
   70557   70563      49   70572   70575      47   70569   70572      49   70569
   70575      49   70584   70587      47   70581   70584      49   70581   70587
      49   70596   70599      47   70593   70596      49   70593   70599      49
   70608   70611      47   70605   70608      49   70605   70611      49   70620
   70623      47   70617   70620      49   70617   70623      49   70632   70635
      47   70629   70632      49   70629   70635      49   70644   70647      47
   70641   70644      49   70641   70647      49   70656   70659      47   70653
   70656      49   70653   70659      49   70668   70671      47   70665   70668
      49   70665   70671      49   70680   70683      47   70677   70680      49
   70677   70683      49   70692   70695      47   70689   70692      49   70689
   70695      49   70704   70707      47   70701   70704      49   70701   70707
      49   70716   70719      47   70713   70716      49   70713   70719      49
   70728   70731      47   70725   70728      49   70725   70731      49   70740
   70743      47   70737   70740      49   70737   70743      49   70752   70755
      47   70749   70752      49   70749   70755      49   70764   70767      47
   70761   70764      49   70761   70767      49   70776   70779      47   70773
   70776      49   70773   70779      49   70788   70791      47   70785   70788
      49   70785   70791      49   70800   70803      47   70797   70800      49
   70797   70803      49   70812   70815      47   70809   70812      49   70809
   70815      49   70824   70827      47   70821   70824      49   70821   70827
      49   70836   70839      47   70833   70836      49   70833   70839      49
   70848   70851      47   70845   70848      49   70845   70851      49   70860
   70863      47   70857   70860      49   70857   70863      49   70872   70875
      47   70869   70872      49   70869   70875      49   70884   70887      47
   70881   70884      49   70881   70887      49   70896   70899      47   70893
   70896      49   70893   70899      49   70908   70911      47   70905   70908
      49   70905   70911      49   70920   70923      47   70917   70920      49
   70917   70923      49   70932   70935      47   70929   70932      49   70929
   70935      49   70944   70947      47   70941   70944      49   70941   70947
      49   70956   70959      47   70953   70956      49   70953   70959      49
   70968   70971      47   70965   70968      49   70965   70971      49   70980
   70983      47   70977   70980      49   70977   70983      49   70992   70995
      47   70989   70992      49   70989   70995      49   71004   71007      47
   71001   71004      49   71001   71007      49   71016   71019      47   71013
   71016      49   71013   71019      49   71028   71031      47   71025   71028
      49   71025   71031      49   71040   71043      47   71037   71040      49
   71037   71043      49   71052   71055      47   71049   71052      49   71049
   71055      49   71064   71067      47   71061   71064      49   71061   71067
      49   71076   71079      47   71073   71076      49   71073   71079      49
   71088   71091      47   71085   71088      49   71085   71091      49   71100
   71103      47   71097   71100      49   71097   71103      49   71112   71115
      47   71109   71112      49   71109   71115      49   71124   71127      47
   71121   71124      49   71121   71127      49   71136   71139      47   71133
   71136      49   71133   71139      49   71148   71151      47   71145   71148
      49   71145   71151      49   71160   71163      47   71157   71160      49
   71157   71163      49   71172   71175      47   71169   71172      49   71169
   71175      49   71184   71187      47   71181   71184      49   71181   71187
      49   71196   71199      47   71193   71196      49   71193   71199      49
   71208   71211      47   71205   71208      49   71205   71211      49   71220
   71223      47   71217   71220      49   71217   71223      49   71232   71235
      47   71229   71232      49   71229   71235      49   71244   71247      47
   71241   71244      49   71241   71247      49   71256   71259      47   71253
   71256      49   71253   71259      49   71268   71271      47   71265   71268
      49   71265   71271      49   71280   71283      47   71277   71280      49
   71277   71283      49   71292   71295      47   71289   71292      49   71289
   71295      49   71304   71307      47   71301   71304      49   71301   71307
      49   71316   71319      47   71313   71316      49   71313   71319      49
   71328   71331      47   71325   71328      49   71325   71331      49   71340
   71343      47   71337   71340      49   71337   71343      49   71352   71355
      47   71349   71352      49   71349   71355      49   71364   71367      47
   71361   71364      49   71361   71367      49   71376   71379      47   71373
   71376      49   71373   71379      49   71388   71391      47   71385   71388
      49   71385   71391      49   71400   71403      47   71397   71400      49
   71397   71403      49   71412   71415      47   71409   71412      49   71409
   71415      49   71424   71427      47   71421   71424      49   71421   71427
      49   71436   71439      47   71433   71436      49   71433   71439      49
   71448   71451      47   71445   71448      49   71445   71451      49   71460
   71463      47   71457   71460      49   71457   71463      49   71472   71475
      47   71469   71472      49   71469   71475      49   71484   71487      47
   71481   71484      49   71481   71487      49   71496   71499      47   71493
   71496      49   71493   71499      49   71508   71511      47   71505   71508
      49   71505   71511      49   71520   71523      47   71517   71520      49
   71517   71523      49   71532   71535      47   71529   71532      49   71529
   71535      49   71544   71547      47   71541   71544      49   71541   71547
      49   71556   71559      47   71553   71556      49   71553   71559      49
   71568   71571      47   71565   71568      49   71565   71571      49   71580
   71583      47   71577   71580      49   71577   71583      49   71592   71595
      47   71589   71592      49   71589   71595      49   71604   71607      47
   71601   71604      49   71601   71607      49   71616   71619      47   71613
   71616      49   71613   71619      49   71628   71631      47   71625   71628
      49   71625   71631      49   71640   71643      47   71637   71640      49
   71637   71643      49   71652   71655      47   71649   71652      49   71649
   71655      49   71664   71667      47   71661   71664      49   71661   71667
      49   71676   71679      47   71673   71676      49   71673   71679      49
   71688   71691      47   71685   71688      49   71685   71691      49   71700
   71703      47   71697   71700      49   71697   71703      49   71712   71715
      47   71709   71712      49   71709   71715      49   71724   71727      47
   71721   71724      49   71721   71727      49   71736   71739      47   71733
   71736      49   71733   71739      49   71748   71751      47   71745   71748
      49   71745   71751      49   71760   71763      47   71757   71760      49
   71757   71763      49   71772   71775      47   71769   71772      49   71769
   71775      49   71784   71787      47   71781   71784      49   71781   71787
      49   71796   71799      47   71793   71796      49   71793   71799      49
   71808   71811      47   71805   71808      49   71805   71811      49   71820
   71823      47   71817   71820      49   71817   71823      49   71832   71835
      47   71829   71832      49   71829   71835      49   71844   71847      47
   71841   71844      49   71841   71847      49   71856   71859      47   71853
   71856      49   71853   71859      49   71868   71871      47   71865   71868
      49   71865   71871      49   71880   71883      47   71877   71880      49
   71877   71883      49   71892   71895      47   71889   71892      49   71889
   71895      49   71904   71907      47   71901   71904      49   71901   71907
      49   71916   71919      47   71913   71916      49   71913   71919      49
   71928   71931      47   71925   71928      49   71925   71931      49   71940
   71943      47   71937   71940      49   71937   71943      49   71952   71955
      47   71949   71952      49   71949   71955      49   71964   71967      47
   71961   71964      49   71961   71967      49   71976   71979      47   71973
   71976      49   71973   71979      49   71988   71991      47   71985   71988
      49   71985   71991      49   72000   72003      47   71997   72000      49
   71997   72003      49   72012   72015      47   72009   72012      49   72009
   72015      49   72024   72027      47   72021   72024      49   72021   72027
      49   72036   72039      47   72033   72036      49   72033   72039      49
   72048   72051      47   72045   72048      49   72045   72051      49   72060
   72063      47   72057   72060      49   72057   72063      49   72072   72075
      47   72069   72072      49   72069   72075      49   72084   72087      47
   72081   72084      49   72081   72087      49   72096   72099      47   72093
   72096      49   72093   72099      49   72108   72111      47   72105   72108
      49   72105   72111      49   72120   72123      47   72117   72120      49
   72117   72123      49   72132   72135      47   72129   72132      49   72129
   72135      49   72144   72147      47   72141   72144      49   72141   72147
      49   72156   72159      47   72153   72156      49   72153   72159      49
   72168   72171      47   72165   72168      49   72165   72171      49   72180
   72183      47   72177   72180      49   72177   72183      49   72192   72195
      47   72189   72192      49   72189   72195      49   72204   72207      47
   72201   72204      49   72201   72207      49   72216   72219      47   72213
   72216      49   72213   72219      49   72228   72231      47   72225   72228
      49   72225   72231      49   72240   72243      47   72237   72240      49
   72237   72243      49   72252   72255      47   72249   72252      49   72249
   72255      49   72264   72267      47   72261   72264      49   72261   72267
      49   72276   72279      47   72273   72276      49   72273   72279      49
   72288   72291      47   72285   72288      49   72285   72291      49   72300
   72303      47   72297   72300      49   72297   72303      49   72312   72315
      47   72309   72312      49   72309   72315      49   72324   72327      47
   72321   72324      49   72321   72327      49   72336   72339      47   72333
   72336      49   72333   72339      49   72348   72351      47   72345   72348
      49   72345   72351      49   72360   72363      47   72357   72360      49
   72357   72363      49   72372   72375      47   72369   72372      49   72369
   72375      49   72384   72387      47   72381   72384      49   72381   72387
      49   72396   72399      47   72393   72396      49   72393   72399      49
   72408   72411      47   72405   72408      49   72405   72411      49   72420
   72423      47   72417   72420      49   72417   72423      49   72432   72435
      47   72429   72432      49   72429   72435      49   72444   72447      47
   72441   72444      49   72441   72447      49   72456   72459      47   72453
   72456      49   72453   72459      49   72468   72471      47   72465   72468
      49   72465   72471      49   72480   72483      47   72477   72480      49
   72477   72483      49   72492   72495      47   72489   72492      49   72489
   72495      49   72504   72507      47   72501   72504      49   72501   72507
      49   72516   72519      47   72513   72516      49   72513   72519      49
   72528   72531      47   72525   72528      49   72525   72531      49   72540
   72543      47   72537   72540      49   72537   72543      49   72552   72555
      47   72549   72552      49   72549   72555      49   72564   72567      47
   72561   72564      49   72561   72567      49   72576   72579      47   72573
   72576      49   72573   72579      49   72588   72591      47   72585   72588
      49   72585   72591      49   72600   72603      47   72597   72600      49
   72597   72603      49   72612   72615      47   72609   72612      49   72609
   72615      49   72624   72627      47   72621   72624      49   72621   72627
      49   72636   72639      47   72633   72636      49   72633   72639      49
   72648   72651      47   72645   72648      49   72645   72651      49   72660
   72663      47   72657   72660      49   72657   72663      49   72672   72675
      47   72669   72672      49   72669   72675      49   72684   72687      47
   72681   72684      49   72681   72687      49   72696   72699      47   72693
   72696      49   72693   72699      49   72708   72711      47   72705   72708
      49   72705   72711      49   72720   72723      47   72717   72720      49
   72717   72723      49   72732   72735      47   72729   72732      49   72729
   72735      49   72744   72747      47   72741   72744      49   72741   72747
      49   72756   72759      47   72753   72756      49   72753   72759      49
   72768   72771      47   72765   72768      49   72765   72771      49   72780
   72783      47   72777   72780      49   72777   72783      49   72792   72795
      47   72789   72792      49   72789   72795      49   72804   72807      47
   72801   72804      49   72801   72807      49   72816   72819      47   72813
   72816      49   72813   72819      49   72828   72831      47   72825   72828
      49   72825   72831      49   72840   72843      47   72837   72840      49
   72837   72843      49   72852   72855      47   72849   72852      49   72849
   72855      49   72864   72867      47   72861   72864      49   72861   72867
      49   72876   72879      47   72873   72876      49   72873   72879      49
   72888   72891      47   72885   72888      49   72885   72891      49   72900
   72903      47   72897   72900      49   72897   72903      49   72912   72915
      47   72909   72912      49   72909   72915      49   72924   72927      47
   72921   72924      49   72921   72927      49   72936   72939      47   72933
   72936      49   72933   72939      49   72948   72951      47   72945   72948
      49   72945   72951      49   72960   72963      47   72957   72960      49
   72957   72963      49   72972   72975      47   72969   72972      49   72969
   72975      49   72984   72987      47   72981   72984      49   72981   72987
      49   72996   72999      47   72993   72996      49   72993   72999      49
   73008   73011      47   73005   73008      49   73005   73011      49   73020
   73023      47   73017   73020      49   73017   73023      49   73032   73035
      47   73029   73032      49   73029   73035      49   73044   73047      47
   73041   73044      49   73041   73047      49   73056   73059      47   73053
   73056      49   73053   73059      49   73068   73071      47   73065   73068
      49   73065   73071      49   73080   73083      47   73077   73080      49
   73077   73083      49   73092   73095      47   73089   73092      49   73089
   73095      49   73104   73107      47   73101   73104      49   73101   73107
      49   73116   73119      47   73113   73116      49   73113   73119      49
   73128   73131      47   73125   73128      49   73125   73131      49   73140
   73143      47   73137   73140      49   73137   73143      49   73152   73155
      47   73149   73152      49   73149   73155      49   73164   73167      47
   73161   73164      49   73161   73167      49   73176   73179      47   73173
   73176      49   73173   73179      49   73188   73191      47   73185   73188
      49   73185   73191      49   73200   73203      47   73197   73200      49
   73197   73203      49   73212   73215      47   73209   73212      49   73209
   73215      49   73224   73227      47   73221   73224      49   73221   73227
      49   73236   73239      47   73233   73236      49   73233   73239      49
   73248   73251      47   73245   73248      49   73245   73251      49   73260
   73263      47   73257   73260      49   73257   73263      49   73272   73275
      47   73269   73272      49   73269   73275      49   73284   73287      47
   73281   73284      49   73281   73287      49   73296   73299      47   73293
   73296      49   73293   73299      49   73308   73311      47   73305   73308
      49   73305   73311      49   73320   73323      47   73317   73320      49
   73317   73323      49   73332   73335      47   73329   73332      49   73329
   73335      49   73344   73347      47   73341   73344      49   73341   73347
      49   73356   73359      47   73353   73356      49   73353   73359      49
   73368   73371      47   73365   73368      49   73365   73371      49   73380
   73383      47   73377   73380      49   73377   73383      49   73392   73395
      47   73389   73392      49   73389   73395      49   73404   73407      47
   73401   73404      49   73401   73407      49   73416   73419      47   73413
   73416      49   73413   73419      49   73428   73431      47   73425   73428
      49   73425   73431      49   73440   73443      47   73437   73440      49
   73437   73443      49   73452   73455      47   73449   73452      49   73449
   73455      49   73464   73467      47   73461   73464      49   73461   73467
      49   73476   73479      47   73473   73476      49   73473   73479      49
   73488   73491      47   73485   73488      49   73485   73491      49   73500
   73503      47   73497   73500      49   73497   73503      49   73512   73515
      47   73509   73512      49   73509   73515      49   73524   73527      47
   73521   73524      49   73521   73527      49   73536   73539      47   73533
   73536      49   73533   73539      49   73548   73551      47   73545   73548
      49   73545   73551      49   73560   73563      47   73557   73560      49
   73557   73563      49   73572   73575      47   73569   73572      49   73569
   73575      49   73584   73587      47   73581   73584      49   73581   73587
      49   73596   73599      47   73593   73596      49   73593   73599      49
   73608   73611      47   73605   73608      49   73605   73611      49   73620
   73623      47   73617   73620      49   73617   73623      49   73632   73635
      47   73629   73632      49   73629   73635      49   73644   73647      47
   73641   73644      49   73641   73647      49   73656   73659      47   73653
   73656      49   73653   73659      49   73668   73671      47   73665   73668
      49   73665   73671      49   73680   73683      47   73677   73680      49
   73677   73683      49   73692   73695      47   73689   73692      49   73689
   73695      49   73704   73707      47   73701   73704      49   73701   73707
      49   73716   73719      47   73713   73716      49   73713   73719      49
   73728   73731      47   73725   73728      49   73725   73731      49   73740
   73743      47   73737   73740      49   73737   73743      49   73752   73755
      47   73749   73752      49   73749   73755      49   73764   73767      47
   73761   73764      49   73761   73767      49   73776   73779      47   73773
   73776      49   73773   73779      49   73788   73791      47   73785   73788
      49   73785   73791      49   73800   73803      47   73797   73800      49
   73797   73803      49   73812   73815      47   73809   73812      49   73809
   73815      49   73824   73827      47   73821   73824      49   73821   73827
      49   73836   73839      47   73833   73836      49   73833   73839      49
   73848   73851      47   73845   73848      49   73845   73851      49   73860
   73863      47   73857   73860      49   73857   73863      49   73872   73875
      47   73869   73872      49   73869   73875      49   73884   73887      47
   73881   73884      49   73881   73887      49   73896   73899      47   73893
   73896      49   73893   73899      49   73908   73911      47   73905   73908
      49   73905   73911      49   73920   73923      47   73917   73920      49
   73917   73923      49   73932   73935      47   73929   73932      49   73929
   73935      49   73944   73947      47   73941   73944      49   73941   73947
      49   73956   73959      47   73953   73956      49   73953   73959      49
   73968   73971      47   73965   73968      49   73965   73971      49   73980
   73983      47   73977   73980      49   73977   73983      49   73992   73995
      47   73989   73992      49   73989   73995      49   74004   74007      47
   74001   74004      49   74001   74007      49   74016   74019      47   74013
   74016      49   74013   74019      49   74028   74031      47   74025   74028
      49   74025   74031      49   74040   74043      47   74037   74040      49
   74037   74043      49   74052   74055      47   74049   74052      49   74049
   74055      49   74064   74067      47   74061   74064      49   74061   74067
      49   74076   74079      47   74073   74076      49   74073   74079      49
   74088   74091      47   74085   74088      49   74085   74091      49   74100
   74103      47   74097   74100      49   74097   74103      49   74112   74115
      47   74109   74112      49   74109   74115      49   74124   74127      47
   74121   74124      49   74121   74127      49   74136   74139      47   74133
   74136      49   74133   74139      49   74148   74151      47   74145   74148
      49   74145   74151      49   74160   74163      47   74157   74160      49
   74157   74163      49   74172   74175      47   74169   74172      49   74169
   74175      49   74184   74187      47   74181   74184      49   74181   74187
      49   74196   74199      47   74193   74196      49   74193   74199      49
   74208   74211      47   74205   74208      49   74205   74211      49   74220
   74223      47   74217   74220      49   74217   74223      49   74232   74235
      47   74229   74232      49   74229   74235      49   74244   74247      47
   74241   74244      49   74241   74247      49   74256   74259      47   74253
   74256      49   74253   74259      49   74268   74271      47   74265   74268
      49   74265   74271      49   74280   74283      47   74277   74280      49
   74277   74283      49   74292   74295      47   74289   74292      49   74289
   74295      49   74304   74307      47   74301   74304      49   74301   74307
      49   74316   74319      47   74313   74316      49   74313   74319      49
   74328   74331      47   74325   74328      49   74325   74331      49   74340
   74343      47   74337   74340      49   74337   74343      49   74352   74355
      47   74349   74352      49   74349   74355      49   74364   74367      47
   74361   74364      49   74361   74367      49   74376   74379      47   74373
   74376      49   74373   74379      49   74388   74391      47   74385   74388
      49   74385   74391      49   74400   74403      47   74397   74400      49
   74397   74403      49   74412   74415      47   74409   74412      49   74409
   74415      49   74424   74427      47   74421   74424      49   74421   74427
      49   74436   74439      47   74433   74436      49   74433   74439      49
   74448   74451      47   74445   74448      49   74445   74451      49   74460
   74463      47   74457   74460      49   74457   74463      49   74472   74475
      47   74469   74472      49   74469   74475      49   74484   74487      47
   74481   74484      49   74481   74487      49   74496   74499      47   74493
   74496      49   74493   74499      49   74508   74511      47   74505   74508
      49   74505   74511      49   74520   74523      47   74517   74520      49
   74517   74523      49   74532   74535      47   74529   74532      49   74529
   74535      49   74544   74547      47   74541   74544      49   74541   74547
      49   74556   74559      47   74553   74556      49   74553   74559      49
   74568   74571      47   74565   74568      49   74565   74571      49   74580
   74583      47   74577   74580      49   74577   74583      49   74592   74595
      47   74589   74592      49   74589   74595      49   74604   74607      47
   74601   74604      49   74601   74607      49   74616   74619      47   74613
   74616      49   74613   74619      49   74628   74631      47   74625   74628
      49   74625   74631      49   74640   74643      47   74637   74640      49
   74637   74643      49   74652   74655      47   74649   74652      49   74649
   74655      49   74664   74667      47   74661   74664      49   74661   74667
      49   74676   74679      47   74673   74676      49   74673   74679      49
   74688   74691      47   74685   74688      49   74685   74691      49   74700
   74703      47   74697   74700      49   74697   74703      49   74712   74715
      47   74709   74712      49   74709   74715      49   74724   74727      47
   74721   74724      49   74721   74727      49   74736   74739      47   74733
   74736      49   74733   74739      49   74748   74751      47   74745   74748
      49   74745   74751      49   74760   74763      47   74757   74760      49
   74757   74763      49   74772   74775      47   74769   74772      49   74769
   74775      49   74784   74787      47   74781   74784      49   74781   74787
      49   74796   74799      47   74793   74796      49   74793   74799      49
   74808   74811      47   74805   74808      49   74805   74811      49   74820
   74823      47   74817   74820      49   74817   74823      49   74832   74835
      47   74829   74832      49   74829   74835      49   74844   74847      47
   74841   74844      49   74841   74847      49   74856   74859      47   74853
   74856      49   74853   74859      49   74868   74871      47   74865   74868
      49   74865   74871      49   74880   74883      47   74877   74880      49
   74877   74883      49   74892   74895      47   74889   74892      49   74889
   74895      49   74904   74907      47   74901   74904      49   74901   74907
      49   74916   74919      47   74913   74916      49   74913   74919      49
   74928   74931      47   74925   74928      49   74925   74931      49   74940
   74943      47   74937   74940      49   74937   74943      49   74952   74955
      47   74949   74952      49   74949   74955      49   74964   74967      47
   74961   74964      49   74961   74967      49   74976   74979      47   74973
   74976      49   74973   74979      49   74988   74991      47   74985   74988
      49   74985   74991      49   75000   75003      47   74997   75000      49
   74997   75003      49   75012   75015      47   75009   75012      49   75009
   75015      49   75024   75027      47   75021   75024      49   75021   75027
      49   75036   75039      47   75033   75036      49   75033   75039      49
   75048   75051      47   75045   75048      49   75045   75051      49   75060
   75063      47   75057   75060      49   75057   75063      49   75072   75075
      47   75069   75072      49   75069   75075      49   75084   75087      47
   75081   75084      49   75081   75087      49   75096   75099      47   75093
   75096      49   75093   75099      49   75108   75111      47   75105   75108
      49   75105   75111      49   75120   75123      47   75117   75120      49
   75117   75123      49   75132   75135      47   75129   75132      49   75129
   75135      49   75144   75147      47   75141   75144      49   75141   75147
      49   75156   75159      47   75153   75156      49   75153   75159      49
   75168   75171      47   75165   75168      49   75165   75171      49   75180
   75183      47   75177   75180      49   75177   75183      49   75192   75195
      47   75189   75192      49   75189   75195      49   75204   75207      47
   75201   75204      49   75201   75207      49   75216   75219      47   75213
   75216      49   75213   75219      49   75228   75231      47   75225   75228
      49   75225   75231      49   75240   75243      47   75237   75240      49
   75237   75243      49   75252   75255      47   75249   75252      49   75249
   75255      49   75264   75267      47   75261   75264      49   75261   75267
      49   75276   75279      47   75273   75276      49   75273   75279      49
   75288   75291      47   75285   75288      49   75285   75291      49   75300
   75303      47   75297   75300      49   75297   75303      49   75312   75315
      47   75309   75312      49   75309   75315      49   75324   75327      47
   75321   75324      49   75321   75327      49   75336   75339      47   75333
   75336      49   75333   75339      49   75348   75351      47   75345   75348
      49   75345   75351      49   75360   75363      47   75357   75360      49
   75357   75363      49   75372   75375      47   75369   75372      49   75369
   75375      49   75384   75387      47   75381   75384      49   75381   75387
      49   75396   75399      47   75393   75396      49   75393   75399      49
   75408   75411      47   75405   75408      49   75405   75411      49   75420
   75423      47   75417   75420      49   75417   75423      49   75432   75435
      47   75429   75432      49   75429   75435      49   75444   75447      47
   75441   75444      49   75441   75447      49   75456   75459      47   75453
   75456      49   75453   75459      49   75468   75471      47   75465   75468
      49   75465   75471      49   75480   75483      47   75477   75480      49
   75477   75483      49   75492   75495      47   75489   75492      49   75489
   75495      49   75504   75507      47   75501   75504      49   75501   75507
      49   75516   75519      47   75513   75516      49   75513   75519      49
   75528   75531      47   75525   75528      49   75525   75531      49   75540
   75543      47   75537   75540      49   75537   75543      49   75552   75555
      47   75549   75552      49   75549   75555      49   75564   75567      47
   75561   75564      49   75561   75567      49   75576   75579      47   75573
   75576      49   75573   75579      49   75588   75591      47   75585   75588
      49   75585   75591      49   75600   75603      47   75597   75600      49
   75597   75603      49   75612   75615      47   75609   75612      49   75609
   75615      49   75624   75627      47   75621   75624      49   75621   75627
      49   75636   75639      47   75633   75636      49   75633   75639      49
   75648   75651      47   75645   75648      49   75645   75651      49   75660
   75663      47   75657   75660      49   75657   75663      49   75672   75675
      47   75669   75672      49   75669   75675      49   75684   75687      47
   75681   75684      49   75681   75687      49   75696   75699      47   75693
   75696      49   75693   75699      49   75708   75711      47   75705   75708
      49   75705   75711      49   75720   75723      47   75717   75720      49
   75717   75723      49   75732   75735      47   75729   75732      49   75729
   75735      49   75744   75747      47   75741   75744      49   75741   75747
      49   75756   75759      47   75753   75756      49   75753   75759      49
   75768   75771      47   75765   75768      49   75765   75771      49   75780
   75783      47   75777   75780      49   75777   75783      49   75792   75795
      47   75789   75792      49   75789   75795      49   75804   75807      47
   75801   75804      49   75801   75807      49   75816   75819      47   75813
   75816      49   75813   75819      49   75828   75831      47   75825   75828
      49   75825   75831      49   75840   75843      47   75837   75840      49
   75837   75843      49   75852   75855      47   75849   75852      49   75849
   75855      49   75864   75867      47   75861   75864      49   75861   75867
      49   75876   75879      47   75873   75876      49   75873   75879      49
   75888   75891      47   75885   75888      49   75885   75891      49   75900
   75903      47   75897   75900      49   75897   75903      49   75912   75915
      47   75909   75912      49   75909   75915      49   75924   75927      47
   75921   75924      49   75921   75927      49   75936   75939      47   75933
   75936      49   75933   75939      49   75948   75951      47   75945   75948
      49   75945   75951      49   75960   75963      47   75957   75960      49
   75957   75963      49   75972   75975      47   75969   75972      49   75969
   75975      49   75984   75987      47   75981   75984      49   75981   75987
      49   75996   75999      47   75993   75996      49   75993   75999      49
   76008   76011      47   76005   76008      49   76005   76011      49   76020
   76023      47   76017   76020      49   76017   76023      49   76032   76035
      47   76029   76032      49   76029   76035      49   76044   76047      47
   76041   76044      49   76041   76047      49   76056   76059      47   76053
   76056      49   76053   76059      49   76068   76071      47   76065   76068
      49   76065   76071      49   76080   76083      47   76077   76080      49
   76077   76083      49   76092   76095      47   76089   76092      49   76089
   76095      49   76104   76107      47   76101   76104      49   76101   76107
      49   76116   76119      47   76113   76116      49   76113   76119      49
   76128   76131      47   76125   76128      49   76125   76131      49   76140
   76143      47   76137   76140      49   76137   76143      49   76152   76155
      47   76149   76152      49   76149   76155      49   76164   76167      47
   76161   76164      49   76161   76167      49   76176   76179      47   76173
   76176      49   76173   76179      49   76188   76191      47   76185   76188
      49   76185   76191      49   76200   76203      47   76197   76200      49
   76197   76203      49   76212   76215      47   76209   76212      49   76209
   76215      49   76224   76227      47   76221   76224      49   76221   76227
      49   76236   76239      47   76233   76236      49   76233   76239      49
   76248   76251      47   76245   76248      49   76245   76251      49   76260
   76263      47   76257   76260      49   76257   76263      49   76272   76275
      47   76269   76272      49   76269   76275      49   76284   76287      47
   76281   76284      49   76281   76287      49   76296   76299      47   76293
   76296      49   76293   76299      49   76308   76311      47   76305   76308
      49   76305   76311      49   76320   76323      47   76317   76320      49
   76317   76323      49   76332   76335      47   76329   76332      49   76329
   76335      49   76344   76347      47   76341   76344      49   76341   76347
      49   76356   76359      47   76353   76356      49   76353   76359      49
   76368   76371      47   76365   76368      49   76365   76371      49   76380
   76383      47   76377   76380      49   76377   76383      49   76392   76395
      47   76389   76392      49   76389   76395      49   76404   76407      47
   76401   76404      49   76401   76407      49   76416   76419      47   76413
   76416      49   76413   76419      49   76428   76431      47   76425   76428
      49   76425   76431      49   76440   76443      47   76437   76440      49
   76437   76443      49   76452   76455      47   76449   76452      49   76449
   76455      49   76464   76467      47   76461   76464      49   76461   76467
      49   76476   76479      47   76473   76476      49   76473   76479      49
   76488   76491      47   76485   76488      49   76485   76491      49   76500
   76503      47   76497   76500      49   76497   76503      49   76512   76515
      47   76509   76512      49   76509   76515      49   76524   76527      47
   76521   76524      49   76521   76527      49   76536   76539      47   76533
   76536      49   76533   76539      49   76548   76551      47   76545   76548
      49   76545   76551      49   76560   76563      47   76557   76560      49
   76557   76563      49   76572   76575      47   76569   76572      49   76569
   76575      49   76584   76587      47   76581   76584      49   76581   76587
      49   76596   76599      47   76593   76596      49   76593   76599      49
   76608   76611      47   76605   76608      49   76605   76611      49   76620
   76623      47   76617   76620      49   76617   76623      49   76632   76635
      47   76629   76632      49   76629   76635      49   76644   76647      47
   76641   76644      49   76641   76647      49   76656   76659      47   76653
   76656      49   76653   76659      49   76668   76671      47   76665   76668
      49   76665   76671      49   76680   76683      47   76677   76680      49
   76677   76683      49   76692   76695      47   76689   76692      49   76689
   76695      49   76704   76707      47   76701   76704      49   76701   76707
      49   76716   76719      47   76713   76716      49   76713   76719      49
   76728   76731      47   76725   76728      49   76725   76731      49   76740
   76743      47   76737   76740      49   76737   76743      49   76752   76755
      47   76749   76752      49   76749   76755      49   76764   76767      47
   76761   76764      49   76761   76767      49   76776   76779      47   76773
   76776      49   76773   76779      49   76788   76791      47   76785   76788
      49   76785   76791      49   76800   76803      47   76797   76800      49
   76797   76803      49   76812   76815      47   76809   76812      49   76809
   76815      49   76824   76827      47   76821   76824      49   76821   76827
      49   76836   76839      47   76833   76836      49   76833   76839      49
   76848   76851      47   76845   76848      49   76845   76851      49   76860
   76863      47   76857   76860      49   76857   76863      49   76872   76875
      47   76869   76872      49   76869   76875      49   76884   76887      47
   76881   76884      49   76881   76887      49   76896   76899      47   76893
   76896      49   76893   76899      49   76908   76911      47   76905   76908
      49   76905   76911      49   76920   76923      47   76917   76920      49
   76917   76923      49   76932   76935      47   76929   76932      49   76929
   76935      49   76944   76947      47   76941   76944      49   76941   76947
      49   76956   76959      47   76953   76956      49   76953   76959      49
   76968   76971      47   76965   76968      49   76965   76971      49   76980
   76983      47   76977   76980      49   76977   76983      49   76992   76995
      47   76989   76992      49   76989   76995      49   77004   77007      47
   77001   77004      49   77001   77007      49   77016   77019      47   77013
   77016      49   77013   77019      49   77028   77031      47   77025   77028
      49   77025   77031      49   77040   77043      47   77037   77040      49
   77037   77043      49   77052   77055      47   77049   77052      49   77049
   77055      49   77064   77067      47   77061   77064      49   77061   77067
      49   77076   77079      47   77073   77076      49   77073   77079      49
   77088   77091      47   77085   77088      49   77085   77091      49   77100
   77103      47   77097   77100      49   77097   77103      49   77112   77115
      47   77109   77112      49   77109   77115      49   77124   77127      47
   77121   77124      49   77121   77127      49   77136   77139      47   77133
   77136      49   77133   77139      49   77148   77151      47   77145   77148
      49   77145   77151      49   77160   77163      47   77157   77160      49
   77157   77163      49   77172   77175      47   77169   77172      49   77169
   77175      49   77184   77187      47   77181   77184      49   77181   77187
      49   77196   77199      47   77193   77196      49   77193   77199      49
   77208   77211      47   77205   77208      49   77205   77211      49   77220
   77223      47   77217   77220      49   77217   77223      49   77232   77235
      47   77229   77232      49   77229   77235      49   77244   77247      47
   77241   77244      49   77241   77247      49   77256   77259      47   77253
   77256      49   77253   77259      49   77268   77271      47   77265   77268
      49   77265   77271      49   77280   77283      47   77277   77280      49
   77277   77283      49   77292   77295      47   77289   77292      49   77289
   77295      49   77304   77307      47   77301   77304      49   77301   77307
      49   77316   77319      47   77313   77316      49   77313   77319      49
   77328   77331      47   77325   77328      49   77325   77331      49   77340
   77343      47   77337   77340      49   77337   77343      49   77352   77355
      47   77349   77352      49   77349   77355      49   77364   77367      47
   77361   77364      49   77361   77367      49   77376   77379      47   77373
   77376      49   77373   77379      49   77388   77391      47   77385   77388
      49   77385   77391      49   77400   77403      47   77397   77400      49
   77397   77403      49   77412   77415      47   77409   77412      49   77409
   77415      49   77424   77427      47   77421   77424      49   77421   77427
      49   77436   77439      47   77433   77436      49   77433   77439      49
   77448   77451      47   77445   77448      49   77445   77451      49   77460
   77463      47   77457   77460      49   77457   77463      49   77472   77475
      47   77469   77472      49   77469   77475      49   77484   77487      47
   77481   77484      49   77481   77487      49   77496   77499      47   77493
   77496      49   77493   77499      49   77508   77511      47   77505   77508
      49   77505   77511      49   77520   77523      47   77517   77520      49
   77517   77523      49   77532   77535      47   77529   77532      49   77529
   77535      49   77544   77547      47   77541   77544      49   77541   77547
      49   77556   77559      47   77553   77556      49   77553   77559      49
   77568   77571      47   77565   77568      49   77565   77571      49   77580
   77583      47   77577   77580      49   77577   77583      49   77592   77595
      47   77589   77592      49   77589   77595      49   77604   77607      47
   77601   77604      49   77601   77607      49   77616   77619      47   77613
   77616      49   77613   77619      49   77628   77631      47   77625   77628
      49   77625   77631      49   77640   77643      47   77637   77640      49
   77637   77643      49   77652   77655      47   77649   77652      49   77649
   77655      49   77664   77667      47   77661   77664      49   77661   77667
      49   77676   77679      47   77673   77676      49   77673   77679      49
   77688   77691      47   77685   77688      49   77685   77691      49   77700
   77703      47   77697   77700      49   77697   77703      49   77712   77715
      47   77709   77712      49   77709   77715      49   77724   77727      47
   77721   77724      49   77721   77727      49   77736   77739      47   77733
   77736      49   77733   77739      49   77748   77751      47   77745   77748
      49   77745   77751      49   77760   77763      47   77757   77760      49
   77757   77763      49   77772   77775      47   77769   77772      49   77769
   77775      49   77784   77787      47   77781   77784      49   77781   77787
      49   77796   77799      47   77793   77796      49   77793   77799      49
   77808   77811      47   77805   77808      49   77805   77811      49   77820
   77823      47   77817   77820      49   77817   77823      49   77832   77835
      47   77829   77832      49   77829   77835      49   77844   77847      47
   77841   77844      49   77841   77847      49   77856   77859      47   77853
   77856      49   77853   77859      49   77868   77871      47   77865   77868
      49   77865   77871      49   77880   77883      47   77877   77880      49
   77877   77883      49   77892   77895      47   77889   77892      49   77889
   77895      49   77904   77907      47   77901   77904      49   77901   77907
      49   77916   77919      47   77913   77916      49   77913   77919      49
   77928   77931      47   77925   77928      49   77925   77931      49   77940
   77943      47   77937   77940      49   77937   77943      49   77952   77955
      47   77949   77952      49   77949   77955      49   77964   77967      47
   77961   77964      49   77961   77967      49   77976   77979      47   77973
   77976      49   77973   77979      49   77988   77991      47   77985   77988
      49   77985   77991      49   78000   78003      47   77997   78000      49
   77997   78003      49   78012   78015      47   78009   78012      49   78009
   78015      49   78024   78027      47   78021   78024      49   78021   78027
      49   78036   78039      47   78033   78036      49   78033   78039      49
   78048   78051      47   78045   78048      49   78045   78051      49   78060
   78063      47   78057   78060      49   78057   78063      49   78072   78075
      47   78069   78072      49   78069   78075      49   78084   78087      47
   78081   78084      49   78081   78087      49   78096   78099      47   78093
   78096      49   78093   78099      49   78108   78111      47   78105   78108
      49   78105   78111      49   78120   78123      47   78117   78120      49
   78117   78123      49   78132   78135      47   78129   78132      49   78129
   78135      49   78144   78147      47   78141   78144      49   78141   78147
      49   78156   78159      47   78153   78156      49   78153   78159      49
   78168   78171      47   78165   78168      49   78165   78171      49   78180
   78183      47   78177   78180      49   78177   78183      49   78192   78195
      47   78189   78192      49   78189   78195      49   78204   78207      47
   78201   78204      49   78201   78207      49   78216   78219      47   78213
   78216      49   78213   78219      49   78228   78231      47   78225   78228
      49   78225   78231      49   78240   78243      47   78237   78240      49
   78237   78243      49   78252   78255      47   78249   78252      49   78249
   78255      49   78264   78267      47   78261   78264      49   78261   78267
      49   78276   78279      47   78273   78276      49   78273   78279      49
   78288   78291      47   78285   78288      49   78285   78291      49   78300
   78303      47   78297   78300      49   78297   78303      49   78312   78315
      47   78309   78312      49   78309   78315      49   78324   78327      47
   78321   78324      49   78321   78327      49   78336   78339      47   78333
   78336      49   78333   78339      49   78348   78351      47   78345   78348
      49   78345   78351      49   78360   78363      47   78357   78360      49
   78357   78363      49   78372   78375      47   78369   78372      49   78369
   78375      49   78384   78387      47   78381   78384      49   78381   78387
      49   78396   78399      47   78393   78396      49   78393   78399      49
   78408   78411      47   78405   78408      49   78405   78411      49   78420
   78423      47   78417   78420      49   78417   78423      49   78432   78435
      47   78429   78432      49   78429   78435      49   78444   78447      47
   78441   78444      49   78441   78447      49   78456   78459      47   78453
   78456      49   78453   78459      49   78468   78471      47   78465   78468
      49   78465   78471      49   78480   78483      47   78477   78480      49
   78477   78483      49   78492   78495      47   78489   78492      49   78489
   78495      49   78504   78507      47   78501   78504      49   78501   78507
      49   78516   78519      47   78513   78516      49   78513   78519      49
   78528   78531      47   78525   78528      49   78525   78531      49   78540
   78543      47   78537   78540      49   78537   78543      49   78552   78555
      47   78549   78552      49   78549   78555      49   78564   78567      47
   78561   78564      49   78561   78567      49   78576   78579      47   78573
   78576      49   78573   78579      49   78588   78591      47   78585   78588
      49   78585   78591      49   78600   78603      47   78597   78600      49
   78597   78603      49   78612   78615      47   78609   78612      49   78609
   78615      49   78624   78627      47   78621   78624      49   78621   78627
      49   78636   78639      47   78633   78636      49   78633   78639      49
   78648   78651      47   78645   78648      49   78645   78651      49   78660
   78663      47   78657   78660      49   78657   78663      49   78672   78675
      47   78669   78672      49   78669   78675      49   78684   78687      47
   78681   78684      49   78681   78687      49   78696   78699      47   78693
   78696      49   78693   78699      49   78708   78711      47   78705   78708
      49   78705   78711      49   78720   78723      47   78717   78720      49
   78717   78723      49   78732   78735      47   78729   78732      49   78729
   78735      49   78744   78747      47   78741   78744      49   78741   78747
      49   78756   78759      47   78753   78756      49   78753   78759      49
   78768   78771      47   78765   78768      49   78765   78771      49   78780
   78783      47   78777   78780      49   78777   78783      49   78792   78795
      47   78789   78792      49   78789   78795      49   78804   78807      47
   78801   78804      49   78801   78807      49   78816   78819      47   78813
   78816      49   78813   78819      49   78828   78831      47   78825   78828
      49   78825   78831      49   78840   78843      47   78837   78840      49
   78837   78843      49   78852   78855      47   78849   78852      49   78849
   78855      49   78864   78867      47   78861   78864      49   78861   78867
      49   78876   78879      47   78873   78876      49   78873   78879      49
   78888   78891      47   78885   78888      49   78885   78891      49   78900
   78903      47   78897   78900      49   78897   78903      49   78912   78915
      47   78909   78912      49   78909   78915      49   78924   78927      47
   78921   78924      49   78921   78927      49   78936   78939      47   78933
   78936      49   78933   78939      49   78948   78951      47   78945   78948
      49   78945   78951      49   78960   78963      47   78957   78960      49
   78957   78963      49   78972   78975      47   78969   78972      49   78969
   78975      49   78984   78987      47   78981   78984      49   78981   78987
      49   78996   78999      47   78993   78996      49   78993   78999      49
   79008   79011      47   79005   79008      49   79005   79011      49   79020
   79023      47   79017   79020      49   79017   79023      49   79032   79035
      47   79029   79032      49   79029   79035      49   79044   79047      47
   79041   79044      49   79041   79047      49   79056   79059      47   79053
   79056      49   79053   79059      49   79068   79071      47   79065   79068
      49   79065   79071      49   79080   79083      47   79077   79080      49
   79077   79083      49   79092   79095      47   79089   79092      49   79089
   79095      49   79104   79107      47   79101   79104      49   79101   79107
      49   79116   79119      47   79113   79116      49   79113   79119      49
   79128   79131      47   79125   79128      49   79125   79131      49   79140
   79143      47   79137   79140      49   79137   79143      49   79152   79155
      47   79149   79152      49   79149   79155      49   79164   79167      47
   79161   79164      49   79161   79167      49   79176   79179      47   79173
   79176      49   79173   79179      49   79188   79191      47   79185   79188
      49   79185   79191      49   79200   79203      47   79197   79200      49
   79197   79203      49   79212   79215      47   79209   79212      49   79209
   79215      49   79224   79227      47   79221   79224      49   79221   79227
      49   79236   79239      47   79233   79236      49   79233   79239      49
   79248   79251      47   79245   79248      49   79245   79251      49   79260
   79263      47   79257   79260      49   79257   79263      49   79272   79275
      47   79269   79272      49   79269   79275      49   79284   79287      47
   79281   79284      49   79281   79287      49   79296   79299      47   79293
   79296      49   79293   79299      49   79308   79311      47   79305   79308
      49   79305   79311      49   79320   79323      47   79317   79320      49
   79317   79323      49   79332   79335      47   79329   79332      49   79329
   79335      49   79344   79347      47   79341   79344      49   79341   79347
      49   79356   79359      47   79353   79356      49   79353   79359      49
   79368   79371      47   79365   79368      49   79365   79371      49   79380
   79383      47   79377   79380      49   79377   79383      49   79392   79395
      47   79389   79392      49   79389   79395      49   79404   79407      47
   79401   79404      49   79401   79407      49   79416   79419      47   79413
   79416      49   79413   79419      49   79428   79431      47   79425   79428
      49   79425   79431      49   79440   79443      47   79437   79440      49
   79437   79443      49   79452   79455      47   79449   79452      49   79449
   79455      49   79464   79467      47   79461   79464      49   79461   79467
      49   79476   79479      47   79473   79476      49   79473   79479      49
   79488   79491      47   79485   79488      49   79485   79491      49   79500
   79503      47   79497   79500      49   79497   79503      49   79512   79515
      47   79509   79512      49   79509   79515      49   79524   79527      47
   79521   79524      49   79521   79527      49   79536   79539      47   79533
   79536      49   79533   79539      49   79548   79551      47   79545   79548
      49   79545   79551      49   79560   79563      47   79557   79560      49
   79557   79563      49   79572   79575      47   79569   79572      49   79569
   79575      49   79584   79587      47   79581   79584      49   79581   79587
      49   79596   79599      47   79593   79596      49   79593   79599      49
   79608   79611      47   79605   79608      49   79605   79611      49   79620
   79623      47   79617   79620      49   79617   79623      49   79632   79635
      47   79629   79632      49   79629   79635      49   79644   79647      47
   79641   79644      49   79641   79647      49   79656   79659      47   79653
   79656      49   79653   79659      49   79668   79671      47   79665   79668
      49   79665   79671      49   79680   79683      47   79677   79680      49
   79677   79683      49   79692   79695      47   79689   79692      49   79689
   79695      49   79704   79707      47   79701   79704      49   79701   79707
      49   79716   79719      47   79713   79716      49   79713   79719      49
   79728   79731      47   79725   79728      49   79725   79731      49   79740
   79743      47   79737   79740      49   79737   79743      49   79752   79755
      47   79749   79752      49   79749   79755      49   79764   79767      47
   79761   79764      49   79761   79767      49   79776   79779      47   79773
   79776      49   79773   79779      49   79788   79791      47   79785   79788
      49   79785   79791      49   79800   79803      47   79797   79800      49
   79797   79803      49   79812   79815      47   79809   79812      49   79809
   79815      49   79824   79827      47   79821   79824      49   79821   79827
      49   79836   79839      47   79833   79836      49   79833   79839      49
   79848   79851      47   79845   79848      49   79845   79851      49   79860
   79863      47   79857   79860      49   79857   79863      49   79872   79875
      47   79869   79872      49   79869   79875      49   79884   79887      47
   79881   79884      49   79881   79887      49   79896   79899      47   79893
   79896      49   79893   79899      49   79908   79911      47   79905   79908
      49   79905   79911      49   79920   79923      47   79917   79920      49
   79917   79923      49   79932   79935      47   79929   79932      49   79929
   79935      49   79944   79947      47   79941   79944      49   79941   79947
      49   79956   79959      47   79953   79956      49   79953   79959      49
   79968   79971      47   79965   79968      49   79965   79971      49   79980
   79983      47   79977   79980      49   79977   79983      49   79992   79995
      47   79989   79992      49   79989   79995      49   80004   80007      47
   80001   80004      49   80001   80007      49   80016   80019      47   80013
   80016      49   80013   80019      49   80028   80031      47   80025   80028
      49   80025   80031      49   80040   80043      47   80037   80040      49
   80037   80043      49   80052   80055      47   80049   80052      49   80049
   80055      49   80064   80067      47   80061   80064      49   80061   80067
      49   80076   80079      47   80073   80076      49   80073   80079      49
   80088   80091      47   80085   80088      49   80085   80091      49   80100
   80103      47   80097   80100      49   80097   80103      49   80112   80115
      47   80109   80112      49   80109   80115      49   80124   80127      47
   80121   80124      49   80121   80127      49   80136   80139      47   80133
   80136      49   80133   80139      49   80148   80151      47   80145   80148
      49   80145   80151      49   80160   80163      47   80157   80160      49
   80157   80163      49   80172   80175      47   80169   80172      49   80169
   80175      49   80184   80187      47   80181   80184      49   80181   80187
      49   80196   80199      47   80193   80196      49   80193   80199      49
   80208   80211      47   80205   80208      49   80205   80211      49   80220
   80223      47   80217   80220      49   80217   80223      49   80232   80235
      47   80229   80232      49   80229   80235      49   80244   80247      47
   80241   80244      49   80241   80247      49   80256   80259      47   80253
   80256      49   80253   80259      49   80268   80271      47   80265   80268
      49   80265   80271      49   80280   80283      47   80277   80280      49
   80277   80283      49   80292   80295      47   80289   80292      49   80289
   80295      49   80304   80307      47   80301   80304      49   80301   80307
      49   80316   80319      47   80313   80316      49   80313   80319      49
   80328   80331      47   80325   80328      49   80325   80331      49   80340
   80343      47   80337   80340      49   80337   80343      49   80352   80355
      47   80349   80352      49   80349   80355      49   80364   80367      47
   80361   80364      49   80361   80367      49   80376   80379      47   80373
   80376      49   80373   80379      49   80388   80391      47   80385   80388
      49   80385   80391      49   80400   80403      47   80397   80400      49
   80397   80403      49   80412   80415      47   80409   80412      49   80409
   80415      49   80424   80427      47   80421   80424      49   80421   80427
      49   80436   80439      47   80433   80436      49   80433   80439      49
   80448   80451      47   80445   80448      49   80445   80451      49   80460
   80463      47   80457   80460      49   80457   80463      49   80472   80475
      47   80469   80472      49   80469   80475      49   80484   80487      47
   80481   80484      49   80481   80487      49   80496   80499      47   80493
   80496      49   80493   80499      49   80508   80511      47   80505   80508
      49   80505   80511      49   80520   80523      47   80517   80520      49
   80517   80523      49   80532   80535      47   80529   80532      49   80529
   80535      49   80544   80547      47   80541   80544      49   80541   80547
      49   80556   80559      47   80553   80556      49   80553   80559      49
   80568   80571      47   80565   80568      49   80565   80571      49   80580
   80583      47   80577   80580      49   80577   80583      49   80592   80595
      47   80589   80592      49   80589   80595      49   80604   80607      47
   80601   80604      49   80601   80607      49   80616   80619      47   80613
   80616      49   80613   80619      49   80628   80631      47   80625   80628
      49   80625   80631      49   80640   80643      47   80637   80640      49
   80637   80643      49   80652   80655      47   80649   80652      49   80649
   80655      49   80664   80667      47   80661   80664      49   80661   80667
      49   80676   80679      47   80673   80676      49   80673   80679      49
   80688   80691      47   80685   80688      49   80685   80691      49   80700
   80703      47   80697   80700      49   80697   80703      49   80712   80715
      47   80709   80712      49   80709   80715      49   80724   80727      47
   80721   80724      49   80721   80727      49   80736   80739      47   80733
   80736      49   80733   80739      49   80748   80751      47   80745   80748
      49   80745   80751      49   80760   80763      47   80757   80760      49
   80757   80763      49   80772   80775      47   80769   80772      49   80769
   80775      49   80784   80787      47   80781   80784      49   80781   80787
      49   80796   80799      47   80793   80796      49   80793   80799      49
   80808   80811      47   80805   80808      49   80805   80811      49   80820
   80823      47   80817   80820      49   80817   80823      49   80832   80835
      47   80829   80832      49   80829   80835      49   80844   80847      47
   80841   80844      49   80841   80847      49   80856   80859      47   80853
   80856      49   80853   80859      49   80868   80871      47   80865   80868
      49   80865   80871      49   80880   80883      47   80877   80880      49
   80877   80883      49   80892   80895      47   80889   80892      49   80889
   80895      49   80904   80907      47   80901   80904      49   80901   80907
      49   80916   80919      47   80913   80916      49   80913   80919      49
   80928   80931      47   80925   80928      49   80925   80931      49   80940
   80943      47   80937   80940      49   80937   80943      49   80952   80955
      47   80949   80952      49   80949   80955      49   80964   80967      47
   80961   80964      49   80961   80967      49   80976   80979      47   80973
   80976      49   80973   80979      49   80988   80991      47   80985   80988
      49   80985   80991      49   81000   81003      47   80997   81000      49
   80997   81003      49   81012   81015      47   81009   81012      49   81009
   81015      49   81024   81027      47   81021   81024      49   81021   81027
      49   81036   81039      47   81033   81036      49   81033   81039      49
   81048   81051      47   81045   81048      49   81045   81051      49   81060
   81063      47   81057   81060      49   81057   81063      49   81072   81075
      47   81069   81072      49   81069   81075      49   81084   81087      47
   81081   81084      49   81081   81087      49   81096   81099      47   81093
   81096      49   81093   81099      49   81108   81111      47   81105   81108
      49   81105   81111      49   81120   81123      47   81117   81120      49
   81117   81123      49   81132   81135      47   81129   81132      49   81129
   81135      49   81144   81147      47   81141   81144      49   81141   81147
      49   81156   81159      47   81153   81156      49   81153   81159      49
   81168   81171      47   81165   81168      49   81165   81171      49   81180
   81183      47   81177   81180      49   81177   81183      49   81192   81195
      47   81189   81192      49   81189   81195      49   81204   81207      47
   81201   81204      49   81201   81207      49   81216   81219      47   81213
   81216      49   81213   81219      49   81228   81231      47   81225   81228
      49   81225   81231      49   81240   81243      47   81237   81240      49
   81237   81243      49   81252   81255      47   81249   81252      49   81249
   81255      49   81264   81267      47   81261   81264      49   81261   81267
      49   81276   81279      47   81273   81276      49   81273   81279      49
   81288   81291      47   81285   81288      49   81285   81291      49   81300
   81303      47   81297   81300      49   81297   81303      49   81312   81315
      47   81309   81312      49   81309   81315      49   81324   81327      47
   81321   81324      49   81321   81327      49   81336   81339      47   81333
   81336      49   81333   81339      49   81348   81351      47   81345   81348
      49   81345   81351      49   81360   81363      47   81357   81360      49
   81357   81363      49   81372   81375      47   81369   81372      49   81369
   81375      49   81384   81387      47   81381   81384      49   81381   81387
      49   81396   81399      47   81393   81396      49   81393   81399      49
   81408   81411      47   81405   81408      49   81405   81411      49   81420
   81423      47   81417   81420      49   81417   81423      49   81432   81435
      47   81429   81432      49   81429   81435      49   81444   81447      47
   81441   81444      49   81441   81447      49   81456   81459      47   81453
   81456      49   81453   81459      49   81468   81471      47   81465   81468
      49   81465   81471      49   81480   81483      47   81477   81480      49
   81477   81483      49   81492   81495      47   81489   81492      49   81489
   81495      49   81504   81507      47   81501   81504      49   81501   81507
      49   81516   81519      47   81513   81516      49   81513   81519      49
   81528   81531      47   81525   81528      49   81525   81531      49   81540
   81543      47   81537   81540      49   81537   81543      49   81552   81555
      47   81549   81552      49   81549   81555      49   81564   81567      47
   81561   81564      49   81561   81567      49   81576   81579      47   81573
   81576      49   81573   81579      49   81588   81591      47   81585   81588
      49   81585   81591      49   81600   81603      47   81597   81600      49
   81597   81603      49   81612   81615      47   81609   81612      49   81609
   81615      49   81624   81627      47   81621   81624      49   81621   81627
      49   81636   81639      47   81633   81636      49   81633   81639      49
   81648   81651      47   81645   81648      49   81645   81651      49   81660
   81663      47   81657   81660      49   81657   81663      49   81672   81675
      47   81669   81672      49   81669   81675      49   81684   81687      47
   81681   81684      49   81681   81687      49   81696   81699      47   81693
   81696      49   81693   81699      49   81708   81711      47   81705   81708
      49   81705   81711      49   81720   81723      47   81717   81720      49
   81717   81723      49   81732   81735      47   81729   81732      49   81729
   81735      49   81744   81747      47   81741   81744      49   81741   81747
      49   81756   81759      47   81753   81756      49   81753   81759      49
   81768   81771      47   81765   81768      49   81765   81771      49   81780
   81783      47   81777   81780      49   81777   81783      49   81792   81795
      47   81789   81792      49   81789   81795      49   81804   81807      47
   81801   81804      49   81801   81807      49   81816   81819      47   81813
   81816      49   81813   81819      49   81828   81831      47   81825   81828
      49   81825   81831      49   81840   81843      47   81837   81840      49
   81837   81843      49   81852   81855      47   81849   81852      49   81849
   81855      49   81864   81867      47   81861   81864      49   81861   81867
      49   81876   81879      47   81873   81876      49   81873   81879      49
   81888   81891      47   81885   81888      49   81885   81891      49   81900
   81903      47   81897   81900      49   81897   81903      49   81912   81915
      47   81909   81912      49   81909   81915      49   81924   81927      47
   81921   81924      49   81921   81927      49   81936   81939      47   81933
   81936      49   81933   81939      49   81948   81951      47   81945   81948
      49   81945   81951      49   81960   81963      47   81957   81960      49
   81957   81963      49   81972   81975      47   81969   81972      49   81969
   81975      49   81984   81987      47   81981   81984      49   81981   81987
      49   81996   81999      47   81993   81996      49   81993   81999      49
   82008   82011      47   82005   82008      49   82005   82011      49   82020
   82023      47   82017   82020      49   82017   82023      49   82032   82035
      47   82029   82032      49   82029   82035      49   82044   82047      47
   82041   82044      49   82041   82047      49   82056   82059      47   82053
   82056      49   82053   82059      49   82068   82071      47   82065   82068
      49   82065   82071      49   82080   82083      47   82077   82080      49
   82077   82083      49   82092   82095      47   82089   82092      49   82089
   82095      49   82104   82107      47   82101   82104      49   82101   82107
      49   82116   82119      47   82113   82116      49   82113   82119      49
   82128   82131      47   82125   82128      49   82125   82131      49   82140
   82143      47   82137   82140      49   82137   82143      49   82152   82155
      47   82149   82152      49   82149   82155      49   82164   82167      47
   82161   82164      49   82161   82167      49   82176   82179      47   82173
   82176      49   82173   82179      49   82188   82191      47   82185   82188
      49   82185   82191      49   82200   82203      47   82197   82200      49
   82197   82203      49   82212   82215      47   82209   82212      49   82209
   82215      49   82224   82227      47   82221   82224      49   82221   82227
      49   82236   82239      47   82233   82236      49   82233   82239      49
   82248   82251      47   82245   82248      49   82245   82251      49   82260
   82263      47   82257   82260      49   82257   82263      49   82272   82275
      47   82269   82272      49   82269   82275      49   82284   82287      47
   82281   82284      49   82281   82287      49   82296   82299      47   82293
   82296      49   82293   82299      49   82308   82311      47   82305   82308
      49   82305   82311      49   82320   82323      47   82317   82320      49
   82317   82323      49   82332   82335      47   82329   82332      49   82329
   82335      49   82344   82347      47   82341   82344      49   82341   82347
      49   82356   82359      47   82353   82356      49   82353   82359      49
   82368   82371      47   82365   82368      49   82365   82371      49   82380
   82383      47   82377   82380      49   82377   82383      49   82392   82395
      47   82389   82392      49   82389   82395      49   82404   82407      47
   82401   82404      49   82401   82407      49   82416   82419      47   82413
   82416      49   82413   82419      49   82428   82431      47   82425   82428
      49   82425   82431      49   82440   82443      47   82437   82440      49
   82437   82443      49   82452   82455      47   82449   82452      49   82449
   82455      49   82464   82467      47   82461   82464      49   82461   82467
      49   82476   82479      47   82473   82476      49   82473   82479      49
   82488   82491      47   82485   82488      49   82485   82491      49   82500
   82503      47   82497   82500      49   82497   82503      49   82512   82515
      47   82509   82512      49   82509   82515      49   82524   82527      47
   82521   82524      49   82521   82527      49   82536   82539      47   82533
   82536      49   82533   82539      49   82548   82551      47   82545   82548
      49   82545   82551      49   82560   82563      47   82557   82560      49
   82557   82563      49   82572   82575      47   82569   82572      49   82569
   82575      49   82584   82587      47   82581   82584      49   82581   82587
      49   82596   82599      47   82593   82596      49   82593   82599      49
   82608   82611      47   82605   82608      49   82605   82611      49   82620
   82623      47   82617   82620      49   82617   82623      49   82632   82635
      47   82629   82632      49   82629   82635      49   82644   82647      47
   82641   82644      49   82641   82647      49   82656   82659      47   82653
   82656      49   82653   82659      49   82668   82671      47   82665   82668
      49   82665   82671      49   82680   82683      47   82677   82680      49
   82677   82683      49   82692   82695      47   82689   82692      49   82689
   82695      49   82704   82707      47   82701   82704      49   82701   82707
      49   82716   82719      47   82713   82716      49   82713   82719      49
   82728   82731      47   82725   82728      49   82725   82731      49   82740
   82743      47   82737   82740      49   82737   82743      49   82752   82755
      47   82749   82752      49   82749   82755      49   82764   82767      47
   82761   82764      49   82761   82767      49   82776   82779      47   82773
   82776      49   82773   82779      49   82788   82791      47   82785   82788
      49   82785   82791      49   82800   82803      47   82797   82800      49
   82797   82803      49   82812   82815      47   82809   82812      49   82809
   82815      49   82824   82827      47   82821   82824      49   82821   82827
      49   82836   82839      47   82833   82836      49   82833   82839      49
   82848   82851      47   82845   82848      49   82845   82851      49   82860
   82863      47   82857   82860      49   82857   82863      49   82872   82875
      47   82869   82872      49   82869   82875      49   82884   82887      47
   82881   82884      49   82881   82887      49   82896   82899      47   82893
   82896      49   82893   82899      49   82908   82911      47   82905   82908
      49   82905   82911      49   82920   82923      47   82917   82920      49
   82917   82923      49   82932   82935      47   82929   82932      49   82929
   82935      49   82944   82947      47   82941   82944      49   82941   82947
      49   82956   82959      47   82953   82956      49   82953   82959      49
   82968   82971      47   82965   82968      49   82965   82971      49   82980
   82983      47   82977   82980      49   82977   82983      49   82992   82995
      47   82989   82992      49   82989   82995      49   83004   83007      47
   83001   83004      49   83001   83007      49   83016   83019      47   83013
   83016      49   83013   83019      49   83028   83031      47   83025   83028
      49   83025   83031      49   83040   83043      47   83037   83040      49
   83037   83043      49   83052   83055      47   83049   83052      49   83049
   83055      49   83064   83067      47   83061   83064      49   83061   83067
      49   83076   83079      47   83073   83076      49   83073   83079      49
   83088   83091      47   83085   83088      49   83085   83091      49   83100
   83103      47   83097   83100      49   83097   83103      49   83112   83115
      47   83109   83112      49   83109   83115      49   83124   83127      47
   83121   83124      49   83121   83127      49   83136   83139      47   83133
   83136      49   83133   83139      49   83148   83151      47   83145   83148
      49   83145   83151      49   83160   83163      47   83157   83160      49
   83157   83163      49   83172   83175      47   83169   83172      49   83169
   83175      49   83184   83187      47   83181   83184      49   83181   83187
      49   83196   83199      47   83193   83196      49   83193   83199      49
   83208   83211      47   83205   83208      49   83205   83211      49   83220
   83223      47   83217   83220      49   83217   83223      49   83232   83235
      47   83229   83232      49   83229   83235      49   83244   83247      47
   83241   83244      49   83241   83247      49   83256   83259      47   83253
   83256      49   83253   83259      49   83268   83271      47   83265   83268
      49   83265   83271      49   83280   83283      47   83277   83280      49
   83277   83283      49   83292   83295      47   83289   83292      49   83289
   83295      49   83304   83307      47   83301   83304      49   83301   83307
      49   83316   83319      47   83313   83316      49   83313   83319      49
   83328   83331      47   83325   83328      49   83325   83331      49   83340
   83343      47   83337   83340      49   83337   83343      49   83352   83355
      47   83349   83352      49   83349   83355      49   83364   83367      47
   83361   83364      49   83361   83367      49   83376   83379      47   83373
   83376      49   83373   83379      49   83388   83391      47   83385   83388
      49   83385   83391      49   83400   83403      47   83397   83400      49
   83397   83403      49   83412   83415      47   83409   83412      49   83409
   83415      49   83424   83427      47   83421   83424      49   83421   83427
      49   83436   83439      47   83433   83436      49   83433   83439      49
   83448   83451      47   83445   83448      49   83445   83451      49   83460
   83463      47   83457   83460      49   83457   83463      49   83472   83475
      47   83469   83472      49   83469   83475      49   83484   83487      47
   83481   83484      49   83481   83487      49   83496   83499      47   83493
   83496      49   83493   83499      49   83508   83511      47   83505   83508
      49   83505   83511      49   83520   83523      47   83517   83520      49
   83517   83523      49   83532   83535      47   83529   83532      49   83529
   83535      49   83544   83547      47   83541   83544      49   83541   83547
      49   83556   83559      47   83553   83556      49   83553   83559      49
   83568   83571      47   83565   83568      49   83565   83571      49   83580
   83583      47   83577   83580      49   83577   83583      49   83592   83595
      47   83589   83592      49   83589   83595      49   83604   83607      47
   83601   83604      49   83601   83607      49   83616   83619      47   83613
   83616      49   83613   83619      49   83628   83631      47   83625   83628
      49   83625   83631      49   83640   83643      47   83637   83640      49
   83637   83643      49   83652   83655      47   83649   83652      49   83649
   83655      49   83664   83667      47   83661   83664      49   83661   83667
      49   83676   83679      47   83673   83676      49   83673   83679      49
   83688   83691      47   83685   83688      49   83685   83691      49   83700
   83703      47   83697   83700      49   83697   83703      49   83712   83715
      47   83709   83712      49   83709   83715      49   83724   83727      47
   83721   83724      49   83721   83727      49   83736   83739      47   83733
   83736      49   83733   83739      49   83748   83751      47   83745   83748
      49   83745   83751      49   83760   83763      47   83757   83760      49
   83757   83763      49   83772   83775      47   83769   83772      49   83769
   83775      49   83784   83787      47   83781   83784      49   83781   83787
      49   83796   83799      47   83793   83796      49   83793   83799      49
   83808   83811      47   83805   83808      49   83805   83811      49   83820
   83823      47   83817   83820      49   83817   83823      49   83832   83835
      47   83829   83832      49   83829   83835      49   83844   83847      47
   83841   83844      49   83841   83847      49   83856   83859      47   83853
   83856      49   83853   83859      49   83868   83871      47   83865   83868
      49   83865   83871      49   83880   83883      47   83877   83880      49
   83877   83883      49   83892   83895      47   83889   83892      49   83889
   83895      49   83904   83907      47   83901   83904      49   83901   83907
      49   83916   83919      47   83913   83916      49   83913   83919      49
   83928   83931      47   83925   83928      49   83925   83931      49   83940
   83943      47   83937   83940      49   83937   83943      49   83952   83955
      47   83949   83952      49   83949   83955      49   83964   83967      47
   83961   83964      49   83961   83967      49   83976   83979      47   83973
   83976      49   83973   83979      49   83988   83991      47   83985   83988
      49   83985   83991      49   84000   84003      47   83997   84000      49
   83997   84003      49   84012   84015      47   84009   84012      49   84009
   84015      49   84024   84027      47   84021   84024      49   84021   84027
      49   84036   84039      47   84033   84036      49   84033   84039      49
   84048   84051      47   84045   84048      49   84045   84051      49   84060
   84063      47   84057   84060      49   84057   84063      49   84072   84075
      47   84069   84072      49   84069   84075      49   84084   84087      47
   84081   84084      49   84081   84087      49   84096   84099      47   84093
   84096      49   84093   84099      49   84108   84111      47   84105   84108
      49   84105   84111      49   84120   84123      47   84117   84120      49
   84117   84123      49   84132   84135      47   84129   84132      49   84129
   84135      49   84144   84147      47   84141   84144      49   84141   84147
      49   84156   84159      47   84153   84156      49   84153   84159      49
   84168   84171      47   84165   84168      49   84165   84171      49   84180
   84183      47   84177   84180      49   84177   84183      49   84192   84195
      47   84189   84192      49   84189   84195      49   84204   84207      47
   84201   84204      49   84201   84207      49   84216   84219      47   84213
   84216      49   84213   84219      49   84228   84231      47   84225   84228
      49   84225   84231      49   84240   84243      47   84237   84240      49
   84237   84243      49   84252   84255      47   84249   84252      49   84249
   84255      49   84264   84267      47   84261   84264      49   84261   84267
      49   84276   84279      47   84273   84276      49   84273   84279      49
   84288   84291      47   84285   84288      49   84285   84291      49   84300
   84303      47   84297   84300      49   84297   84303      49   84312   84315
      47   84309   84312      49   84309   84315      49   84324   84327      47
   84321   84324      49   84321   84327      49   84336   84339      47   84333
   84336      49   84333   84339      49   84348   84351      47   84345   84348
      49   84345   84351      49   84360   84363      47   84357   84360      49
   84357   84363      49   84372   84375      47   84369   84372      49   84369
   84375      49   84384   84387      47   84381   84384      49   84381   84387
      49   84396   84399      47   84393   84396      49   84393   84399      49
   84408   84411      47   84405   84408      49   84405   84411      49   84420
   84423      47   84417   84420      49   84417   84423      49   84432   84435
      47   84429   84432      49   84429   84435      49   84444   84447      47
   84441   84444      49   84441   84447      49   84456   84459      47   84453
   84456      49   84453   84459      49   84468   84471      47   84465   84468
      49   84465   84471      49   84480   84483      47   84477   84480      49
   84477   84483      49   84492   84495      47   84489   84492      49   84489
   84495      49   84504   84507      47   84501   84504      49   84501   84507
      49   84516   84519      47   84513   84516      49   84513   84519      49
   84528   84531      47   84525   84528      49   84525   84531      49   84540
   84543      47   84537   84540      49   84537   84543      49   84552   84555
      47   84549   84552      49   84549   84555      49   84564   84567      47
   84561   84564      49   84561   84567      49   84576   84579      47   84573
   84576      49   84573   84579      49   84588   84591      47   84585   84588
      49   84585   84591      49   84600   84603      47   84597   84600      49
   84597   84603      49   84612   84615      47   84609   84612      49   84609
   84615      49   84624   84627      47   84621   84624      49   84621   84627
      49   84636   84639      47   84633   84636      49   84633   84639      49
   84648   84651      47   84645   84648      49   84645   84651      49   84660
   84663      47   84657   84660      49   84657   84663      49   84672   84675
      47   84669   84672      49   84669   84675      49   84684   84687      47
   84681   84684      49   84681   84687      49   84696   84699      47   84693
   84696      49   84693   84699      49   84708   84711      47   84705   84708
      49   84705   84711      49   84720   84723      47   84717   84720      49
   84717   84723      49   84732   84735      47   84729   84732      49   84729
   84735      49   84744   84747      47   84741   84744      49   84741   84747
      49   84756   84759      47   84753   84756      49   84753   84759      49
   84768   84771      47   84765   84768      49   84765   84771      49   84780
   84783      47   84777   84780      49   84777   84783      49   84792   84795
      47   84789   84792      49   84789   84795      49   84804   84807      47
   84801   84804      49   84801   84807      49   84816   84819      47   84813
   84816      49   84813   84819      49   84828   84831      47   84825   84828
      49   84825   84831      49   84840   84843      47   84837   84840      49
   84837   84843      49   84852   84855      47   84849   84852      49   84849
   84855      49   84864   84867      47   84861   84864      49   84861   84867
      49   84876   84879      47   84873   84876      49   84873   84879      49
   84888   84891      47   84885   84888      49   84885   84891      49   84900
   84903      47   84897   84900      49   84897   84903      49   84912   84915
      47   84909   84912      49   84909   84915      49   84924   84927      47
   84921   84924      49   84921   84927      49   84936   84939      47   84933
   84936      49   84933   84939      49   84948   84951      47   84945   84948
      49   84945   84951      49   84960   84963      47   84957   84960      49
   84957   84963      49   84972   84975      47   84969   84972      49   84969
   84975      49   84984   84987      47   84981   84984      49   84981   84987
      49   84996   84999      47   84993   84996      49   84993   84999      49
   85008   85011      47   85005   85008      49   85005   85011      49   85020
   85023      47   85017   85020      49   85017   85023      49   85032   85035
      47   85029   85032      49   85029   85035      49   85044   85047      47
   85041   85044      49   85041   85047      49   85056   85059      47   85053
   85056      49   85053   85059      49   85068   85071      47   85065   85068
      49   85065   85071      49   85080   85083      47   85077   85080      49
   85077   85083      49   85092   85095      47   85089   85092      49   85089
   85095      49   85104   85107      47   85101   85104      49   85101   85107
      49   85116   85119      47   85113   85116      49   85113   85119      49
   85128   85131      47   85125   85128      49   85125   85131      49   85140
   85143      47   85137   85140      49   85137   85143      49   85152   85155
      47   85149   85152      49   85149   85155      49   85164   85167      47
   85161   85164      49   85161   85167      49   85176   85179      47   85173
   85176      49   85173   85179      49   85188   85191      47   85185   85188
      49   85185   85191      49   85200   85203      47   85197   85200      49
   85197   85203      49   85212   85215      47   85209   85212      49   85209
   85215      49   85224   85227      47   85221   85224      49   85221   85227
      49   85236   85239      47   85233   85236      49   85233   85239      49
   85248   85251      47   85245   85248      49   85245   85251      49   85260
   85263      47   85257   85260      49   85257   85263      49   85272   85275
      47   85269   85272      49   85269   85275      49   85284   85287      47
   85281   85284      49   85281   85287      49   85296   85299      47   85293
   85296      49   85293   85299      49   85308   85311      47   85305   85308
      49   85305   85311      49   85320   85323      47   85317   85320      49
   85317   85323      49   85332   85335      47   85329   85332      49   85329
   85335      49   85344   85347      47   85341   85344      49   85341   85347
      49   85356   85359      47   85353   85356      49   85353   85359      49
   85368   85371      47   85365   85368      49   85365   85371      49   85380
   85383      47   85377   85380      49   85377   85383      49   85392   85395
      47   85389   85392      49   85389   85395      49   85404   85407      47
   85401   85404      49   85401   85407      49   85416   85419      47   85413
   85416      49   85413   85419      49   85428   85431      47   85425   85428
      49   85425   85431      49   85440   85443      47   85437   85440      49
   85437   85443      49   85452   85455      47   85449   85452      49   85449
   85455      49   85464   85467      47   85461   85464      49   85461   85467
      49   85476   85479      47   85473   85476      49   85473   85479      49
   85488   85491      47   85485   85488      49   85485   85491      49   85500
   85503      47   85497   85500      49   85497   85503      49   85512   85515
      47   85509   85512      49   85509   85515      49   85524   85527      47
   85521   85524      49   85521   85527      49   85536   85539      47   85533
   85536      49   85533   85539      49   85548   85551      47   85545   85548
      49   85545   85551      49   85560   85563      47   85557   85560      49
   85557   85563      49   85572   85575      47   85569   85572      49   85569
   85575      49   85584   85587      47   85581   85584      49   85581   85587
      49   85596   85599      47   85593   85596      49   85593   85599      49
   85608   85611      47   85605   85608      49   85605   85611      49   85620
   85623      47   85617   85620      49   85617   85623      49   85632   85635
      47   85629   85632      49   85629   85635      49   85644   85647      47
   85641   85644      49   85641   85647      49   85656   85659      47   85653
   85656      49   85653   85659      49   85668   85671      47   85665   85668
      49   85665   85671      49   85680   85683      47   85677   85680      49
   85677   85683      49   85692   85695      47   85689   85692      49   85689
   85695      49   85704   85707      47   85701   85704      49   85701   85707
      49   85716   85719      47   85713   85716      49   85713   85719      49
   85728   85731      47   85725   85728      49   85725   85731      49   85740
   85743      47   85737   85740      49   85737   85743      49   85752   85755
      47   85749   85752      49   85749   85755      49   85764   85767      47
   85761   85764      49   85761   85767      49   85776   85779      47   85773
   85776      49   85773   85779      49   85788   85791      47   85785   85788
      49   85785   85791      49   85800   85803      47   85797   85800      49
   85797   85803      49   85812   85815      47   85809   85812      49   85809
   85815      49   85824   85827      47   85821   85824      49   85821   85827
      49   85836   85839      47   85833   85836      49   85833   85839      49
   85848   85851      47   85845   85848      49   85845   85851      49   85860
   85863      47   85857   85860      49   85857   85863      49   85872   85875
      47   85869   85872      49   85869   85875      49   85884   85887      47
   85881   85884      49   85881   85887      49   85896   85899      47   85893
   85896      49   85893   85899      49   85908   85911      47   85905   85908
      49   85905   85911      49   85920   85923      47   85917   85920      49
   85917   85923      49   85932   85935      47   85929   85932      49   85929
   85935      49   85944   85947      47   85941   85944      49   85941   85947
      49   85956   85959      47   85953   85956      49   85953   85959      49
   85968   85971      47   85965   85968      49   85965   85971      49   85980
   85983      47   85977   85980      49   85977   85983      49   85992   85995
      47   85989   85992      49   85989   85995      49   86004   86007      47
   86001   86004      49   86001   86007      49   86016   86019      47   86013
   86016      49   86013   86019      49   86028   86031      47   86025   86028
      49   86025   86031      49   86040   86043      47   86037   86040      49
   86037   86043      49   86052   86055      47   86049   86052      49   86049
   86055      49   86064   86067      47   86061   86064      49   86061   86067
      49   86076   86079      47   86073   86076      49   86073   86079      49
   86088   86091      47   86085   86088      49   86085   86091      49   86100
   86103      47   86097   86100      49   86097   86103      49   86112   86115
      47   86109   86112      49   86109   86115      49   86124   86127      47
   86121   86124      49   86121   86127      49   86136   86139      47   86133
   86136      49   86133   86139      49   86148   86151      47   86145   86148
      49   86145   86151      49   86160   86163      47   86157   86160      49
   86157   86163      49   86172   86175      47   86169   86172      49   86169
   86175      49   86184   86187      47   86181   86184      49   86181   86187
      49   86196   86199      47   86193   86196      49   86193   86199      49
   86208   86211      47   86205   86208      49   86205   86211      49   86220
   86223      47   86217   86220      49   86217   86223      49   86232   86235
      47   86229   86232      49   86229   86235      49   86244   86247      47
   86241   86244      49   86241   86247      49   86256   86259      47   86253
   86256      49   86253   86259      49   86268   86271      47   86265   86268
      49   86265   86271      49   86280   86283      47   86277   86280      49
   86277   86283      49   86292   86295      47   86289   86292      49   86289
   86295      49   86304   86307      47   86301   86304      49   86301   86307
      49   86316   86319      47   86313   86316      49   86313   86319      49
   86328   86331      47   86325   86328      49   86325   86331      49   86340
   86343      47   86337   86340      49   86337   86343      49   86352   86355
      47   86349   86352      49   86349   86355      49   86364   86367      47
   86361   86364      49   86361   86367      49   86376   86379      47   86373
   86376      49   86373   86379      49   86388   86391      47   86385   86388
      49   86385   86391      49   86400   86403      47   86397   86400      49
   86397   86403      49   86412   86415      47   86409   86412      49   86409
   86415      49   86424   86427      47   86421   86424      49   86421   86427
      49   86436   86439      47   86433   86436      49   86433   86439      49
   86448   86451      47   86445   86448      49   86445   86451      49   86460
   86463      47   86457   86460      49   86457   86463      49   86472   86475
      47   86469   86472      49   86469   86475      49   86484   86487      47
   86481   86484      49   86481   86487      49   86496   86499      47   86493
   86496      49   86493   86499      49   86508   86511      47   86505   86508
      49   86505   86511      49   86520   86523      47   86517   86520      49
   86517   86523      49   86532   86535      47   86529   86532      49   86529
   86535      49   86544   86547      47   86541   86544      49   86541   86547
      49   86556   86559      47   86553   86556      49   86553   86559      49
   86568   86571      47   86565   86568      49   86565   86571      49   86580
   86583      47   86577   86580      49   86577   86583      49   86592   86595
      47   86589   86592      49   86589   86595      49   86604   86607      47
   86601   86604      49   86601   86607      49   86616   86619      47   86613
   86616      49   86613   86619      49   86628   86631      47   86625   86628
      49   86625   86631      49   86640   86643      47   86637   86640      49
   86637   86643      49   86652   86655      47   86649   86652      49   86649
   86655      49   86664   86667      47   86661   86664      49   86661   86667
      49   86676   86679      47   86673   86676      49   86673   86679      49
   86688   86691      47   86685   86688      49   86685   86691      49   86700
   86703      47   86697   86700      49   86697   86703      49   86712   86715
      47   86709   86712      49   86709   86715      49   86724   86727      47
   86721   86724      49   86721   86727      49   86736   86739      47   86733
   86736      49   86733   86739      49   86748   86751      47   86745   86748
      49   86745   86751      49   86760   86763      47   86757   86760      49
   86757   86763      49   86772   86775      47   86769   86772      49   86769
   86775      49   86784   86787      47   86781   86784      49   86781   86787
      49   86796   86799      47   86793   86796      49   86793   86799      49
   86808   86811      47   86805   86808      49   86805   86811      49   86820
   86823      47   86817   86820      49   86817   86823      49   86832   86835
      47   86829   86832      49   86829   86835      49   86844   86847      47
   86841   86844      49   86841   86847      49   86856   86859      47   86853
   86856      49   86853   86859      49   86868   86871      47   86865   86868
      49   86865   86871      49   86880   86883      47   86877   86880      49
   86877   86883      49   86892   86895      47   86889   86892      49   86889
   86895      49   86904   86907      47   86901   86904      49   86901   86907
      49   86916   86919      47   86913   86916      49   86913   86919      49
   86928   86931      47   86925   86928      49   86925   86931      49   86940
   86943      47   86937   86940      49   86937   86943      49   86952   86955
      47   86949   86952      49   86949   86955      49   86964   86967      47
   86961   86964      49   86961   86967      49   86976   86979      47   86973
   86976      49   86973   86979      49   86988   86991      47   86985   86988
      49   86985   86991      49   87000   87003      47   86997   87000      49
   86997   87003      49   87012   87015      47   87009   87012      49   87009
   87015      49   87024   87027      47   87021   87024      49   87021   87027
      49   87036   87039      47   87033   87036      49   87033   87039      49
   87048   87051      47   87045   87048      49   87045   87051      49   87060
   87063      47   87057   87060      49   87057   87063      49   87072   87075
      47   87069   87072      49   87069   87075      49   87084   87087      47
   87081   87084      49   87081   87087      49   87096   87099      47   87093
   87096      49   87093   87099      49   87108   87111      47   87105   87108
      49   87105   87111      49   87120   87123      47   87117   87120      49
   87117   87123      49   87132   87135      47   87129   87132      49   87129
   87135      49   87144   87147      47   87141   87144      49   87141   87147
      49   87156   87159      47   87153   87156      49   87153   87159      49
   87168   87171      47   87165   87168      49   87165   87171      49   87180
   87183      47   87177   87180      49   87177   87183      49   87192   87195
      47   87189   87192      49   87189   87195      49   87204   87207      47
   87201   87204      49   87201   87207      49   87216   87219      47   87213
   87216      49   87213   87219      49   87228   87231      47   87225   87228
      49   87225   87231      49   87240   87243      47   87237   87240      49
   87237   87243      49   87252   87255      47   87249   87252      49   87249
   87255      49   87264   87267      47   87261   87264      49   87261   87267
      49   87276   87279      47   87273   87276      49   87273   87279      49
   87288   87291      47   87285   87288      49   87285   87291      49   87300
   87303      47   87297   87300      49   87297   87303      49   87312   87315
      47   87309   87312      49   87309   87315      49   87324   87327      47
   87321   87324      49   87321   87327      49   87336   87339      47   87333
   87336      49   87333   87339      49   87348   87351      47   87345   87348
      49   87345   87351      49   87360   87363      47   87357   87360      49
   87357   87363      49   87372   87375      47   87369   87372      49   87369
   87375      49   87384   87387      47   87381   87384      49   87381   87387
      49   87396   87399      47   87393   87396      49   87393   87399      49
   87408   87411      47   87405   87408      49   87405   87411      49   87420
   87423      47   87417   87420      49   87417   87423      49   87432   87435
      47   87429   87432      49   87429   87435      49   87444   87447      47
   87441   87444      49   87441   87447      49   87456   87459      47   87453
   87456      49   87453   87459      49   87468   87471      47   87465   87468
      49   87465   87471      49   87480   87483      47   87477   87480      49
   87477   87483      49   87492   87495      47   87489   87492      49   87489
   87495      49   87504   87507      47   87501   87504      49   87501   87507
      49   87516   87519      47   87513   87516      49   87513   87519      49
   87528   87531      47   87525   87528      49   87525   87531      49   87540
   87543      47   87537   87540      49   87537   87543      49   87552   87555
      47   87549   87552      49   87549   87555      49   87564   87567      47
   87561   87564      49   87561   87567      49   87576   87579      47   87573
   87576      49   87573   87579      49   87588   87591      47   87585   87588
      49   87585   87591      49   87600   87603      47   87597   87600      49
   87597   87603      49   87612   87615      47   87609   87612      49   87609
   87615      49   87624   87627      47   87621   87624      49   87621   87627
      49   87636   87639      47   87633   87636      49   87633   87639      49
   87648   87651      47   87645   87648      49   87645   87651      49   87660
   87663      47   87657   87660      49   87657   87663      49   87672   87675
      47   87669   87672      49   87669   87675      49   87684   87687      47
   87681   87684      49   87681   87687      49   87696   87699      47   87693
   87696      49   87693   87699      49   87708   87711      47   87705   87708
      49   87705   87711      49   87720   87723      47   87717   87720      49
   87717   87723      49   87732   87735      47   87729   87732      49   87729
   87735      49   87744   87747      47   87741   87744      49   87741   87747
      49   87756   87759      47   87753   87756      49   87753   87759      49
   87768   87771      47   87765   87768      49   87765   87771      49   87780
   87783      47   87777   87780      49   87777   87783      49   87792   87795
      47   87789   87792      49   87789   87795      49   87804   87807      47
   87801   87804      49   87801   87807      49   87816   87819      47   87813
   87816      49   87813   87819      49   87828   87831      47   87825   87828
      49   87825   87831      49   87840   87843      47   87837   87840      49
   87837   87843      49   87852   87855      47   87849   87852      49   87849
   87855      49   87864   87867      47   87861   87864      49   87861   87867
      49   87876   87879      47   87873   87876      49   87873   87879      49
   87888   87891      47   87885   87888      49   87885   87891      49   87900
   87903      47   87897   87900      49   87897   87903      49   87912   87915
      47   87909   87912      49   87909   87915      49   87924   87927      47
   87921   87924      49   87921   87927      49   87936   87939      47   87933
   87936      49   87933   87939      49   87948   87951      47   87945   87948
      49   87945   87951      49   87960   87963      47   87957   87960      49
   87957   87963      49   87972   87975      47   87969   87972      49   87969
   87975      49   87984   87987      47   87981   87984      49   87981   87987
      49   87996   87999      47   87993   87996      49   87993   87999      49
   88008   88011      47   88005   88008      49   88005   88011      49   88020
   88023      47   88017   88020      49   88017   88023      49   88032   88035
      47   88029   88032      49   88029   88035      49   88044   88047      47
   88041   88044      49   88041   88047      49   88056   88059      47   88053
   88056      49   88053   88059      49   88068   88071      47   88065   88068
      49   88065   88071      49   88080   88083      47   88077   88080      49
   88077   88083      49   88092   88095      47   88089   88092      49   88089
   88095      49   88104   88107      47   88101   88104      49   88101   88107
      49   88116   88119      47   88113   88116      49   88113   88119      49
   88128   88131      47   88125   88128      49   88125   88131      49   88140
   88143      47   88137   88140      49   88137   88143      49   88152   88155
      47   88149   88152      49   88149   88155      49   88164   88167      47
   88161   88164      49   88161   88167      49   88176   88179      47   88173
   88176      49   88173   88179      49   88188   88191      47   88185   88188
      49   88185   88191      49   88200   88203      47   88197   88200      49
   88197   88203      49   88212   88215      47   88209   88212      49   88209
   88215      49   88224   88227      47   88221   88224      49   88221   88227
      49   88236   88239      47   88233   88236      49   88233   88239      49
   88248   88251      47   88245   88248      49   88245   88251      49   88260
   88263      47   88257   88260      49   88257   88263      49   88272   88275
      47   88269   88272      49   88269   88275      49   88284   88287      47
   88281   88284      49   88281   88287      49   88296   88299      47   88293
   88296      49   88293   88299      49   88308   88311      47   88305   88308
      49   88305   88311      49   88320   88323      47   88317   88320      49
   88317   88323      49   88332   88335      47   88329   88332      49   88329
   88335      49   88344   88347      47   88341   88344      49   88341   88347
      49   88356   88359      47   88353   88356      49   88353   88359      49
   88368   88371      47   88365   88368      49   88365   88371      49   88380
   88383      47   88377   88380      49   88377   88383      49   88392   88395
      47   88389   88392      49   88389   88395      49   88404   88407      47
   88401   88404      49   88401   88407      49   88416   88419      47   88413
   88416      49   88413   88419      49   88428   88431      47   88425   88428
      49   88425   88431      49   88440   88443      47   88437   88440      49
   88437   88443      49   88452   88455      47   88449   88452      49   88449
   88455      49   88464   88467      47   88461   88464      49   88461   88467
      49   88476   88479      47   88473   88476      49   88473   88479      49
   88488   88491      47   88485   88488      49   88485   88491      49   88500
   88503      47   88497   88500      49   88497   88503      49   88512   88515
      47   88509   88512      49   88509   88515      49   88524   88527      47
   88521   88524      49   88521   88527      49   88536   88539      47   88533
   88536      49   88533   88539      49   88548   88551      47   88545   88548
      49   88545   88551      49   88560   88563      47   88557   88560      49
   88557   88563      49   88572   88575      47   88569   88572      49   88569
   88575      49   88584   88587      47   88581   88584      49   88581   88587
      49   88596   88599      47   88593   88596      49   88593   88599      49
   88608   88611      47   88605   88608      49   88605   88611      49   88620
   88623      47   88617   88620      49   88617   88623      49   88632   88635
      47   88629   88632      49   88629   88635      49   88644   88647      47
   88641   88644      49   88641   88647      49   88656   88659      47   88653
   88656      49   88653   88659      49   88668   88671      47   88665   88668
      49   88665   88671      49   88680   88683      47   88677   88680      49
   88677   88683      49   88692   88695      47   88689   88692      49   88689
   88695      49   88704   88707      47   88701   88704      49   88701   88707
      49   88716   88719      47   88713   88716      49   88713   88719      49
   88728   88731      47   88725   88728      49   88725   88731      49   88740
   88743      47   88737   88740      49   88737   88743      49   88752   88755
      47   88749   88752      49   88749   88755      49   88764   88767      47
   88761   88764      49   88761   88767      49   88776   88779      47   88773
   88776      49   88773   88779      49   88788   88791      47   88785   88788
      49   88785   88791      49   88800   88803      47   88797   88800      49
   88797   88803      49   88812   88815      47   88809   88812      49   88809
   88815      49   88824   88827      47   88821   88824      49   88821   88827
      49   88836   88839      47   88833   88836      49   88833   88839      49
   88848   88851      47   88845   88848      49   88845   88851      49   88860
   88863      47   88857   88860      49   88857   88863      49   88872   88875
      47   88869   88872      49   88869   88875      49   88884   88887      47
   88881   88884      49   88881   88887      49   88896   88899      47   88893
   88896      49   88893   88899      49   88908   88911      47   88905   88908
      49   88905   88911      49   88920   88923      47   88917   88920      49
   88917   88923      49   88932   88935      47   88929   88932      49   88929
   88935      49   88944   88947      47   88941   88944      49   88941   88947
      49   88956   88959      47   88953   88956      49   88953   88959      49
   88968   88971      47   88965   88968      49   88965   88971      49   88980
   88983      47   88977   88980      49   88977   88983      49   88992   88995
      47   88989   88992      49   88989   88995      49   89004   89007      47
   89001   89004      49   89001   89007      49   89016   89019      47   89013
   89016      49   89013   89019      49   89028   89031      47   89025   89028
      49   89025   89031      49   89040   89043      47   89037   89040      49
   89037   89043      49   89052   89055      47   89049   89052      49   89049
   89055      49   89064   89067      47   89061   89064      49   89061   89067
      49   89076   89079      47   89073   89076      49   89073   89079      49
   89088   89091      47   89085   89088      49   89085   89091      49   89100
   89103      47   89097   89100      49   89097   89103      49   89112   89115
      47   89109   89112      49   89109   89115      49   89124   89127      47
   89121   89124      49   89121   89127      49   89136   89139      47   89133
   89136      49   89133   89139      49   89148   89151      47   89145   89148
      49   89145   89151      49   89160   89163      47   89157   89160      49
   89157   89163      49   89172   89175      47   89169   89172      49   89169
   89175      49   89184   89187      47   89181   89184      49   89181   89187
      49   89196   89199      47   89193   89196      49   89193   89199      49
   89208   89211      47   89205   89208      49   89205   89211      49   89220
   89223      47   89217   89220      49   89217   89223      49   89232   89235
      47   89229   89232      49   89229   89235      49   89244   89247      47
   89241   89244      49   89241   89247      49   89256   89259      47   89253
   89256      49   89253   89259      49   89268   89271      47   89265   89268
      49   89265   89271      49   89280   89283      47   89277   89280      49
   89277   89283      49   89292   89295      47   89289   89292      49   89289
   89295      49   89304   89307      47   89301   89304      49   89301   89307
      49   89316   89319      47   89313   89316      49   89313   89319      49
   89328   89331      47   89325   89328      49   89325   89331      49   89340
   89343      47   89337   89340      49   89337   89343      49   89352   89355
      47   89349   89352      49   89349   89355      49   89364   89367      47
   89361   89364      49   89361   89367      49   89376   89379      47   89373
   89376      49   89373   89379      49   89388   89391      47   89385   89388
      49   89385   89391      49   89400   89403      47   89397   89400      49
   89397   89403      49   89412   89415      47   89409   89412      49   89409
   89415      49   89424   89427      47   89421   89424      49   89421   89427
      49   89436   89439      47   89433   89436      49   89433   89439      49
   89448   89451      47   89445   89448      49   89445   89451      49   89460
   89463      47   89457   89460      49   89457   89463      49   89472   89475
      47   89469   89472      49   89469   89475      49   89484   89487      47
   89481   89484      49   89481   89487      49   89496   89499      47   89493
   89496      49   89493   89499      49   89508   89511      47   89505   89508
      49   89505   89511      49   89520   89523      47   89517   89520      49
   89517   89523      49   89532   89535      47   89529   89532      49   89529
   89535      49   89544   89547      47   89541   89544      49   89541   89547
      49   89556   89559      47   89553   89556      49   89553   89559      49
   89568   89571      47   89565   89568      49   89565   89571      49   89580
   89583      47   89577   89580      49   89577   89583      49   89592   89595
      47   89589   89592      49   89589   89595      49   89604   89607      47
   89601   89604      49   89601   89607      49   89616   89619      47   89613
   89616      49   89613   89619      49   89628   89631      47   89625   89628
      49   89625   89631      49   89640   89643      47   89637   89640      49
   89637   89643      49   89652   89655      47   89649   89652      49   89649
   89655      49   89664   89667      47   89661   89664      49   89661   89667
      49   89676   89679      47   89673   89676      49   89673   89679      49
   89688   89691      47   89685   89688      49   89685   89691      49   89700
   89703      47   89697   89700      49   89697   89703      49   89712   89715
      47   89709   89712      49   89709   89715      49   89724   89727      47
   89721   89724      49   89721   89727      49   89736   89739      47   89733
   89736      49   89733   89739      49   89748   89751      47   89745   89748
      49   89745   89751      49   89760   89763      47   89757   89760      49
   89757   89763      49   89772   89775      47   89769   89772      49   89769
   89775      49   89784   89787      47   89781   89784      49   89781   89787
      49   89796   89799      47   89793   89796      49   89793   89799      49
   89808   89811      47   89805   89808      49   89805   89811      49   89820
   89823      47   89817   89820      49   89817   89823      49   89832   89835
      47   89829   89832      49   89829   89835      49   89844   89847      47
   89841   89844      49   89841   89847      49   89856   89859      47   89853
   89856      49   89853   89859      49   89868   89871      47   89865   89868
      49   89865   89871      49   89880   89883      47   89877   89880      49
   89877   89883      49   89892   89895      47   89889   89892      49   89889
   89895      49   89904   89907      47   89901   89904      49   89901   89907
      49   89916   89919      47   89913   89916      49   89913   89919      49
   89928   89931      47   89925   89928      49   89925   89931      49   89940
   89943      47   89937   89940      49   89937   89943      49   89952   89955
      47   89949   89952      49   89949   89955      49   89964   89967      47
   89961   89964      49   89961   89967      49   89976   89979      47   89973
   89976      49   89973   89979      49   89988   89991      47   89985   89988
      49   89985   89991      49   90000   90003      47   89997   90000      49
   89997   90003      49   90012   90015      47   90009   90012      49   90009
   90015      49   90024   90027      47   90021   90024      49   90021   90027
      49   90036   90039      47   90033   90036      49   90033   90039      49
   90048   90051      47   90045   90048      49   90045   90051      49   90060
   90063      47   90057   90060      49   90057   90063      49   90072   90075
      47   90069   90072      49   90069   90075      49   90084   90087      47
   90081   90084      49   90081   90087      49   90096   90099      47   90093
   90096      49   90093   90099      49   90108   90111      47   90105   90108
      49   90105   90111      49   90120   90123      47   90117   90120      49
   90117   90123      49   90132   90135      47   90129   90132      49   90129
   90135      49   90144   90147      47   90141   90144      49   90141   90147
      49   90156   90159      47   90153   90156      49   90153   90159      49
   90168   90171      47   90165   90168      49   90165   90171      49   90180
   90183      47   90177   90180      49   90177   90183      49   90192   90195
      47   90189   90192      49   90189   90195      49   90204   90207      47
   90201   90204      49   90201   90207      49   90216   90219      47   90213
   90216      49   90213   90219      49   90228   90231      47   90225   90228
      49   90225   90231      49   90240   90243      47   90237   90240      49
   90237   90243      49   90252   90255      47   90249   90252      49   90249
   90255      49   90264   90267      47   90261   90264      49   90261   90267
      49   90276   90279      47   90273   90276      49   90273   90279      49
   90288   90291      47   90285   90288      49   90285   90291      49   90300
   90303      47   90297   90300      49   90297   90303      49   90312   90315
      47   90309   90312      49   90309   90315      49   90324   90327      47
   90321   90324      49   90321   90327      49   90336   90339      47   90333
   90336      49   90333   90339      49   90348   90351      47   90345   90348
      49   90345   90351      49   90360   90363      47   90357   90360      49
   90357   90363      49   90372   90375      47   90369   90372      49   90369
   90375      49   90384   90387      47   90381   90384      49   90381   90387
      49   90396   90399      47   90393   90396      49   90393   90399      49
   90408   90411      47   90405   90408      49   90405   90411      49   90420
   90423      47   90417   90420      49   90417   90423      49   90432   90435
      47   90429   90432      49   90429   90435      49   90444   90447      47
   90441   90444      49   90441   90447      49   90456   90459      47   90453
   90456      49   90453   90459      49   90468   90471      47   90465   90468
      49   90465   90471      49   90480   90483      47   90477   90480      49
   90477   90483      49   90492   90495      47   90489   90492      49   90489
   90495      49   90504   90507      47   90501   90504      49   90501   90507
      49   90516   90519      47   90513   90516      49   90513   90519      49
   90528   90531      47   90525   90528      49   90525   90531      49   90540
   90543      47   90537   90540      49   90537   90543      49   90552   90555
      47   90549   90552      49   90549   90555      49   90564   90567      47
   90561   90564      49   90561   90567      49   90576   90579      47   90573
   90576      49   90573   90579      49   90588   90591      47   90585   90588
      49   90585   90591      49   90600   90603      47   90597   90600      49
   90597   90603      49   90612   90615      47   90609   90612      49   90609
   90615      49   90624   90627      47   90621   90624      49   90621   90627
      49   90636   90639      47   90633   90636      49   90633   90639      49
   90648   90651      47   90645   90648      49   90645   90651      49   90660
   90663      47   90657   90660      49   90657   90663      49   90672   90675
      47   90669   90672      49   90669   90675      49   90684   90687      47
   90681   90684      49   90681   90687      49   90696   90699      47   90693
   90696      49   90693   90699      49   90708   90711      47   90705   90708
      49   90705   90711      49   90720   90723      47   90717   90720      49
   90717   90723      49   90732   90735      47   90729   90732      49   90729
   90735      49   90744   90747      47   90741   90744      49   90741   90747
      49   90756   90759      47   90753   90756      49   90753   90759      49
   90768   90771      47   90765   90768      49   90765   90771      49   90780
   90783      47   90777   90780      49   90777   90783      49   90792   90795
      47   90789   90792      49   90789   90795      49   90804   90807      47
   90801   90804      49   90801   90807      49   90816   90819      47   90813
   90816      49   90813   90819      49   90828   90831      47   90825   90828
      49   90825   90831      49   90840   90843      47   90837   90840      49
   90837   90843      49   90852   90855      47   90849   90852      49   90849
   90855      49   90864   90867      47   90861   90864      49   90861   90867
      49   90876   90879      47   90873   90876      49   90873   90879      49
   90888   90891      47   90885   90888      49   90885   90891      49   90900
   90903      47   90897   90900      49   90897   90903      49   90912   90915
      47   90909   90912      49   90909   90915      49   90924   90927      47
   90921   90924      49   90921   90927      49   90936   90939      47   90933
   90936      49   90933   90939      49   90948   90951      47   90945   90948
      49   90945   90951      49   90960   90963      47   90957   90960      49
   90957   90963      49   90972   90975      47   90969   90972      49   90969
   90975      49   90984   90987      47   90981   90984      49   90981   90987
      49   90996   90999      47   90993   90996      49   90993   90999      49
   91008   91011      47   91005   91008      49   91005   91011      49   91020
   91023      47   91017   91020      49   91017   91023      49   91032   91035
      47   91029   91032      49   91029   91035      49   91044   91047      47
   91041   91044      49   91041   91047      49   91056   91059      47   91053
   91056      49   91053   91059      49   91068   91071      47   91065   91068
      49   91065   91071      49   91080   91083      47   91077   91080      49
   91077   91083      49   91092   91095      47   91089   91092      49   91089
   91095      49   91104   91107      47   91101   91104      49   91101   91107
      49   91116   91119      47   91113   91116      49   91113   91119      49
   91128   91131      47   91125   91128      49   91125   91131      49   91140
   91143      47   91137   91140      49   91137   91143      49   91152   91155
      47   91149   91152      49   91149   91155      49   91164   91167      47
   91161   91164      49   91161   91167      49   91176   91179      47   91173
   91176      49   91173   91179      49   91188   91191      47   91185   91188
      49   91185   91191      49   91200   91203      47   91197   91200      49
   91197   91203      49   91212   91215      47   91209   91212      49   91209
   91215      49   91224   91227      47   91221   91224      49   91221   91227
      49   91236   91239      47   91233   91236      49   91233   91239      49
   91248   91251      47   91245   91248      49   91245   91251      49   91260
   91263      47   91257   91260      49   91257   91263      49   91272   91275
      47   91269   91272      49   91269   91275      49   91284   91287      47
   91281   91284      49   91281   91287      49   91296   91299      47   91293
   91296      49   91293   91299      49   91308   91311      47   91305   91308
      49   91305   91311      49   91320   91323      47   91317   91320      49
   91317   91323      49   91332   91335      47   91329   91332      49   91329
   91335      49   91344   91347      47   91341   91344      49   91341   91347
      49   91356   91359      47   91353   91356      49   91353   91359      49
   91368   91371      47   91365   91368      49   91365   91371      49   91380
   91383      47   91377   91380      49   91377   91383      49   91392   91395
      47   91389   91392      49   91389   91395      49   91404   91407      47
   91401   91404      49   91401   91407      49   91416   91419      47   91413
   91416      49   91413   91419      49   91428   91431      47   91425   91428
      49   91425   91431      49   91440   91443      47   91437   91440      49
   91437   91443      49   91452   91455      47   91449   91452      49   91449
   91455      49   91464   91467      47   91461   91464      49   91461   91467
      49   91476   91479      47   91473   91476      49   91473   91479      49
   91488   91491      47   91485   91488      49   91485   91491      49   91500
   91503      47   91497   91500      49   91497   91503      49   91512   91515
      47   91509   91512      49   91509   91515      49   91524   91527      47
   91521   91524      49   91521   91527      49   91536   91539      47   91533
   91536      49   91533   91539      49   91548   91551      47   91545   91548
      49   91545   91551      49   91560   91563      47   91557   91560      49
   91557   91563      49   91572   91575      47   91569   91572      49   91569
   91575      49   91584   91587      47   91581   91584      49   91581   91587
      49   91596   91599      47   91593   91596      49   91593   91599      49
   91608   91611      47   91605   91608      49   91605   91611      49   91620
   91623      47   91617   91620      49   91617   91623      49   91632   91635
      47   91629   91632      49   91629   91635      49   91644   91647      47
   91641   91644      49   91641   91647      49   91656   91659      47   91653
   91656      49   91653   91659      49   91668   91671      47   91665   91668
      49   91665   91671      49   91680   91683      47   91677   91680      49
   91677   91683      49   91692   91695      47   91689   91692      49   91689
   91695      49   91704   91707      47   91701   91704      49   91701   91707
      49   91716   91719      47   91713   91716      49   91713   91719      49
   91728   91731      47   91725   91728      49   91725   91731      49   91740
   91743      47   91737   91740      49   91737   91743      49   91752   91755
      47   91749   91752      49   91749   91755      49   91764   91767      47
   91761   91764      49   91761   91767      49   91776   91779      47   91773
   91776      49   91773   91779      49   91788   91791      47   91785   91788
      49   91785   91791      49   91800   91803      47   91797   91800      49
   91797   91803      49   91812   91815      47   91809   91812      49   91809
   91815      49   91824   91827      47   91821   91824      49   91821   91827
      49   91836   91839      47   91833   91836      49   91833   91839      49
   91848   91851      47   91845   91848      49   91845   91851      49   91860
   91863      47   91857   91860      49   91857   91863      49   91872   91875
      47   91869   91872      49   91869   91875      49   91884   91887      47
   91881   91884      49   91881   91887      49   91896   91899      47   91893
   91896      49   91893   91899      49   91908   91911      47   91905   91908
      49   91905   91911      49   91920   91923      47   91917   91920      49
   91917   91923      49   91932   91935      47   91929   91932      49   91929
   91935      49   91944   91947      47   91941   91944      49   91941   91947
      49   91956   91959      47   91953   91956      49   91953   91959      49
   91968   91971      47   91965   91968      49   91965   91971      49   91980
   91983      47   91977   91980      49   91977   91983      49   91992   91995
      47   91989   91992      49   91989   91995      49   92004   92007      47
   92001   92004      49   92001   92007      49   92016   92019      47   92013
   92016      49   92013   92019      49   92028   92031      47   92025   92028
      49   92025   92031      49   92040   92043      47   92037   92040      49
   92037   92043      49   92052   92055      47   92049   92052      49   92049
   92055      49   92064   92067      47   92061   92064      49   92061   92067
      49   92076   92079      47   92073   92076      49   92073   92079      49
   92088   92091      47   92085   92088      49   92085   92091      49   92100
   92103      47   92097   92100      49   92097   92103      49   92112   92115
      47   92109   92112      49   92109   92115      49   92124   92127      47
   92121   92124      49   92121   92127      49   92136   92139      47   92133
   92136      49   92133   92139      49   92148   92151      47   92145   92148
      49   92145   92151      49   92160   92163      47   92157   92160      49
   92157   92163      49   92172   92175      47   92169   92172      49   92169
   92175      49   92184   92187      47   92181   92184      49   92181   92187
      49   92196   92199      47   92193   92196      49   92193   92199      49
   92208   92211      47   92205   92208      49   92205   92211      49   92220
   92223      47   92217   92220      49   92217   92223      49   92232   92235
      47   92229   92232      49   92229   92235      49   92244   92247      47
   92241   92244      49   92241   92247      49   92256   92259      47   92253
   92256      49   92253   92259      49   92268   92271      47   92265   92268
      49   92265   92271      49   92280   92283      47   92277   92280      49
   92277   92283      49   92292   92295      47   92289   92292      49   92289
   92295      49   92304   92307      47   92301   92304      49   92301   92307
      49   92316   92319      47   92313   92316      49   92313   92319      49
   92328   92331      47   92325   92328      49   92325   92331      49   92340
   92343      47   92337   92340      49   92337   92343      49   92352   92355
      47   92349   92352      49   92349   92355      49   92364   92367      47
   92361   92364      49   92361   92367      49   92376   92379      47   92373
   92376      49   92373   92379      49   92388   92391      47   92385   92388
      49   92385   92391      49   92400   92403      47   92397   92400      49
   92397   92403      49   92412   92415      47   92409   92412      49   92409
   92415      49   92424   92427      47   92421   92424      49   92421   92427
      49   92436   92439      47   92433   92436      49   92433   92439      49
   92448   92451      47   92445   92448      49   92445   92451      49   92460
   92463      47   92457   92460      49   92457   92463      49   92472   92475
      47   92469   92472      49   92469   92475      49   92484   92487      47
   92481   92484      49   92481   92487      49   92496   92499      47   92493
   92496      49   92493   92499      49   92508   92511      47   92505   92508
      49   92505   92511      49   92520   92523      47   92517   92520      49
   92517   92523      49   92532   92535      47   92529   92532      49   92529
   92535      49   92544   92547      47   92541   92544      49   92541   92547
      49   92556   92559      47   92553   92556      49   92553   92559      49
   92568   92571      47   92565   92568      49   92565   92571      49   92580
   92583      47   92577   92580      49   92577   92583      49   92592   92595
      47   92589   92592      49   92589   92595      49   92604   92607      47
   92601   92604      49   92601   92607      49   92616   92619      47   92613
   92616      49   92613   92619      49   92628   92631      47   92625   92628
      49   92625   92631      49   92640   92643      47   92637   92640      49
   92637   92643      49   92652   92655      47   92649   92652      49   92649
   92655      49   92664   92667      47   92661   92664      49   92661   92667
      49   92676   92679      47   92673   92676      49   92673   92679      49
   92688   92691      47   92685   92688      49   92685   92691      49   92700
   92703      47   92697   92700      49   92697   92703      49   92712   92715
      47   92709   92712      49   92709   92715      49   92724   92727      47
   92721   92724      49   92721   92727      49   92736   92739      47   92733
   92736      49   92733   92739      49   92748   92751      47   92745   92748
      49   92745   92751      49   92760   92763      47   92757   92760      49
   92757   92763      49   92772   92775      47   92769   92772      49   92769
   92775      49   92784   92787      47   92781   92784      49   92781   92787
      49   92796   92799      47   92793   92796      49   92793   92799      49
   92808   92811      47   92805   92808      49   92805   92811      49   92820
   92823      47   92817   92820      49   92817   92823      49   92832   92835
      47   92829   92832      49   92829   92835      49   92844   92847      47
   92841   92844      49   92841   92847      49   92856   92859      47   92853
   92856      49   92853   92859      49   92868   92871      47   92865   92868
      49   92865   92871      49   92880   92883      47   92877   92880      49
   92877   92883      49   92892   92895      47   92889   92892      49   92889
   92895      49   92904   92907      47   92901   92904      49   92901   92907
      49   92916   92919      47   92913   92916      49   92913   92919      49
   92928   92931      47   92925   92928      49   92925   92931      49   92940
   92943      47   92937   92940      49   92937   92943      49   92952   92955
      47   92949   92952      49   92949   92955      49   92964   92967      47
   92961   92964      49   92961   92967      49   92976   92979      47   92973
   92976      49   92973   92979      49   92988   92991      47   92985   92988
      49   92985   92991      49   93000   93003      47   92997   93000      49
   92997   93003      49   93012   93015      47   93009   93012      49   93009
   93015      49   93024   93027      47   93021   93024      49   93021   93027
      49   93036   93039      47   93033   93036      49   93033   93039      49
   93048   93051      47   93045   93048      49   93045   93051      49   93060
   93063      47   93057   93060      49   93057   93063      49   93072   93075
      47   93069   93072      49   93069   93075      49   93084   93087      47
   93081   93084      49   93081   93087      49   93096   93099      47   93093
   93096      49   93093   93099      49   93108   93111      47   93105   93108
      49   93105   93111      49   93120   93123      47   93117   93120      49
   93117   93123      49   93132   93135      47   93129   93132      49   93129
   93135      49   93144   93147      47   93141   93144      49   93141   93147
      49   93156   93159      47   93153   93156      49   93153   93159      49
   93168   93171      47   93165   93168      49   93165   93171      49   93180
   93183      47   93177   93180      49   93177   93183      49   93192   93195
      47   93189   93192      49   93189   93195      49   93204   93207      47
   93201   93204      49   93201   93207      49   93216   93219      47   93213
   93216      49   93213   93219      49   93228   93231      47   93225   93228
      49   93225   93231      49   93240   93243      47   93237   93240      49
   93237   93243      49   93252   93255      47   93249   93252      49   93249
   93255      49   93264   93267      47   93261   93264      49   93261   93267
      49   93276   93279      47   93273   93276      49   93273   93279      49
   93288   93291      47   93285   93288      49   93285   93291      49   93300
   93303      47   93297   93300      49   93297   93303      49   93312   93315
      47   93309   93312      49   93309   93315      49   93324   93327      47
   93321   93324      49   93321   93327      49   93336   93339      47   93333
   93336      49   93333   93339      49   93348   93351      47   93345   93348
      49   93345   93351      49   93360   93363      47   93357   93360      49
   93357   93363      49   93372   93375      47   93369   93372      49   93369
   93375      49   93384   93387      47   93381   93384      49   93381   93387
      49   93396   93399      47   93393   93396      49   93393   93399      49
   93408   93411      47   93405   93408      49   93405   93411      49   93420
   93423      47   93417   93420      49   93417   93423      49   93432   93435
      47   93429   93432      49   93429   93435      49   93444   93447      47
   93441   93444      49   93441   93447      49   93456   93459      47   93453
   93456      49   93453   93459      49   93468   93471      47   93465   93468
      49   93465   93471      49   93480   93483      47   93477   93480      49
   93477   93483      49   93492   93495      47   93489   93492      49   93489
   93495      49   93504   93507      47   93501   93504      49   93501   93507
      49   93516   93519      47   93513   93516      49   93513   93519      49
   93528   93531      47   93525   93528      49   93525   93531      49   93540
   93543      47   93537   93540      49   93537   93543      49   93552   93555
      47   93549   93552      49   93549   93555      49   93564   93567      47
   93561   93564      49   93561   93567      49   93576   93579      47   93573
   93576      49   93573   93579      49   93588   93591      47   93585   93588
      49   93585   93591      49   93600   93603      47   93597   93600      49
   93597   93603      49   93612   93615      47   93609   93612      49   93609
   93615      49   93624   93627      47   93621   93624      49   93621   93627
      49   93636   93639      47   93633   93636      49   93633   93639      49
   93648   93651      47   93645   93648      49   93645   93651      49   93660
   93663      47   93657   93660      49   93657   93663      49   93672   93675
      47   93669   93672      49   93669   93675      49   93684   93687      47
   93681   93684      49   93681   93687      49   93696   93699      47   93693
   93696      49   93693   93699      49   93708   93711      47   93705   93708
      49   93705   93711      49   93720   93723      47   93717   93720      49
   93717   93723      49   93732   93735      47   93729   93732      49   93729
   93735      49   93744   93747      47   93741   93744      49   93741   93747
      49   93756   93759      47   93753   93756      49   93753   93759      49
   93768   93771      47   93765   93768      49   93765   93771      49   93780
   93783      47   93777   93780      49   93777   93783      49   93792   93795
      47   93789   93792      49   93789   93795      49   93804   93807      47
   93801   93804      49   93801   93807      49   93816   93819      47   93813
   93816      49   93813   93819      49   93828   93831      47   93825   93828
      49   93825   93831      49   93840   93843      47   93837   93840      49
   93837   93843      49   93852   93855      47   93849   93852      49   93849
   93855      49   93864   93867      47   93861   93864      49   93861   93867
      49   93876   93879      47   93873   93876      49   93873   93879      49
   93888   93891      47   93885   93888      49   93885   93891      49   93900
   93903      47   93897   93900      49   93897   93903      49   93912   93915
      47   93909   93912      49   93909   93915      49   93924   93927      47
   93921   93924      49   93921   93927      49   93936   93939      47   93933
   93936      49   93933   93939      49   93948   93951      47   93945   93948
      49   93945   93951      49   93960   93963      47   93957   93960      49
   93957   93963      49   93972   93975      47   93969   93972      49   93969
   93975      49   93984   93987      47   93981   93984      49   93981   93987
      49   93996   93999      47   93993   93996      49   93993   93999      49
   94008   94011      47   94005   94008      49   94005   94011      49   94020
   94023      47   94017   94020      49   94017   94023      49   94032   94035
      47   94029   94032      49   94029   94035      49   94044   94047      47
   94041   94044      49   94041   94047      49   94056   94059      47   94053
   94056      49   94053   94059      49   94068   94071      47   94065   94068
      49   94065   94071      49   94080   94083      47   94077   94080      49
   94077   94083      49   94092   94095      47   94089   94092      49   94089
   94095      49   94104   94107      47   94101   94104      49   94101   94107
      49   94116   94119      47   94113   94116      49   94113   94119      49
   94128   94131      47   94125   94128      49   94125   94131      49   94140
   94143      47   94137   94140      49   94137   94143      49   94152   94155
      47   94149   94152      49   94149   94155      49   94164   94167      47
   94161   94164      49   94161   94167      49   94176   94179      47   94173
   94176      49   94173   94179      49   94188   94191      47   94185   94188
      49   94185   94191      49   94200   94203      47   94197   94200      49
   94197   94203      49   94212   94215      47   94209   94212      49   94209
   94215      49   94224   94227      47   94221   94224      49   94221   94227
      49   94236   94239      47   94233   94236      49   94233   94239      49
   94248   94251      47   94245   94248      49   94245   94251      49   94260
   94263      47   94257   94260      49   94257   94263      49   94272   94275
      47   94269   94272      49   94269   94275      49   94284   94287      47
   94281   94284      49   94281   94287      49   94296   94299      47   94293
   94296      49   94293   94299      49   94308   94311      47   94305   94308
      49   94305   94311      49   94320   94323      47   94317   94320      49
   94317   94323      49   94332   94335      47   94329   94332      49   94329
   94335      49   94344   94347      47   94341   94344      49   94341   94347
      49   94356   94359      47   94353   94356      49   94353   94359      49
   94368   94371      47   94365   94368      49   94365   94371      49   94380
   94383      47   94377   94380      49   94377   94383      49   94392   94395
      47   94389   94392      49   94389   94395      49   94404   94407      47
   94401   94404      49   94401   94407      49   94416   94419      47   94413
   94416      49   94413   94419      49   94428   94431      47   94425   94428
      49   94425   94431      49   94440   94443      47   94437   94440      49
   94437   94443      49   94452   94455      47   94449   94452      49   94449
   94455      49   94464   94467      47   94461   94464      49   94461   94467
      49   94476   94479      47   94473   94476      49   94473   94479      49
   94488   94491      47   94485   94488      49   94485   94491      49   94500
   94503      47   94497   94500      49   94497   94503      49   94512   94515
      47   94509   94512      49   94509   94515      49   94524   94527      47
   94521   94524      49   94521   94527      49   94536   94539      47   94533
   94536      49   94533   94539      49   94548   94551      47   94545   94548
      49   94545   94551      49   94560   94563      47   94557   94560      49
   94557   94563      49   94572   94575      47   94569   94572      49   94569
   94575      49   94584   94587      47   94581   94584      49   94581   94587
      49   94596   94599      47   94593   94596      49   94593   94599      49
   94608   94611      47   94605   94608      49   94605   94611      49   94620
   94623      47   94617   94620      49   94617   94623      49   94632   94635
      47   94629   94632      49   94629   94635      49   94644   94647      47
   94641   94644      49   94641   94647      49   94656   94659      47   94653
   94656      49   94653   94659      49   94668   94671      47   94665   94668
      49   94665   94671      49   94680   94683      47   94677   94680      49
   94677   94683      49   94692   94695      47   94689   94692      49   94689
   94695      49   94704   94707      47   94701   94704      49   94701   94707
      49   94716   94719      47   94713   94716      49   94713   94719      49
   94728   94731      47   94725   94728      49   94725   94731      49   94740
   94743      47   94737   94740      49   94737   94743      49   94752   94755
      47   94749   94752      49   94749   94755      49   94764   94767      47
   94761   94764      49   94761   94767      49   94776   94779      47   94773
   94776      49   94773   94779      49   94788   94791      47   94785   94788
      49   94785   94791      49   94800   94803      47   94797   94800      49
   94797   94803      49   94812   94815      47   94809   94812      49   94809
   94815      49   94824   94827      47   94821   94824      49   94821   94827
      49   94836   94839      47   94833   94836      49   94833   94839      49
   94848   94851      47   94845   94848      49   94845   94851      49   94860
   94863      47   94857   94860      49   94857   94863      49   94872   94875
      47   94869   94872      49   94869   94875      49   94884   94887      47
   94881   94884      49   94881   94887      49   94896   94899      47   94893
   94896      49   94893   94899      49   94908   94911      47   94905   94908
      49   94905   94911      49   94920   94923      47   94917   94920      49
   94917   94923      49   94932   94935      47   94929   94932      49   94929
   94935      49   94944   94947      47   94941   94944      49   94941   94947
      49   94956   94959      47   94953   94956      49   94953   94959      49
   94968   94971      47   94965   94968      49   94965   94971      49   94980
   94983      47   94977   94980      49   94977   94983      49   94992   94995
      47   94989   94992      49   94989   94995      49   95004   95007      47
   95001   95004      49   95001   95007      49   95016   95019      47   95013
   95016      49   95013   95019      49   95028   95031      47   95025   95028
      49   95025   95031      49   95040   95043      47   95037   95040      49
   95037   95043      49   95052   95055      47   95049   95052      49   95049
   95055      49   95064   95067      47   95061   95064      49   95061   95067
      49   95076   95079      47   95073   95076      49   95073   95079      49
   95088   95091      47   95085   95088      49   95085   95091      49   95100
   95103      47   95097   95100      49   95097   95103      49   95112   95115
      47   95109   95112      49   95109   95115      49   95124   95127      47
   95121   95124      49   95121   95127      49   95136   95139      47   95133
   95136      49   95133   95139      49   95148   95151      47   95145   95148
      49   95145   95151      49   95160   95163      47   95157   95160      49
   95157   95163      49   95172   95175      47   95169   95172      49   95169
   95175      49   95184   95187      47   95181   95184      49   95181   95187
      49   95196   95199      47   95193   95196      49   95193   95199      49
   95208   95211      47   95205   95208      49   95205   95211      49   95220
   95223      47   95217   95220      49   95217   95223      49   95232   95235
      47   95229   95232      49   95229   95235      49   95244   95247      47
   95241   95244      49   95241   95247      49   95256   95259      47   95253
   95256      49   95253   95259      49   95268   95271      47   95265   95268
      49   95265   95271      49   95280   95283      47   95277   95280      49
   95277   95283      49   95292   95295      47   95289   95292      49   95289
   95295      49   95304   95307      47   95301   95304      49   95301   95307
      49   95316   95319      47   95313   95316      49   95313   95319      49
   95328   95331      47   95325   95328      49   95325   95331      49   95340
   95343      47   95337   95340      49   95337   95343      49   95352   95355
      47   95349   95352      49   95349   95355      49   95364   95367      47
   95361   95364      49   95361   95367      49   95376   95379      47   95373
   95376      49   95373   95379      49   95388   95391      47   95385   95388
      49   95385   95391      49   95400   95403      47   95397   95400      49
   95397   95403      49   95412   95415      47   95409   95412      49   95409
   95415      49   95424   95427      47   95421   95424      49   95421   95427
      49   95436   95439      47   95433   95436      49   95433   95439      49
   95448   95451      47   95445   95448      49   95445   95451      49   95460
   95463      47   95457   95460      49   95457   95463      49   95472   95475
      47   95469   95472      49   95469   95475      49   95484   95487      47
   95481   95484      49   95481   95487      49   95496   95499      47   95493
   95496      49   95493   95499      49   95508   95511      47   95505   95508
      49   95505   95511      49   95520   95523      47   95517   95520      49
   95517   95523      49   95532   95535      47   95529   95532      49   95529
   95535      49   95544   95547      47   95541   95544      49   95541   95547
      49   95556   95559      47   95553   95556      49   95553   95559      49
   95568   95571      47   95565   95568      49   95565   95571      49   95580
   95583      47   95577   95580      49   95577   95583      49   95592   95595
      47   95589   95592      49   95589   95595      49   95604   95607      47
   95601   95604      49   95601   95607      49   95616   95619      47   95613
   95616      49   95613   95619      49   95628   95631      47   95625   95628
      49   95625   95631      49   95640   95643      47   95637   95640      49
   95637   95643      49   95652   95655      47   95649   95652      49   95649
   95655      49   95664   95667      47   95661   95664      49   95661   95667
      49   95676   95679      47   95673   95676      49   95673   95679      49
   95688   95691      47   95685   95688      49   95685   95691      49   95700
   95703      47   95697   95700      49   95697   95703      49   95712   95715
      47   95709   95712      49   95709   95715      49   95724   95727      47
   95721   95724      49   95721   95727      49   95736   95739      47   95733
   95736      49   95733   95739      49   95748   95751      47   95745   95748
      49   95745   95751      49   95760   95763      47   95757   95760      49
   95757   95763      49   95772   95775      47   95769   95772      49   95769
   95775      49   95784   95787      47   95781   95784      49   95781   95787
      49   95796   95799      47   95793   95796      49   95793   95799      49
   95808   95811      47   95805   95808      49   95805   95811      49   95820
   95823      47   95817   95820      49   95817   95823      49   95832   95835
      47   95829   95832      49   95829   95835      49   95844   95847      47
   95841   95844      49   95841   95847      49   95856   95859      47   95853
   95856      49   95853   95859      49   95868   95871      47   95865   95868
      49   95865   95871      49   95880   95883      47   95877   95880      49
   95877   95883      49   95892   95895      47   95889   95892      49   95889
   95895      49   95904   95907      47   95901   95904      49   95901   95907
      49   95916   95919      47   95913   95916      49   95913   95919      49
   95928   95931      47   95925   95928      49   95925   95931      49   95940
   95943      47   95937   95940      49   95937   95943      49   95952   95955
      47   95949   95952      49   95949   95955      49   95964   95967      47
   95961   95964      49   95961   95967      49   95976   95979      47   95973
   95976      49   95973   95979      49   95988   95991      47   95985   95988
      49   95985   95991      49   96000   96003      47   95997   96000      49
   95997   96003      49   96012   96015      47   96009   96012      49   96009
   96015      49   96024   96027      47   96021   96024      49   96021   96027
      49   96036   96039      47   96033   96036      49   96033   96039      49
   96048   96051      47   96045   96048      49   96045   96051      49   96060
   96063      47   96057   96060      49   96057   96063      49   96072   96075
      47   96069   96072      49   96069   96075      49   96084   96087      47
   96081   96084      49   96081   96087      49   96096   96099      47   96093
   96096      49   96093   96099      49   96108   96111      47   96105   96108
      49   96105   96111      49   96120   96123      47   96117   96120      49
   96117   96123      49   96132   96135      47   96129   96132      49   96129
   96135      49   96144   96147      47   96141   96144      49   96141   96147
      49   96156   96159      47   96153   96156      49   96153   96159      49
   96168   96171      47   96165   96168      49   96165   96171      49   96180
   96183      47   96177   96180      49   96177   96183      49   96192   96195
      47   96189   96192      49   96189   96195      49   96204   96207      47
   96201   96204      49   96201   96207      49   96216   96219      47   96213
   96216      49   96213   96219      49   96228   96231      47   96225   96228
      49   96225   96231      49   96240   96243      47   96237   96240      49
   96237   96243      49   96252   96255      47   96249   96252      49   96249
   96255      49   96264   96267      47   96261   96264      49   96261   96267
      49   96276   96279      47   96273   96276      49   96273   96279      49
   96288   96291      47   96285   96288      49   96285   96291      49   96300
   96303      47   96297   96300      49   96297   96303      49   96312   96315
      47   96309   96312      49   96309   96315      49   96324   96327      47
   96321   96324      49   96321   96327      49   96336   96339      47   96333
   96336      49   96333   96339      49   96348   96351      47   96345   96348
      49   96345   96351      49   96360   96363      47   96357   96360      49
   96357   96363      49   96372   96375      47   96369   96372      49   96369
   96375      49   96384   96387      47   96381   96384      49   96381   96387
      49   96396   96399      47   96393   96396      49   96393   96399      49
   96408   96411      47   96405   96408      49   96405   96411      49   96420
   96423      47   96417   96420      49   96417   96423      49   96432   96435
      47   96429   96432      49   96429   96435      49   96444   96447      47
   96441   96444      49   96441   96447      49   96456   96459      47   96453
   96456      49   96453   96459      49   96468   96471      47   96465   96468
      49   96465   96471      49   96480   96483      47   96477   96480      49
   96477   96483      49   96492   96495      47   96489   96492      49   96489
   96495      49   96504   96507      47   96501   96504      49   96501   96507
      49   96516   96519      47   96513   96516      49   96513   96519      49
   96528   96531      47   96525   96528      49   96525   96531      49   96540
   96543      47   96537   96540      49   96537   96543      49   96552   96555
      47   96549   96552      49   96549   96555      49   96564   96567      47
   96561   96564      49   96561   96567      49   96576   96579      47   96573
   96576      49   96573   96579      49   96588   96591      47   96585   96588
      49   96585   96591      49   96600   96603      47   96597   96600      49
   96597   96603      49   96612   96615      47   96609   96612      49   96609
   96615      49   96624   96627      47   96621   96624      49   96621   96627
      49   96636   96639      47   96633   96636      49   96633   96639      49
   96648   96651      47   96645   96648      49   96645   96651      49   96660
   96663      47   96657   96660      49   96657   96663      49   96672   96675
      47   96669   96672      49   96669   96675      49   96684   96687      47
   96681   96684      49   96681   96687      49   96696   96699      47   96693
   96696      49   96693   96699      49   96708   96711      47   96705   96708
      49   96705   96711      49   96720   96723      47   96717   96720      49
   96717   96723      49   96732   96735      47   96729   96732      49   96729
   96735      49   96744   96747      47   96741   96744      49   96741   96747
      49   96756   96759      47   96753   96756      49   96753   96759      49
   96768   96771      47   96765   96768      49   96765   96771      49   96780
   96783      47   96777   96780      49   96777   96783      49   96792   96795
      47   96789   96792      49   96789   96795      49   96804   96807      47
   96801   96804      49   96801   96807      49   96816   96819      47   96813
   96816      49   96813   96819      49   96828   96831      47   96825   96828
      49   96825   96831      49   96840   96843      47   96837   96840      49
   96837   96843      49   96852   96855      47   96849   96852      49   96849
   96855      49   96864   96867      47   96861   96864      49   96861   96867
      49   96876   96879      47   96873   96876      49   96873   96879      49
   96888   96891      47   96885   96888      49   96885   96891      49   96900
   96903      47   96897   96900      49   96897   96903      49   96912   96915
      47   96909   96912      49   96909   96915      49   96924   96927      47
   96921   96924      49   96921   96927      49   96936   96939      47   96933
   96936      49   96933   96939      49   96948   96951      47   96945   96948
      49   96945   96951      49   96960   96963      47   96957   96960      49
   96957   96963      49   96972   96975      47   96969   96972      49   96969
   96975      49   96984   96987      47   96981   96984      49   96981   96987
      49   96996   96999      47   96993   96996      49   96993   96999      49
   97008   97011      47   97005   97008      49   97005   97011      49   97020
   97023      47   97017   97020      49   97017   97023      49   97032   97035
      47   97029   97032      49   97029   97035      49   97044   97047      47
   97041   97044      49   97041   97047      49   97056   97059      47   97053
   97056      49   97053   97059      49   97068   97071      47   97065   97068
      49   97065   97071      49   97080   97083      47   97077   97080      49
   97077   97083      49   97092   97095      47   97089   97092      49   97089
   97095      49   97104   97107      47   97101   97104      49   97101   97107
      49   97116   97119      47   97113   97116      49   97113   97119      49
   97128   97131      47   97125   97128      49   97125   97131      49   97140
   97143      47   97137   97140      49   97137   97143      49   97152   97155
      47   97149   97152      49   97149   97155      49   97164   97167      47
   97161   97164      49   97161   97167      49   97176   97179      47   97173
   97176      49   97173   97179      49   97188   97191      47   97185   97188
      49   97185   97191      49   97200   97203      47   97197   97200      49
   97197   97203      49   97212   97215      47   97209   97212      49   97209
   97215      49   97224   97227      47   97221   97224      49   97221   97227
      49   97236   97239      47   97233   97236      49   97233   97239      49
   97248   97251      47   97245   97248      49   97245   97251      49   97260
   97263      47   97257   97260      49   97257   97263      49   97272   97275
      47   97269   97272      49   97269   97275      49   97284   97287      47
   97281   97284      49   97281   97287      49   97296   97299      47   97293
   97296      49   97293   97299      49   97308   97311      47   97305   97308
      49   97305   97311      49   97320   97323      47   97317   97320      49
   97317   97323      49   97332   97335      47   97329   97332      49   97329
   97335      49   97344   97347      47   97341   97344      49   97341   97347
      49   97356   97359      47   97353   97356      49   97353   97359      49
   97368   97371      47   97365   97368      49   97365   97371      49   97380
   97383      47   97377   97380      49   97377   97383      49   97392   97395
      47   97389   97392      49   97389   97395      49   97404   97407      47
   97401   97404      49   97401   97407      49   97416   97419      47   97413
   97416      49   97413   97419      49   97428   97431      47   97425   97428
      49   97425   97431      49   97440   97443      47   97437   97440      49
   97437   97443      49   97452   97455      47   97449   97452      49   97449
   97455      49   97464   97467      47   97461   97464      49   97461   97467
      49   97476   97479      47   97473   97476      49   97473   97479      49
   97488   97491      47   97485   97488      49   97485   97491      49   97500
   97503      47   97497   97500      49   97497   97503      49   97512   97515
      47   97509   97512      49   97509   97515      49   97524   97527      47
   97521   97524      49   97521   97527      49   97536   97539      47   97533
   97536      49   97533   97539      49   97548   97551      47   97545   97548
      49   97545   97551      49   97560   97563      47   97557   97560      49
   97557   97563      49   97572   97575      47   97569   97572      49   97569
   97575      49   97584   97587      47   97581   97584      49   97581   97587
      49   97596   97599      47   97593   97596      49   97593   97599      49
   97608   97611      47   97605   97608      49   97605   97611      49   97620
   97623      47   97617   97620      49   97617   97623      49   97632   97635
      47   97629   97632      49   97629   97635      49   97644   97647      47
   97641   97644      49   97641   97647      49   97656   97659      47   97653
   97656      49   97653   97659      49   97668   97671      47   97665   97668
      49   97665   97671      49   97680   97683      47   97677   97680      49
   97677   97683      49   97692   97695      47   97689   97692      49   97689
   97695      49   97704   97707      47   97701   97704      49   97701   97707
      49   97716   97719      47   97713   97716      49   97713   97719      49
   97728   97731      47   97725   97728      49   97725   97731      49   97740
   97743      47   97737   97740      49   97737   97743      49   97752   97755
      47   97749   97752      49   97749   97755      49   97764   97767      47
   97761   97764      49   97761   97767      49   97776   97779      47   97773
   97776      49   97773   97779      49   97788   97791      47   97785   97788
      49   97785   97791      49   97800   97803      47   97797   97800      49
   97797   97803      49   97812   97815      47   97809   97812      49   97809
   97815      49   97824   97827      47   97821   97824      49   97821   97827
      49   97836   97839      47   97833   97836      49   97833   97839      49
   97848   97851      47   97845   97848      49   97845   97851      49   97860
   97863      47   97857   97860      49   97857   97863      49   97872   97875
      47   97869   97872      49   97869   97875      49   97884   97887      47
   97881   97884      49   97881   97887      49   97896   97899      47   97893
   97896      49   97893   97899      49   97908   97911      47   97905   97908
      49   97905   97911      49   97920   97923      47   97917   97920      49
   97917   97923      49   97932   97935      47   97929   97932      49   97929
   97935      49   97944   97947      47   97941   97944      49   97941   97947
      49   97956   97959      47   97953   97956      49   97953   97959      49
   97968   97971      47   97965   97968      49   97965   97971      49   97980
   97983      47   97977   97980      49   97977   97983      49   97992   97995
      47   97989   97992      49   97989   97995      49   98004   98007      47
   98001   98004      49   98001   98007      49   98016   98019      47   98013
   98016      49   98013   98019      49   98028   98031      47   98025   98028
      49   98025   98031      49   98040   98043      47   98037   98040      49
   98037   98043      49   98052   98055      47   98049   98052      49   98049
   98055      49   98064   98067      47   98061   98064      49   98061   98067
      49   98076   98079      47   98073   98076      49   98073   98079      49
   98088   98091      47   98085   98088      49   98085   98091      49   98100
   98103      47   98097   98100      49   98097   98103      49   98112   98115
      47   98109   98112      49   98109   98115      49   98124   98127      47
   98121   98124      49   98121   98127      49   98136   98139      47   98133
   98136      49   98133   98139      49   98148   98151      47   98145   98148
      49   98145   98151      49   98160   98163      47   98157   98160      49
   98157   98163      49   98172   98175      47   98169   98172      49   98169
   98175      49   98184   98187      47   98181   98184      49   98181   98187
      49   98196   98199      47   98193   98196      49   98193   98199      49
   98208   98211      47   98205   98208      49   98205   98211      49   98220
   98223      47   98217   98220      49   98217   98223      49   98232   98235
      47   98229   98232      49   98229   98235      49   98244   98247      47
   98241   98244      49   98241   98247      49   98256   98259      47   98253
   98256      49   98253   98259      49   98268   98271      47   98265   98268
      49   98265   98271      49   98280   98283      47   98277   98280      49
   98277   98283      49   98292   98295      47   98289   98292      49   98289
   98295      49   98304   98307      47   98301   98304      49   98301   98307
      49   98316   98319      47   98313   98316      49   98313   98319      49
   98328   98331      47   98325   98328      49   98325   98331      49   98340
   98343      47   98337   98340      49   98337   98343      49   98352   98355
      47   98349   98352      49   98349   98355      49   98364   98367      47
   98361   98364      49   98361   98367      49   98376   98379      47   98373
   98376      49   98373   98379      49   98388   98391      47   98385   98388
      49   98385   98391      49   98400   98403      47   98397   98400      49
   98397   98403      49   98412   98415      47   98409   98412      49   98409
   98415      49   98424   98427      47   98421   98424      49   98421   98427
      49   98436   98439      47   98433   98436      49   98433   98439      49
   98448   98451      47   98445   98448      49   98445   98451      49   98460
   98463      47   98457   98460      49   98457   98463      49   98472   98475
      47   98469   98472      49   98469   98475      49   98484   98487      47
   98481   98484      49   98481   98487      49   98496   98499      47   98493
   98496      49   98493   98499      49   98508   98511      47   98505   98508
      49   98505   98511      49   98520   98523      47   98517   98520      49
   98517   98523      49   98532   98535      47   98529   98532      49   98529
   98535      49   98544   98547      47   98541   98544      49   98541   98547
      49   98556   98559      47   98553   98556      49   98553   98559      49
   98568   98571      47   98565   98568      49   98565   98571      49   98580
   98583      47   98577   98580      49   98577   98583      49   98592   98595
      47   98589   98592      49   98589   98595      49   98604   98607      47
   98601   98604      49   98601   98607      49   98616   98619      47   98613
   98616      49   98613   98619      49   98628   98631      47   98625   98628
      49   98625   98631      49   98640   98643      47   98637   98640      49
   98637   98643      49   98652   98655      47   98649   98652      49   98649
   98655      49   98664   98667      47   98661   98664      49   98661   98667
      49   98676   98679      47   98673   98676      49   98673   98679      49
   98688   98691      47   98685   98688      49   98685   98691      49   98700
   98703      47   98697   98700      49   98697   98703      49   98712   98715
      47   98709   98712      49   98709   98715      49   98724   98727      47
   98721   98724      49   98721   98727      49   98736   98739      47   98733
   98736      49   98733   98739      49   98748   98751      47   98745   98748
      49   98745   98751      49   98760   98763      47   98757   98760      49
   98757   98763      49   98772   98775      47   98769   98772      49   98769
   98775      49   98784   98787      47   98781   98784      49   98781   98787
      49   98796   98799      47   98793   98796      49   98793   98799      49
   98808   98811      47   98805   98808      49   98805   98811      49   98820
   98823      47   98817   98820      49   98817   98823      49   98832   98835
      47   98829   98832      49   98829   98835      49   98844   98847      47
   98841   98844      49   98841   98847      49   98856   98859      47   98853
   98856      49   98853   98859      49   98868   98871      47   98865   98868
      49   98865   98871      49   98880   98883      47   98877   98880      49
   98877   98883      49   98892   98895      47   98889   98892      49   98889
   98895      49   98904   98907      47   98901   98904      49   98901   98907
      49   98916   98919      47   98913   98916      49   98913   98919      49
   98928   98931      47   98925   98928      49   98925   98931      49   98940
   98943      47   98937   98940      49   98937   98943      49   98952   98955
      47   98949   98952      49   98949   98955      49   98964   98967      47
   98961   98964      49   98961   98967      49   98976   98979      47   98973
   98976      49   98973   98979      49   98988   98991      47   98985   98988
      49   98985   98991      49   99000   99003      47   98997   99000      49
   98997   99003      49   99012   99015      47   99009   99012      49   99009
   99015      49   99024   99027      47   99021   99024      49   99021   99027
      49   99036   99039      47   99033   99036      49   99033   99039      49
   99048   99051      47   99045   99048      49   99045   99051      49   99060
   99063      47   99057   99060      49   99057   99063      49   99072   99075
      47   99069   99072      49   99069   99075      49   99084   99087      47
   99081   99084      49   99081   99087      49   99096   99099      47   99093
   99096      49   99093   99099      49   99108   99111      47   99105   99108
      49   99105   99111      49   99120   99123      47   99117   99120      49
   99117   99123      49   99132   99135      47   99129   99132      49   99129
   99135      49   99144   99147      47   99141   99144      49   99141   99147
      49   99156   99159      47   99153   99156      49   99153   99159      49
   99168   99171      47   99165   99168      49   99165   99171      49   99180
   99183      47   99177   99180      49   99177   99183      49   99192   99195
      47   99189   99192      49   99189   99195      49   99204   99207      47
   99201   99204      49   99201   99207      49   99216   99219      47   99213
   99216      49   99213   99219      49   99228   99231      47   99225   99228
      49   99225   99231      49   99240   99243      47   99237   99240      49
   99237   99243      49   99252   99255      47   99249   99252      49   99249
   99255      49   99264   99267      47   99261   99264      49   99261   99267
      49   99276   99279      47   99273   99276      49   99273   99279      49
   99288   99291      47   99285   99288      49   99285   99291      49   99300
   99303      47   99297   99300      49   99297   99303      49   99312   99315
      47   99309   99312      49   99309   99315      49   99324   99327      47
   99321   99324      49   99321   99327      49   99336   99339      47   99333
   99336      49   99333   99339      49   99348   99351      47   99345   99348
      49   99345   99351      49   99360   99363      47   99357   99360      49
   99357   99363      49   99372   99375      47   99369   99372      49   99369
   99375      49   99384   99387      47   99381   99384      49   99381   99387
      49   99396   99399      47   99393   99396      49   99393   99399      49
   99408   99411      47   99405   99408      49   99405   99411      49   99420
   99423      47   99417   99420      49   99417   99423      49   99432   99435
      47   99429   99432      49   99429   99435      49   99444   99447      47
   99441   99444      49   99441   99447      49   99456   99459      47   99453
   99456      49   99453   99459      49   99468   99471      47   99465   99468
      49   99465   99471      49   99480   99483      47   99477   99480      49
   99477   99483      49   99492   99495      47   99489   99492      49   99489
   99495      49   99504   99507      47   99501   99504      49   99501   99507
      49   99516   99519      47   99513   99516      49   99513   99519      49
   99528   99531      47   99525   99528      49   99525   99531      49   99540
   99543      47   99537   99540      49   99537   99543      49   99552   99555
      47   99549   99552      49   99549   99555      49   99564   99567      47
   99561   99564      49   99561   99567      49   99576   99579      47   99573
   99576      49   99573   99579      49   99588   99591      47   99585   99588
      49   99585   99591      49   99600   99603      47   99597   99600      49
   99597   99603      49   99612   99615      47   99609   99612      49   99609
   99615      49   99624   99627      47   99621   99624      49   99621   99627
      49   99636   99639      47   99633   99636      49   99633   99639      49
   99648   99651      47   99645   99648      49   99645   99651      49   99660
   99663      47   99657   99660      49   99657   99663      49   99672   99675
      47   99669   99672      49   99669   99675      49   99684   99687      47
   99681   99684      49   99681   99687      49   99696   99699      47   99693
   99696      49   99693   99699      49   99708   99711      47   99705   99708
      49   99705   99711      49   99720   99723      47   99717   99720      49
   99717   99723      49   99732   99735      47   99729   99732      49   99729
   99735      49   99744   99747      47   99741   99744      49   99741   99747
      49   99756   99759      47   99753   99756      49   99753   99759      49
   99768   99771      47   99765   99768      49   99765   99771      49   99780
   99783      47   99777   99780      49   99777   99783      49   99792   99795
      47   99789   99792      49   99789   99795      49   99804   99807      47
   99801   99804      49   99801   99807      49   99816   99819      47   99813
   99816      49   99813   99819      49   99828   99831      47   99825   99828
      49   99825   99831      49   99840   99843      47   99837   99840      49
   99837   99843      49   99852   99855      47   99849   99852      49   99849
   99855      49   99864   99867      47   99861   99864      49   99861   99867
      49   99876   99879      47   99873   99876      49   99873   99879      49
   99888   99891      47   99885   99888      49   99885   99891      49   99900
   99903      47   99897   99900      49   99897   99903      49   99912   99915
      47   99909   99912      49   99909   99915      49   99924   99927      47
   99921   99924      49   99921   99927      49   99936   99939      47   99933
   99936      49   99933   99939      49   99948   99951      47   99945   99948
      49   99945   99951      49   99960   99963      47   99957   99960      49
   99957   99963      49   99972   99975      47   99969   99972      49   99969
   99975      49   99984   99987      47   99981   99984      49   99981   99987
      49   99996   99999      47   99993   99996      49   99993   99999      49
  100008  100011      47  100005  100008      49  100005  100011      49  100020
  100023      47  100017  100020      49  100017  100023      49  100032  100035
      47  100029  100032      49  100029  100035      49  100044  100047      47
  100041  100044      49  100041  100047      49  100056  100059      47  100053
  100056      49  100053  100059      49  100068  100071      47  100065  100068
      49  100065  100071      49  100080  100083      47  100077  100080      49
  100077  100083      49  100092  100095      47  100089  100092      49  100089
  100095      49  100104  100107      47  100101  100104      49  100101  100107
      49  100116  100119      47  100113  100116      49  100113  100119      49
  100128  100131      47  100125  100128      49  100125  100131      49  100140
  100143      47  100137  100140      49  100137  100143      49  100152  100155
      47  100149  100152      49  100149  100155      49  100164  100167      47
  100161  100164      49  100161  100167      49  100176  100179      47  100173
  100176      49  100173  100179      49  100188  100191      47  100185  100188
      49  100185  100191      49  100200  100203      47  100197  100200      49
  100197  100203      49  100212  100215      47  100209  100212      49  100209
  100215      49  100224  100227      47  100221  100224      49  100221  100227
      49  100236  100239      47  100233  100236      49  100233  100239      49
  100248  100251      47  100245  100248      49  100245  100251      49  100260
  100263      47  100257  100260      49  100257  100263      49  100272  100275
      47  100269  100272      49  100269  100275      49  100284  100287      47
  100281  100284      49  100281  100287      49  100296  100299      47  100293
  100296      49  100293  100299      49  100308  100311      47  100305  100308
      49  100305  100311      49  100320  100323      47  100317  100320      49
  100317  100323      49  100332  100335      47  100329  100332      49  100329
  100335      49  100344  100347      47  100341  100344      49  100341  100347
      49  100356  100359      47  100353  100356      49  100353  100359      49
  100368  100371      47  100365  100368      49  100365  100371      49  100380
  100383      47  100377  100380      49  100377  100383      49  100392  100395
      47  100389  100392      49  100389  100395      49  100404  100407      47
  100401  100404      49  100401  100407      49  100416  100419      47  100413
  100416      49  100413  100419      49  100428  100431      47  100425  100428
      49  100425  100431      49  100440  100443      47  100437  100440      49
  100437  100443      49  100452  100455      47  100449  100452      49  100449
  100455      49  100464  100467      47  100461  100464      49  100461  100467
      49  100476  100479      47  100473  100476      49  100473  100479      49
  100488  100491      47  100485  100488      49  100485  100491      49  100500
  100503      47  100497  100500      49  100497  100503      49  100512  100515
      47  100509  100512      49  100509  100515      49  100524  100527      47
  100521  100524      49  100521  100527      49  100536  100539      47  100533
  100536      49  100533  100539      49  100548  100551      47  100545  100548
      49  100545  100551      49  100560  100563      47  100557  100560      49
  100557  100563      49  100572  100575      47  100569  100572      49  100569
  100575      49  100584  100587      47  100581  100584      49  100581  100587
      49  100596  100599      47  100593  100596      49  100593  100599      49
  100608  100611      47  100605  100608      49  100605  100611      49  100620
  100623      47  100617  100620      49  100617  100623      49  100632  100635
      47  100629  100632      49  100629  100635      49  100644  100647      47
  100641  100644      49  100641  100647      49  100656  100659      47  100653
  100656      49  100653  100659      49  100668  100671      47  100665  100668
      49  100665  100671      49  100680  100683      47  100677  100680      49
  100677  100683      49  100692  100695      47  100689  100692      49  100689
  100695      49  100704  100707      47  100701  100704      49  100701  100707
      49  100716  100719      47  100713  100716      49  100713  100719      49
  100728  100731      47  100725  100728      49  100725  100731      49  100740
  100743      47  100737  100740      49  100737  100743      49  100752  100755
      47  100749  100752      49  100749  100755      49  100764  100767      47
  100761  100764      49  100761  100767      49  100776  100779      47  100773
  100776      49  100773  100779      49  100788  100791      47  100785  100788
      49  100785  100791      49  100800  100803      47  100797  100800      49
  100797  100803      49  100812  100815      47  100809  100812      49  100809
  100815      49  100824  100827      47  100821  100824      49  100821  100827
      49  100836  100839      47  100833  100836      49  100833  100839      49
  100848  100851      47  100845  100848      49  100845  100851      49  100860
  100863      47  100857  100860      49  100857  100863      49  100872  100875
      47  100869  100872      49  100869  100875      49  100884  100887      47
  100881  100884      49  100881  100887      49  100896  100899      47  100893
  100896      49  100893  100899      49  100908  100911      47  100905  100908
      49  100905  100911      49  100920  100923      47  100917  100920      49
  100917  100923      49  100932  100935      47  100929  100932      49  100929
  100935      49  100944  100947      47  100941  100944      49  100941  100947
      49  100956  100959      47  100953  100956      49  100953  100959      49
  100968  100971      47  100965  100968      49  100965  100971      49  100980
  100983      47  100977  100980      49  100977  100983      49  100992  100995
      47  100989  100992      49  100989  100995      49  101004  101007      47
  101001  101004      49  101001  101007      49  101016  101019      47  101013
  101016      49  101013  101019      49  101028  101031      47  101025  101028
      49  101025  101031      49  101040  101043      47  101037  101040      49
  101037  101043      49  101052  101055      47  101049  101052      49  101049
  101055      49  101064  101067      47  101061  101064      49  101061  101067
      49  101076  101079      47  101073  101076      49  101073  101079      49
  101088  101091      47  101085  101088      49  101085  101091      49  101100
  101103      47  101097  101100      49  101097  101103      49  101112  101115
      47  101109  101112      49  101109  101115      49  101124  101127      47
  101121  101124      49  101121  101127      49  101136  101139      47  101133
  101136      49  101133  101139      49  101148  101151      47  101145  101148
      49  101145  101151      49  101160  101163      47  101157  101160      49
  101157  101163      49  101172  101175      47  101169  101172      49  101169
  101175      49  101184  101187      47  101181  101184      49  101181  101187
      49  101196  101199      47  101193  101196      49  101193  101199      49
  101208  101211      47  101205  101208      49  101205  101211      49  101220
  101223      47  101217  101220      49  101217  101223      49  101232  101235
      47  101229  101232      49  101229  101235      49  101244  101247      47
  101241  101244      49  101241  101247      49  101256  101259      47  101253
  101256      49  101253  101259      49  101268  101271      47  101265  101268
      49  101265  101271      49  101280  101283      47  101277  101280      49
  101277  101283      49  101292  101295      47  101289  101292      49  101289
  101295      49  101304  101307      47  101301  101304      49  101301  101307
      49  101316  101319      47  101313  101316      49  101313  101319      49
  101328  101331      47  101325  101328      49  101325  101331      49  101340
  101343      47  101337  101340      49  101337  101343      49  101352  101355
      47  101349  101352      49  101349  101355      49  101364  101367      47
  101361  101364      49  101361  101367      49  101376  101379      47  101373
  101376      49  101373  101379      49  101388  101391      47  101385  101388
      49  101385  101391      49  101400  101403      47  101397  101400      49
  101397  101403      49  101412  101415      47  101409  101412      49  101409
  101415      49  101424  101427      47  101421  101424      49  101421  101427
      49  101436  101439      47  101433  101436      49  101433  101439      49
  101448  101451      47  101445  101448      49  101445  101451      49  101460
  101463      47  101457  101460      49  101457  101463      49  101472  101475
      47  101469  101472      49  101469  101475      49  101484  101487      47
  101481  101484      49  101481  101487      49  101496  101499      47  101493
  101496      49  101493  101499      49  101508  101511      47  101505  101508
      49  101505  101511      49  101520  101523      47  101517  101520      49
  101517  101523      49  101532  101535      47  101529  101532      49  101529
  101535      49  101544  101547      47  101541  101544      49  101541  101547
      49  101556  101559      47  101553  101556      49  101553  101559      49
  101568  101571      47  101565  101568      49  101565  101571      49  101580
  101583      47  101577  101580      49  101577  101583      49  101592  101595
      47  101589  101592      49  101589  101595      49  101604  101607      47
  101601  101604      49  101601  101607      49  101616  101619      47  101613
  101616      49  101613  101619      49  101628  101631      47  101625  101628
      49  101625  101631      49  101640  101643      47  101637  101640      49
  101637  101643      49  101652  101655      47  101649  101652      49  101649
  101655      49  101664  101667      47  101661  101664      49  101661  101667
      49  101676  101679      47  101673  101676      49  101673  101679      49
  101688  101691      47  101685  101688      49  101685  101691      49  101700
  101703      47  101697  101700      49  101697  101703      49  101712  101715
      47  101709  101712      49  101709  101715      49  101724  101727      47
  101721  101724      49  101721  101727      49  101736  101739      47  101733
  101736      49  101733  101739      49  101748  101751      47  101745  101748
      49  101745  101751      49  101760  101763      47  101757  101760      49
  101757  101763      49  101772  101775      47  101769  101772      49  101769
  101775      49  101784  101787      47  101781  101784      49  101781  101787
      49  101796  101799      47  101793  101796      49  101793  101799      49
  101808  101811      47  101805  101808      49  101805  101811      49  101820
  101823      47  101817  101820      49  101817  101823      49  101832  101835
      47  101829  101832      49  101829  101835      49  101844  101847      47
  101841  101844      49  101841  101847      49  101856  101859      47  101853
  101856      49  101853  101859      49  101868  101871      47  101865  101868
      49  101865  101871      49  101880  101883      47  101877  101880      49
  101877  101883      49  101892  101895      47  101889  101892      49  101889
  101895      49  101904  101907      47  101901  101904      49  101901  101907
      49  101916  101919      47  101913  101916      49  101913  101919      49
  101928  101931      47  101925  101928      49  101925  101931      49  101940
  101943      47  101937  101940      49  101937  101943      49  101952  101955
      47  101949  101952      49  101949  101955      49  101964  101967      47
  101961  101964      49  101961  101967      49  101976  101979      47  101973
  101976      49  101973  101979      49  101988  101991      47  101985  101988
      49  101985  101991      49  102000  102003      47  101997  102000      49
  101997  102003      49  102012  102015      47  102009  102012      49  102009
  102015      49  102024  102027      47  102021  102024      49  102021  102027
      49  102036  102039      47  102033  102036      49  102033  102039      49
  102048  102051      47  102045  102048      49  102045  102051      49  102060
  102063      47  102057  102060      49  102057  102063      49  102072  102075
      47  102069  102072      49  102069  102075      49  102084  102087      47
  102081  102084      49  102081  102087      49  102096  102099      47  102093
  102096      49  102093  102099      49  102108  102111      47  102105  102108
      49  102105  102111      49  102120  102123      47  102117  102120      49
  102117  102123      49  102132  102135      47  102129  102132      49  102129
  102135      49  102144  102147      47  102141  102144      49  102141  102147
      49  102156  102159      47  102153  102156      49  102153  102159      49
  102168  102171      47  102165  102168      49  102165  102171      49  102180
  102183      47  102177  102180      49  102177  102183      49  102192  102195
      47  102189  102192      49  102189  102195      49  102204  102207      47
  102201  102204      49  102201  102207      49  102216  102219      47  102213
  102216      49  102213  102219      49  102228  102231      47  102225  102228
      49  102225  102231      49  102240  102243      47  102237  102240      49
  102237  102243      49  102252  102255      47  102249  102252      49  102249
  102255      49  102264  102267      47  102261  102264      49  102261  102267
      49  102276  102279      47  102273  102276      49  102273  102279      49
  102288  102291      47  102285  102288      49  102285  102291      49  102300
  102303      47  102297  102300      49  102297  102303      49  102312  102315
      47  102309  102312      49  102309  102315      49  102324  102327      47
  102321  102324      49  102321  102327      49  102336  102339      47  102333
  102336      49  102333  102339      49  102348  102351      47  102345  102348
      49  102345  102351      49  102360  102363      47  102357  102360      49
  102357  102363      49  102372  102375      47  102369  102372      49  102369
  102375      49  102384  102387      47  102381  102384      49  102381  102387
      49  102396  102399      47  102393  102396      49  102393  102399      49
  102408  102411      47  102405  102408      49  102405  102411      49  102420
  102423      47  102417  102420      49  102417  102423      49  102432  102435
      47  102429  102432      49  102429  102435      49  102444  102447      47
  102441  102444      49  102441  102447      49  102456  102459      47  102453
  102456      49  102453  102459      49  102468  102471      47  102465  102468
      49  102465  102471      49  102480  102483      47  102477  102480      49
  102477  102483      49  102492  102495      47  102489  102492      49  102489
  102495      49  102504  102507      47  102501  102504      49  102501  102507
      49  102516  102519      47  102513  102516      49  102513  102519      49
  102528  102531      47  102525  102528      49  102525  102531      49  102540
  102543      47  102537  102540      49  102537  102543      49  102552  102555
      47  102549  102552      49  102549  102555      49  102564  102567      47
  102561  102564      49  102561  102567      49  102576  102579      47  102573
  102576      49  102573  102579      49  102588  102591      47  102585  102588
      49  102585  102591      49  102600  102603      47  102597  102600      49
  102597  102603      49  102612  102615      47  102609  102612      49  102609
  102615      49  102624  102627      47  102621  102624      49  102621  102627
      49  102636  102639      47  102633  102636      49  102633  102639      49
  102648  102651      47  102645  102648      49  102645  102651      49  102660
  102663      47  102657  102660      49  102657  102663      49  102672  102675
      47  102669  102672      49  102669  102675      49  102684  102687      47
  102681  102684      49  102681  102687      49  102696  102699      47  102693
  102696      49  102693  102699      49  102708  102711      47  102705  102708
      49  102705  102711      49  102720  102723      47  102717  102720      49
  102717  102723      49  102732  102735      47  102729  102732      49  102729
  102735      49  102744  102747      47  102741  102744      49  102741  102747
      49  102756  102759      47  102753  102756      49  102753  102759      49
  102768  102771      47  102765  102768      49  102765  102771      49  102780
  102783      47  102777  102780      49  102777  102783      49  102792  102795
      47  102789  102792      49  102789  102795      49  102804  102807      47
  102801  102804      49  102801  102807      49  102816  102819      47  102813
  102816      49  102813  102819      49  102828  102831      47  102825  102828
      49  102825  102831      49  102840  102843      47  102837  102840      49
  102837  102843      49  102852  102855      47  102849  102852      49  102849
  102855      49  102864  102867      47  102861  102864      49  102861  102867
      49  102876  102879      47  102873  102876      49  102873  102879      49
  102888  102891      47  102885  102888      49  102885  102891      49  102900
  102903      47  102897  102900      49  102897  102903      49  102912  102915
      47  102909  102912      49  102909  102915      49  102924  102927      47
  102921  102924      49  102921  102927      49  102936  102939      47  102933
  102936      49  102933  102939      49  102948  102951      47  102945  102948
      49  102945  102951      49  102960  102963      47  102957  102960      49
  102957  102963      49  102972  102975      47  102969  102972      49  102969
  102975      49  102984  102987      47  102981  102984      49  102981  102987
      49  102996  102999      47  102993  102996      49  102993  102999      49
  103008  103011      47  103005  103008      49  103005  103011      49  103020
  103023      47  103017  103020      49  103017  103023      49  103032  103035
      47  103029  103032      49  103029  103035      49  103044  103047      47
  103041  103044      49  103041  103047      49  103056  103059      47  103053
  103056      49  103053  103059      49  103068  103071      47  103065  103068
      49  103065  103071      49  103080  103083      47  103077  103080      49
  103077  103083      49  103092  103095      47  103089  103092      49  103089
  103095      49  103104  103107      47  103101  103104      49  103101  103107
      49  103116  103119      47  103113  103116      49  103113  103119      49
  103128  103131      47  103125  103128      49  103125  103131      49  103140
  103143      47  103137  103140      49  103137  103143      49  103152  103155
      47  103149  103152      49  103149  103155      49  103164  103167      47
  103161  103164      49  103161  103167      49  103176  103179      47  103173
  103176      49  103173  103179      49  103188  103191      47  103185  103188
      49  103185  103191      49  103200  103203      47  103197  103200      49
  103197  103203      49  103212  103215      47  103209  103212      49  103209
  103215      49  103224  103227      47  103221  103224      49  103221  103227
      49  103236  103239      47  103233  103236      49  103233  103239      49
  103248  103251      47  103245  103248      49  103245  103251      49  103260
  103263      47  103257  103260      49  103257  103263      49  103272  103275
      47  103269  103272      49  103269  103275      49  103284  103287      47
  103281  103284      49  103281  103287      49  103296  103299      47  103293
  103296      49  103293  103299      49  103308  103311      47  103305  103308
      49  103305  103311      49  103320  103323      47  103317  103320      49
  103317  103323      49  103332  103335      47  103329  103332      49  103329
  103335      49  103344  103347      47  103341  103344      49  103341  103347
      49  103356  103359      47  103353  103356      49  103353  103359      49
  103368  103371      47  103365  103368      49  103365  103371      49  103380
  103383      47  103377  103380      49  103377  103383      49  103392  103395
      47  103389  103392      49  103389  103395      49  103404  103407      47
  103401  103404      49  103401  103407      49  103416  103419      47  103413
  103416      49  103413  103419      49  103428  103431      47  103425  103428
      49  103425  103431      49  103440  103443      47  103437  103440      49
  103437  103443      49  103452  103455      47  103449  103452      49  103449
  103455      49  103464  103467      47  103461  103464      49  103461  103467
      49  103476  103479      47  103473  103476      49  103473  103479      49
  103488  103491      47  103485  103488      49  103485  103491      49  103500
  103503      47  103497  103500      49  103497  103503      49  103512  103515
      47  103509  103512      49  103509  103515      49  103524  103527      47
  103521  103524      49  103521  103527      49  103536  103539      47  103533
  103536      49  103533  103539      49  103548  103551      47  103545  103548
      49  103545  103551      49  103560  103563      47  103557  103560      49
  103557  103563      49  103572  103575      47  103569  103572      49  103569
  103575      49  103584  103587      47  103581  103584      49  103581  103587
      49  103596  103599      47  103593  103596      49  103593  103599      49
  103608  103611      47  103605  103608      49  103605  103611      49  103620
  103623      47  103617  103620      49  103617  103623      49  103632  103635
      47  103629  103632      49  103629  103635      49  103644  103647      47
  103641  103644      49  103641  103647      49  103656  103659      47  103653
  103656      49  103653  103659      49  103668  103671      47  103665  103668
      49  103665  103671      49  103680  103683      47  103677  103680      49
  103677  103683      49  103692  103695      47  103689  103692      49  103689
  103695      49  103704  103707      47  103701  103704      49  103701  103707
      49  103716  103719      47  103713  103716      49  103713  103719      49
  103728  103731      47  103725  103728      49  103725  103731      49  103740
  103743      47  103737  103740      49  103737  103743      49  103752  103755
      47  103749  103752      49  103749  103755      49  103764  103767      47
  103761  103764      49  103761  103767      49  103776  103779      47  103773
  103776      49  103773  103779      49  103788  103791      47  103785  103788
      49  103785  103791      49  103800  103803      47  103797  103800      49
  103797  103803      49  103812  103815      47  103809  103812      49  103809
  103815      49  103824  103827      47  103821  103824      49  103821  103827
      49  103836  103839      47  103833  103836      49  103833  103839      49
  103848  103851      47  103845  103848      49  103845  103851      49  103860
  103863      47  103857  103860      49  103857  103863      49  103872  103875
      47  103869  103872      49  103869  103875      49  103884  103887      47
  103881  103884      49  103881  103887      49  103896  103899      47  103893
  103896      49  103893  103899      49  103908  103911      47  103905  103908
      49  103905  103911      49  103920  103923      47  103917  103920      49
  103917  103923      49  103932  103935      47  103929  103932      49  103929
  103935      49  103944  103947      47  103941  103944      49  103941  103947
      49  103956  103959      47  103953  103956      49  103953  103959      49
  103968  103971      47  103965  103968      49  103965  103971      49  103980
  103983      47  103977  103980      49  103977  103983      49  103992  103995
      47  103989  103992      49  103989  103995      49  104004  104007      47
  104001  104004      49  104001  104007      49  104016  104019      47  104013
  104016      49  104013  104019      49  104028  104031      47  104025  104028
      49  104025  104031      49  104040  104043      47  104037  104040      49
  104037  104043      49  104052  104055      47  104049  104052      49  104049
  104055      49  104064  104067      47  104061  104064      49  104061  104067
      49  104076  104079      47  104073  104076      49  104073  104079      49
  104088  104091      47  104085  104088      49  104085  104091      49  104100
  104103      47  104097  104100      49  104097  104103      49  104112  104115
      47  104109  104112      49  104109  104115      49  104124  104127      47
  104121  104124      49  104121  104127      49  104136  104139      47  104133
  104136      49  104133  104139      49  104148  104151      47  104145  104148
      49  104145  104151      49  104160  104163      47  104157  104160      49
  104157  104163      49  104172  104175      47  104169  104172      49  104169
  104175      49  104184  104187      47  104181  104184      49  104181  104187
      49  104196  104199      47  104193  104196      49  104193  104199      49
  104208  104211      47  104205  104208      49  104205  104211      49  104220
  104223      47  104217  104220      49  104217  104223      49  104232  104235
      47  104229  104232      49  104229  104235      49  104244  104247      47
  104241  104244      49  104241  104247      49  104256  104259      47  104253
  104256      49  104253  104259      49  104268  104271      47  104265  104268
      49  104265  104271      49  104280  104283      47  104277  104280      49
  104277  104283      49  104292  104295      47  104289  104292      49  104289
  104295      49  104304  104307      47  104301  104304      49  104301  104307
      49  104316  104319      47  104313  104316      49  104313  104319      49
  104328  104331      47  104325  104328      49  104325  104331      49  104340
  104343      47  104337  104340      49  104337  104343      49  104352  104355
      47  104349  104352      49  104349  104355      49  104364  104367      47
  104361  104364      49  104361  104367      49  104376  104379      47  104373
  104376      49  104373  104379      49  104388  104391      47  104385  104388
      49  104385  104391      49  104400  104403      47  104397  104400      49
  104397  104403      49  104412  104415      47  104409  104412      49  104409
  104415      49  104424  104427      47  104421  104424      49  104421  104427
      49  104436  104439      47  104433  104436      49  104433  104439      49
  104448  104451      47  104445  104448      49  104445  104451      49  104460
  104463      47  104457  104460      49  104457  104463      49  104472  104475
      47  104469  104472      49  104469  104475      49  104484  104487      47
  104481  104484      49  104481  104487      49  104496  104499      47  104493
  104496      49  104493  104499      49  104508  104511      47  104505  104508
      49  104505  104511      49  104520  104523      47  104517  104520      49
  104517  104523      49  104532  104535      47  104529  104532      49  104529
  104535      49  104544  104547      47  104541  104544      49  104541  104547
      49  104556  104559      47  104553  104556      49  104553  104559      49
  104568  104571      47  104565  104568      49  104565  104571      49  104580
  104583      47  104577  104580      49  104577  104583      49  104592  104595
      47  104589  104592      49  104589  104595      49  104604  104607      47
  104601  104604      49  104601  104607      49  104616  104619      47  104613
  104616      49  104613  104619      49  104628  104631      47  104625  104628
      49  104625  104631      49  104640  104643      47  104637  104640      49
  104637  104643      49  104652  104655      47  104649  104652      49  104649
  104655      49  104664  104667      47  104661  104664      49  104661  104667
      49  104676  104679      47  104673  104676      49  104673  104679      49
  104688  104691      47  104685  104688      49  104685  104691      49  104700
  104703      47  104697  104700      49  104697  104703      49  104712  104715
      47  104709  104712      49  104709  104715      49  104724  104727      47
  104721  104724      49  104721  104727      49  104736  104739      47  104733
  104736      49  104733  104739      49  104748  104751      47  104745  104748
      49  104745  104751      49  104760  104763      47  104757  104760      49
  104757  104763      49  104772  104775      47  104769  104772      49  104769
  104775      49  104784  104787      47  104781  104784      49  104781  104787
      49  104796  104799      47  104793  104796      49  104793  104799      49
  104808  104811      47  104805  104808      49  104805  104811      49  104820
  104823      47  104817  104820      49  104817  104823      49  104832  104835
      47  104829  104832      49  104829  104835      49  104844  104847      47
  104841  104844      49  104841  104847      49  104856  104859      47  104853
  104856      49  104853  104859      49  104868  104871      47  104865  104868
      49  104865  104871      49  104880  104883      47  104877  104880      49
  104877  104883      49  104892  104895      47  104889  104892      49  104889
  104895      49  104904  104907      47  104901  104904      49  104901  104907
      49  104916  104919      47  104913  104916      49  104913  104919      49
  104928  104931      47  104925  104928      49  104925  104931      49  104940
  104943      47  104937  104940      49  104937  104943      49  104952  104955
      47  104949  104952      49  104949  104955      49  104964  104967      47
  104961  104964      49  104961  104967      49  104976  104979      47  104973
  104976      49  104973  104979      49  104988  104991      47  104985  104988
      49  104985  104991      49  105000  105003      47  104997  105000      49
  104997  105003      49  105012  105015      47  105009  105012      49  105009
  105015      49  105024  105027      47  105021  105024      49  105021  105027
      49  105036  105039      47  105033  105036      49  105033  105039      49
  105048  105051      47  105045  105048      49  105045  105051      49  105060
  105063      47  105057  105060      49  105057  105063      49  105072  105075
      47  105069  105072      49  105069  105075      49  105084  105087      47
  105081  105084      49  105081  105087      49  105096  105099      47  105093
  105096      49  105093  105099      49  105108  105111      47  105105  105108
      49  105105  105111      49  105120  105123      47  105117  105120      49
  105117  105123      49  105132  105135      47  105129  105132      49  105129
  105135      49  105144  105147      47  105141  105144      49  105141  105147
      49  105156  105159      47  105153  105156      49  105153  105159      49
  105168  105171      47  105165  105168      49  105165  105171      49  105180
  105183      47  105177  105180      49  105177  105183      49  105192  105195
      47  105189  105192      49  105189  105195      49  105204  105207      47
  105201  105204      49  105201  105207      49  105216  105219      47  105213
  105216      49  105213  105219      49  105228  105231      47  105225  105228
      49  105225  105231      49  105240  105243      47  105237  105240      49
  105237  105243      49  105252  105255      47  105249  105252      49  105249
  105255      49  105264  105267      47  105261  105264      49  105261  105267
      49  105276  105279      47  105273  105276      49  105273  105279      49
  105288  105291      47  105285  105288      49  105285  105291      49  105300
  105303      47  105297  105300      49  105297  105303      49  105312  105315
      47  105309  105312      49  105309  105315      49  105324  105327      47
  105321  105324      49  105321  105327      49  105336  105339      47  105333
  105336      49  105333  105339      49  105348  105351      47  105345  105348
      49  105345  105351      49  105360  105363      47  105357  105360      49
  105357  105363      49  105372  105375      47  105369  105372      49  105369
  105375      49  105384  105387      47  105381  105384      49  105381  105387
      49  105396  105399      47  105393  105396      49  105393  105399      49
  105408  105411      47  105405  105408      49  105405  105411      49  105420
  105423      47  105417  105420      49  105417  105423      49  105432  105435
      47  105429  105432      49  105429  105435      49  105444  105447      47
  105441  105444      49  105441  105447      49  105456  105459      47  105453
  105456      49  105453  105459      49  105468  105471      47  105465  105468
      49  105465  105471      49  105480  105483      47  105477  105480      49
  105477  105483      49  105492  105495      47  105489  105492      49  105489
  105495      49  105504  105507      47  105501  105504      49  105501  105507
      49  105516  105519      47  105513  105516      49  105513  105519      49
  105528  105531      47  105525  105528      49  105525  105531      49  105540
  105543      47  105537  105540      49  105537  105543      49  105552  105555
      47  105549  105552      49  105549  105555      49  105564  105567      47
  105561  105564      49  105561  105567      49  105576  105579      47  105573
  105576      49  105573  105579      49  105588  105591      47  105585  105588
      49  105585  105591      49  105600  105603      47  105597  105600      49
  105597  105603      49  105612  105615      47  105609  105612      49  105609
  105615      49  105624  105627      47  105621  105624      49  105621  105627
      49  105636  105639      47  105633  105636      49  105633  105639      49
  105648  105651      47  105645  105648      49  105645  105651      49  105660
  105663      47  105657  105660      49  105657  105663      49  105672  105675
      47  105669  105672      49  105669  105675      49  105684  105687      47
  105681  105684      49  105681  105687      49  105696  105699      47  105693
  105696      49  105693  105699      49  105708  105711      47  105705  105708
      49  105705  105711      49  105720  105723      47  105717  105720      49
  105717  105723      49  105732  105735      47  105729  105732      49  105729
  105735      49  105744  105747      47  105741  105744      49  105741  105747
      49  105756  105759      47  105753  105756      49  105753  105759      49
  105768  105771      47  105765  105768      49  105765  105771      49  105780
  105783      47  105777  105780      49  105777  105783      49  105792  105795
      47  105789  105792      49  105789  105795      49  105804  105807      47
  105801  105804      49  105801  105807      49  105816  105819      47  105813
  105816      49  105813  105819      49  105828  105831      47  105825  105828
      49  105825  105831      49  105840  105843      47  105837  105840      49
  105837  105843      49  105852  105855      47  105849  105852      49  105849
  105855      49  105864  105867      47  105861  105864      49  105861  105867
      49  105876  105879      47  105873  105876      49  105873  105879      49
  105888  105891      47  105885  105888      49  105885  105891      49  105900
  105903      47  105897  105900      49  105897  105903      49  105912  105915
      47  105909  105912      49  105909  105915      49  105924  105927      47
  105921  105924      49  105921  105927      49  105936  105939      47  105933
  105936      49  105933  105939      49  105948  105951      47  105945  105948
      49  105945  105951      49  105960  105963      47  105957  105960      49
  105957  105963      49  105972  105975      47  105969  105972      49  105969
  105975      49  105984  105987      47  105981  105984      49  105981  105987
      49  105996  105999      47  105993  105996      49  105993  105999      49
  106008  106011      47  106005  106008      49  106005  106011      49  106020
  106023      47  106017  106020      49  106017  106023      49  106032  106035
      47  106029  106032      49  106029  106035      49  106044  106047      47
  106041  106044      49  106041  106047      49  106056  106059      47  106053
  106056      49  106053  106059      49  106068  106071      47  106065  106068
      49  106065  106071      49  106080  106083      47  106077  106080      49
  106077  106083      49  106092  106095      47  106089  106092      49  106089
  106095      49  106104  106107      47  106101  106104      49  106101  106107
      49  106116  106119      47  106113  106116      49  106113  106119      49
  106128  106131      47  106125  106128      49  106125  106131      49  106140
  106143      47  106137  106140      49  106137  106143      49  106152  106155
      47  106149  106152      49  106149  106155      49  106164  106167      47
  106161  106164      49  106161  106167      49  106176  106179      47  106173
  106176      49  106173  106179      49  106188  106191      47  106185  106188
      49  106185  106191      49  106200  106203      47  106197  106200      49
  106197  106203      49  106212  106215      47  106209  106212      49  106209
  106215      49  106224  106227      47  106221  106224      49  106221  106227
      49  106236  106239      47  106233  106236      49  106233  106239      49
  106248  106251      47  106245  106248      49  106245  106251      49  106260
  106263      47  106257  106260      49  106257  106263      49  106272  106275
      47  106269  106272      49  106269  106275      49  106284  106287      47
  106281  106284      49  106281  106287      49  106296  106299      47  106293
  106296      49  106293  106299      49  106308  106311      47  106305  106308
      49  106305  106311      49  106320  106323      47  106317  106320      49
  106317  106323      49  106332  106335      47  106329  106332      49  106329
  106335      49  106344  106347      47  106341  106344      49  106341  106347
      49  106356  106359      47  106353  106356      49  106353  106359      49
  106368  106371      47  106365  106368      49  106365  106371      49  106380
  106383      47  106377  106380      49  106377  106383      49  106392  106395
      47  106389  106392      49  106389  106395      49  106404  106407      47
  106401  106404      49  106401  106407      49  106416  106419      47  106413
  106416      49  106413  106419      49  106428  106431      47  106425  106428
      49  106425  106431      49  106440  106443      47  106437  106440      49
  106437  106443      49  106452  106455      47  106449  106452      49  106449
  106455      49  106464  106467      47  106461  106464      49  106461  106467
      49  106476  106479      47  106473  106476      49  106473  106479      49
  106488  106491      47  106485  106488      49  106485  106491      49  106500
  106503      47  106497  106500      49  106497  106503      49  106512  106515
      47  106509  106512      49  106509  106515      49  106524  106527      47
  106521  106524      49  106521  106527      49  106536  106539      47  106533
  106536      49  106533  106539      49  106548  106551      47  106545  106548
      49  106545  106551      49  106560  106563      47  106557  106560      49
  106557  106563      49  106572  106575      47  106569  106572      49  106569
  106575      49  106584  106587      47  106581  106584      49  106581  106587
      49  106596  106599      47  106593  106596      49  106593  106599      49
  106608  106611      47  106605  106608      49  106605  106611      49  106620
  106623      47  106617  106620      49  106617  106623      49  106632  106635
      47  106629  106632      49  106629  106635      49  106644  106647      47
  106641  106644      49  106641  106647      49  106656  106659      47  106653
  106656      49  106653  106659      49  106668  106671      47  106665  106668
      49  106665  106671      49  106680  106683      47  106677  106680      49
  106677  106683      49  106692  106695      47  106689  106692      49  106689
  106695      49  106704  106707      47  106701  106704      49  106701  106707
      49  106716  106719      47  106713  106716      49  106713  106719      49
  106728  106731      47  106725  106728      49  106725  106731      49  106740
  106743      47  106737  106740      49  106737  106743      49  106752  106755
      47  106749  106752      49  106749  106755      49  106764  106767      47
  106761  106764      49  106761  106767      49  106776  106779      47  106773
  106776      49  106773  106779      49  106788  106791      47  106785  106788
      49  106785  106791      49  106800  106803      47  106797  106800      49
  106797  106803      49  106812  106815      47  106809  106812      49  106809
  106815      49  106824  106827      47  106821  106824      49  106821  106827
      49  106836  106839      47  106833  106836      49  106833  106839      49
  106848  106851      47  106845  106848      49  106845  106851      49  106860
  106863      47  106857  106860      49  106857  106863      49  106872  106875
      47  106869  106872      49  106869  106875      49  106884  106887      47
  106881  106884      49  106881  106887      49  106896  106899      47  106893
  106896      49  106893  106899      49  106908  106911      47  106905  106908
      49  106905  106911      49  106920  106923      47  106917  106920      49
  106917  106923      49  106932  106935      47  106929  106932      49  106929
  106935      49  106944  106947      47  106941  106944      49  106941  106947
      49  106956  106959      47  106953  106956      49  106953  106959      49
  106968  106971      47  106965  106968      49  106965  106971      49  106980
  106983      47  106977  106980      49  106977  106983      49  106992  106995
      47  106989  106992      49  106989  106995      49  107004  107007      47
  107001  107004      49  107001  107007      49  107016  107019      47  107013
  107016      49  107013  107019      49  107028  107031      47  107025  107028
      49  107025  107031      49  107040  107043      47  107037  107040      49
  107037  107043      49  107052  107055      47  107049  107052      49  107049
  107055      49  107064  107067      47  107061  107064      49  107061  107067
      49  107076  107079      47  107073  107076      49  107073  107079      49
  107088  107091      47  107085  107088      49  107085  107091      49  107100
  107103      47  107097  107100      49  107097  107103      49  107112  107115
      47  107109  107112      49  107109  107115      49  107124  107127      47
  107121  107124      49  107121  107127      49  107136  107139      47  107133
  107136      49  107133  107139      49  107148  107151      47  107145  107148
      49  107145  107151      49  107160  107163      47  107157  107160      49
  107157  107163      49  107172  107175      47  107169  107172      49  107169
  107175      49  107184  107187      47  107181  107184      49  107181  107187
      49  107196  107199      47  107193  107196      49  107193  107199      49
  107208  107211      47  107205  107208      49  107205  107211      49  107220
  107223      47  107217  107220      49  107217  107223      49  107232  107235
      47  107229  107232      49  107229  107235      49  107244  107247      47
  107241  107244      49  107241  107247      49  107256  107259      47  107253
  107256      49  107253  107259      49  107268  107271      47  107265  107268
      49  107265  107271      49  107280  107283      47  107277  107280      49
  107277  107283      49  107292  107295      47  107289  107292      49  107289
  107295      49  107304  107307      47  107301  107304      49  107301  107307
      49  107316  107319      47  107313  107316      49  107313  107319      49
  107328  107331      47  107325  107328      49  107325  107331      49  107340
  107343      47  107337  107340      49  107337  107343      49  107352  107355
      47  107349  107352      49  107349  107355      49  107364  107367      47
  107361  107364      49  107361  107367      49  107376  107379      47  107373
  107376      49  107373  107379      49  107388  107391      47  107385  107388
      49  107385  107391      49  107400  107403      47  107397  107400      49
  107397  107403      49  107412  107415      47  107409  107412      49  107409
  107415      49  107424  107427      47  107421  107424      49  107421  107427
      49  107436  107439      47  107433  107436      49  107433  107439      49
  107448  107451      47  107445  107448      49  107445  107451      49  107460
  107463      47  107457  107460      49  107457  107463      49  107472  107475
      47  107469  107472      49  107469  107475      49  107484  107487      47
  107481  107484      49  107481  107487      49  107496  107499      47  107493
  107496      49  107493  107499      49  107508  107511      47  107505  107508
      49  107505  107511      49  107520  107523      47  107517  107520      49
  107517  107523      49  107532  107535      47  107529  107532      49  107529
  107535      49  107544  107547      47  107541  107544      49  107541  107547
      49  107556  107559      47  107553  107556      49  107553  107559      49
  107568  107571      47  107565  107568      49  107565  107571      49  107580
  107583      47  107577  107580      49  107577  107583      49  107592  107595
      47  107589  107592      49  107589  107595      49  107604  107607      47
  107601  107604      49  107601  107607      49  107616  107619      47  107613
  107616      49  107613  107619      49  107628  107631      47  107625  107628
      49  107625  107631      49  107640  107643      47  107637  107640      49
  107637  107643      49  107652  107655      47  107649  107652      49  107649
  107655      49  107664  107667      47  107661  107664      49  107661  107667
      49  107676  107679      47  107673  107676      49  107673  107679      49
  107688  107691      47  107685  107688      49  107685  107691      49  107700
  107703      47  107697  107700      49  107697  107703      49  107712  107715
      47  107709  107712      49  107709  107715      49  107724  107727      47
  107721  107724      49  107721  107727      49  107736  107739      47  107733
  107736      49  107733  107739      49  107748  107751      47  107745  107748
      49  107745  107751      49  107760  107763      47  107757  107760      49
  107757  107763      49  107772  107775      47  107769  107772      49  107769
  107775      49  107784  107787      47  107781  107784      49  107781  107787
      49  107796  107799      47  107793  107796      49  107793  107799      49
  107808  107811      47  107805  107808      49  107805  107811      49  107820
  107823      47  107817  107820      49  107817  107823      49  107832  107835
      47  107829  107832      49  107829  107835      49  107844  107847      47
  107841  107844      49  107841  107847      49  107856  107859      47  107853
  107856      49  107853  107859      49  107868  107871      47  107865  107868
      49  107865  107871      49  107880  107883      47  107877  107880      49
  107877  107883      49  107892  107895      47  107889  107892      49  107889
  107895      49  107904  107907      47  107901  107904      49  107901  107907
      49  107916  107919      47  107913  107916      49  107913  107919      49
  107928  107931      47  107925  107928      49  107925  107931      49  107940
  107943      47  107937  107940      49  107937  107943      49  107952  107955
      47  107949  107952      49  107949  107955      49  107964  107967      47
  107961  107964      49  107961  107967      49  107976  107979      47  107973
  107976      49  107973  107979      49  107988  107991      47  107985  107988
      49  107985  107991      49  108000  108003      47  107997  108000      49
  107997  108003      49  108012  108015      47  108009  108012      49  108009
  108015      49  108024  108027      47  108021  108024      49  108021  108027
      49  108036  108039      47  108033  108036      49  108033  108039      49
  108048  108051      47  108045  108048      49  108045  108051      49  108060
  108063      47  108057  108060      49  108057  108063      49  108072  108075
      47  108069  108072      49  108069  108075      49  108084  108087      47
  108081  108084      49  108081  108087      49  108096  108099      47  108093
  108096      49  108093  108099      49  108108  108111      47  108105  108108
      49  108105  108111      49  108120  108123      47  108117  108120      49
  108117  108123      49  108132  108135      47  108129  108132      49  108129
  108135      49  108144  108147      47  108141  108144      49  108141  108147
      49  108156  108159      47  108153  108156      49  108153  108159      49
  108168  108171      47  108165  108168      49  108165  108171      49  108180
  108183      47  108177  108180      49  108177  108183      49  108192  108195
      47  108189  108192      49  108189  108195      49  108204  108207      47
  108201  108204      49  108201  108207      49  108216  108219      47  108213
  108216      49  108213  108219      49  108228  108231      47  108225  108228
      49  108225  108231      49  108240  108243      47  108237  108240      49
  108237  108243      49  108252  108255      47  108249  108252      49  108249
  108255      49  108264  108267      47  108261  108264      49  108261  108267
      49  108276  108279      47  108273  108276      49  108273  108279      49
  108288  108291      47  108285  108288      49  108285  108291      49  108300
  108303      47  108297  108300      49  108297  108303      49  108312  108315
      47  108309  108312      49  108309  108315      49  108324  108327      47
  108321  108324      49  108321  108327      49  108336  108339      47  108333
  108336      49  108333  108339      49  108348  108351      47  108345  108348
      49  108345  108351      49  108360  108363      47  108357  108360      49
  108357  108363      49  108372  108375      47  108369  108372      49  108369
  108375      49  108384  108387      47  108381  108384      49  108381  108387
      49  108396  108399      47  108393  108396      49  108393  108399      49
  108408  108411      47  108405  108408      49  108405  108411      49  108420
  108423      47  108417  108420      49  108417  108423      49  108432  108435
      47  108429  108432      49  108429  108435      49  108444  108447      47
  108441  108444      49  108441  108447      49  108456  108459      47  108453
  108456      49  108453  108459      49  108468  108471      47  108465  108468
      49  108465  108471      49  108480  108483      47  108477  108480      49
  108477  108483      49  108492  108495      47  108489  108492      49  108489
  108495      49  108504  108507      47  108501  108504      49  108501  108507
      49  108516  108519      47  108513  108516      49  108513  108519      49
  108528  108531      47  108525  108528      49  108525  108531      49  108540
  108543      47  108537  108540      49  108537  108543      49  108552  108555
      47  108549  108552      49  108549  108555      49  108564  108567      47
  108561  108564      49  108561  108567      49  108576  108579      47  108573
  108576      49  108573  108579      49  108588  108591      47  108585  108588
      49  108585  108591      49  108600  108603      47  108597  108600      49
  108597  108603      49  108612  108615      47  108609  108612      49  108609
  108615      49  108624  108627      47  108621  108624      49  108621  108627
      49  108636  108639      47  108633  108636      49  108633  108639      49
  108648  108651      47  108645  108648      49  108645  108651      49  108660
  108663      47  108657  108660      49  108657  108663      49  108672  108675
      47  108669  108672      49  108669  108675      49  108684  108687      47
  108681  108684      49  108681  108687      49  108696  108699      47  108693
  108696      49  108693  108699      49  108708  108711      47  108705  108708
      49  108705  108711      49  108720  108723      47  108717  108720      49
  108717  108723      49  108732  108735      47  108729  108732      49  108729
  108735      49  108744  108747      47  108741  108744      49  108741  108747
      49  108756  108759      47  108753  108756      49  108753  108759      49
  108768  108771      47  108765  108768      49  108765  108771      49  108780
  108783      47  108777  108780      49  108777  108783      49  108792  108795
      47  108789  108792      49  108789  108795      49  108804  108807      47
  108801  108804      49  108801  108807      49  108816  108819      47  108813
  108816      49  108813  108819      49  108828  108831      47  108825  108828
      49  108825  108831      49  108840  108843      47  108837  108840      49
  108837  108843      49  108852  108855      47  108849  108852      49  108849
  108855      49  108864  108867      47  108861  108864      49  108861  108867
      49  108876  108879      47  108873  108876      49  108873  108879      49
  108888  108891      47  108885  108888      49  108885  108891      49  108900
  108903      47  108897  108900      49  108897  108903      49  108912  108915
      47  108909  108912      49  108909  108915      49  108924  108927      47
  108921  108924      49  108921  108927      49  108936  108939      47  108933
  108936      49  108933  108939      49  108948  108951      47  108945  108948
      49  108945  108951      49  108960  108963      47  108957  108960      49
  108957  108963      49  108972  108975      47  108969  108972      49  108969
  108975      49  108984  108987      47  108981  108984      49  108981  108987
      49  108996  108999      47  108993  108996      49  108993  108999      49
  109008  109011      47  109005  109008      49  109005  109011      49  109020
  109023      47  109017  109020      49  109017  109023      49  109032  109035
      47  109029  109032      49  109029  109035      49  109044  109047      47
  109041  109044      49  109041  109047      49  109056  109059      47  109053
  109056      49  109053  109059      49  109068  109071      47  109065  109068
      49  109065  109071      49  109080  109083      47  109077  109080      49
  109077  109083      49  109092  109095      47  109089  109092      49  109089
  109095      49  109104  109107      47  109101  109104      49  109101  109107
      49  109116  109119      47  109113  109116      49  109113  109119      49
  109128  109131      47  109125  109128      49  109125  109131      49  109140
  109143      47  109137  109140      49  109137  109143      49  109152  109155
      47  109149  109152      49  109149  109155      49  109164  109167      47
  109161  109164      49  109161  109167      49  109176  109179      47  109173
  109176      49  109173  109179      49  109188  109191      47  109185  109188
      49  109185  109191      49  109200  109203      47  109197  109200      49
  109197  109203      49  109212  109215      47  109209  109212      49  109209
  109215      49  109224  109227      47  109221  109224      49  109221  109227
      49  109236  109239      47  109233  109236      49  109233  109239      49
  109248  109251      47  109245  109248      49  109245  109251      49  109260
  109263      47  109257  109260      49  109257  109263      49  109272  109275
      47  109269  109272      49  109269  109275      49  109284  109287      47
  109281  109284      49  109281  109287      49  109296  109299      47  109293
  109296      49  109293  109299      49  109308  109311      47  109305  109308
      49  109305  109311      49  109320  109323      47  109317  109320      49
  109317  109323      49  109332  109335      47  109329  109332      49  109329
  109335      49  109344  109347      47  109341  109344      49  109341  109347
      49  109356  109359      47  109353  109356      49  109353  109359      49
  109368  109371      47  109365  109368      49  109365  109371      49  109380
  109383      47  109377  109380      49  109377  109383      49  109392  109395
      47  109389  109392      49  109389  109395      49  109404  109407      47
  109401  109404      49  109401  109407      49  109416  109419      47  109413
  109416      49  109413  109419      49  109428  109431      47  109425  109428
      49  109425  109431      49  109440  109443      47  109437  109440      49
  109437  109443      49  109452  109455      47  109449  109452      49  109449
  109455      49  109464  109467      47  109461  109464      49  109461  109467
      49  109476  109479      47  109473  109476      49  109473  109479      49
  109488  109491      47  109485  109488      49  109485  109491      49  109500
  109503      47  109497  109500      49  109497  109503      49  109512  109515
      47  109509  109512      49  109509  109515      49  109524  109527      47
  109521  109524      49  109521  109527      49  109536  109539      47  109533
  109536      49  109533  109539      49  109548  109551      47  109545  109548
      49  109545  109551      49  109560  109563      47  109557  109560      49
  109557  109563      49  109572  109575      47  109569  109572      49  109569
  109575      49  109584  109587      47  109581  109584      49  109581  109587
      49  109596  109599      47  109593  109596      49  109593  109599      49
  109608  109611      47  109605  109608      49  109605  109611      49  109620
  109623      47  109617  109620      49  109617  109623      49  109632  109635
      47  109629  109632      49  109629  109635      49  109644  109647      47
  109641  109644      49  109641  109647      49  109656  109659      47  109653
  109656      49  109653  109659      49  109668  109671      47  109665  109668
      49  109665  109671      49  109680  109683      47  109677  109680      49
  109677  109683      49  109692  109695      47  109689  109692      49  109689
  109695      49  109704  109707      47  109701  109704      49  109701  109707
      49  109716  109719      47  109713  109716      49  109713  109719      49
  109728  109731      47  109725  109728      49  109725  109731      49  109740
  109743      47  109737  109740      49  109737  109743      49  109752  109755
      47  109749  109752      49  109749  109755      49  109764  109767      47
  109761  109764      49  109761  109767      49  109776  109779      47  109773
  109776      49  109773  109779      49  109788  109791      47  109785  109788
      49  109785  109791      49  109800  109803      47  109797  109800      49
  109797  109803      49  109812  109815      47  109809  109812      49  109809
  109815      49  109824  109827      47  109821  109824      49  109821  109827
      49  109836  109839      47  109833  109836      49  109833  109839      49
  109848  109851      47  109845  109848      49  109845  109851      49  109860
  109863      47  109857  109860      49  109857  109863      49  109872  109875
      47  109869  109872      49  109869  109875      49  109884  109887      47
  109881  109884      49  109881  109887      49  109896  109899      47  109893
  109896      49  109893  109899      49  109908  109911      47  109905  109908
      49  109905  109911      49  109920  109923      47  109917  109920      49
  109917  109923      49  109932  109935      47  109929  109932      49  109929
  109935      49  109944  109947      47  109941  109944      49  109941  109947
      49  109956  109959      47  109953  109956      49  109953  109959      49
  109968  109971      47  109965  109968      49  109965  109971      49  109980
  109983      47  109977  109980      49  109977  109983      49  109992  109995
      47  109989  109992      49  109989  109995      49  110004  110007      47
  110001  110004      49  110001  110007      49  110016  110019      47  110013
  110016      49  110013  110019      49  110028  110031      47  110025  110028
      49  110025  110031      49  110040  110043      47  110037  110040      49
  110037  110043      49  110052  110055      47  110049  110052      49  110049
  110055      49  110064  110067      47  110061  110064      49  110061  110067
      49  110076  110079      47  110073  110076      49  110073  110079      49
  110088  110091      47  110085  110088      49  110085  110091      49  110100
  110103      47  110097  110100      49  110097  110103      49  110112  110115
      47  110109  110112      49  110109  110115      49  110124  110127      47
  110121  110124      49  110121  110127      49  110136  110139      47  110133
  110136      49  110133  110139      49  110148  110151      47  110145  110148
      49  110145  110151      49  110160  110163      47  110157  110160      49
  110157  110163      49  110172  110175      47  110169  110172      49  110169
  110175      49  110184  110187      47  110181  110184      49  110181  110187
      49  110196  110199      47  110193  110196      49  110193  110199      49
  110208  110211      47  110205  110208      49  110205  110211      49  110220
  110223      47  110217  110220      49  110217  110223      49  110232  110235
      47  110229  110232      49  110229  110235      49  110244  110247      47
  110241  110244      49  110241  110247      49  110256  110259      47  110253
  110256      49  110253  110259      49  110268  110271      47  110265  110268
      49  110265  110271      49  110280  110283      47  110277  110280      49
  110277  110283      49  110292  110295      47  110289  110292      49  110289
  110295      49  110304  110307      47  110301  110304      49  110301  110307
      49  110316  110319      47  110313  110316      49  110313  110319      49
  110328  110331      47  110325  110328      49  110325  110331      49  110340
  110343      47  110337  110340      49  110337  110343      49  110352  110355
      47  110349  110352      49  110349  110355      49  110364  110367      47
  110361  110364      49  110361  110367      49  110376  110379      47  110373
  110376      49  110373  110379      49  110388  110391      47  110385  110388
      49  110385  110391      49  110400  110403      47  110397  110400      49
  110397  110403      49  110412  110415      47  110409  110412      49  110409
  110415      49  110424  110427      47  110421  110424      49  110421  110427
      49  110436  110439      47  110433  110436      49  110433  110439      49
  110448  110451      47  110445  110448      49  110445  110451      49  110460
  110463      47  110457  110460      49  110457  110463      49  110472  110475
      47  110469  110472      49  110469  110475      49  110484  110487      47
  110481  110484      49  110481  110487      49  110496  110499      47  110493
  110496      49  110493  110499      49  110508  110511      47  110505  110508
      49  110505  110511      49  110520  110523      47  110517  110520      49
  110517  110523      49  110532  110535      47  110529  110532      49  110529
  110535      49  110544  110547      47  110541  110544      49  110541  110547
      49  110556  110559      47  110553  110556      49  110553  110559      49
  110568  110571      47  110565  110568      49  110565  110571      49  110580
  110583      47  110577  110580      49  110577  110583      49  110592  110595
      47  110589  110592      49  110589  110595      49  110604  110607      47
  110601  110604      49  110601  110607      49  110616  110619      47  110613
  110616      49  110613  110619      49  110628  110631      47  110625  110628
      49  110625  110631      49  110640  110643      47  110637  110640      49
  110637  110643      49  110652  110655      47  110649  110652      49  110649
  110655      49  110664  110667      47  110661  110664      49  110661  110667
      49  110676  110679      47  110673  110676      49  110673  110679      49
  110688  110691      47  110685  110688      49  110685  110691      49  110700
  110703      47  110697  110700      49  110697  110703      49  110712  110715
      47  110709  110712      49  110709  110715      49  110724  110727      47
  110721  110724      49  110721  110727      49  110736  110739      47  110733
  110736      49  110733  110739      49  110748  110751      47  110745  110748
      49  110745  110751      49  110760  110763      47  110757  110760      49
  110757  110763      49  110772  110775      47  110769  110772      49  110769
  110775      49  110784  110787      47  110781  110784      49  110781  110787
      49  110796  110799      47  110793  110796      49  110793  110799      49
  110808  110811      47  110805  110808      49  110805  110811      49  110820
  110823      47  110817  110820      49  110817  110823      49  110832  110835
      47  110829  110832      49  110829  110835      49  110844  110847      47
  110841  110844      49  110841  110847      49  110856  110859      47  110853
  110856      49  110853  110859      49  110868  110871      47  110865  110868
      49  110865  110871      49  110880  110883      47  110877  110880      49
  110877  110883      49  110892  110895      47  110889  110892      49  110889
  110895      49  110904  110907      47  110901  110904      49  110901  110907
      49  110916  110919      47  110913  110916      49  110913  110919      49
  110928  110931      47  110925  110928      49  110925  110931      49  110940
  110943      47  110937  110940      49  110937  110943      49  110952  110955
      47  110949  110952      49  110949  110955      49  110964  110967      47
  110961  110964      49  110961  110967      49  110976  110979      47  110973
  110976      49  110973  110979      49  110988  110991      47  110985  110988
      49  110985  110991      49  111000  111003      47  110997  111000      49
  110997  111003      49  111012  111015      47  111009  111012      49  111009
  111015      49  111024  111027      47  111021  111024      49  111021  111027
      49  111036  111039      47  111033  111036      49  111033  111039      49
  111048  111051      47  111045  111048      49  111045  111051      49  111060
  111063      47  111057  111060      49  111057  111063      49  111072  111075
      47  111069  111072      49  111069  111075      49  111084  111087      47
  111081  111084      49  111081  111087      49  111096  111099      47  111093
  111096      49  111093  111099      49  111108  111111      47  111105  111108
      49  111105  111111      49  111120  111123      47  111117  111120      49
  111117  111123      49  111132  111135      47  111129  111132      49  111129
  111135      49  111144  111147      47  111141  111144      49  111141  111147
      49  111156  111159      47  111153  111156      49  111153  111159      49
  111168  111171      47  111165  111168      49  111165  111171      49  111180
  111183      47  111177  111180      49  111177  111183      49  111192  111195
      47  111189  111192      49  111189  111195      49  111204  111207      47
  111201  111204      49  111201  111207      49  111216  111219      47  111213
  111216      49  111213  111219      49  111228  111231      47  111225  111228
      49  111225  111231      49  111240  111243      47  111237  111240      49
  111237  111243      49  111252  111255      47  111249  111252      49  111249
  111255      49  111264  111267      47  111261  111264      49  111261  111267
      49  111276  111279      47  111273  111276      49  111273  111279      49
  111288  111291      47  111285  111288      49  111285  111291      49  111300
  111303      47  111297  111300      49  111297  111303      49  111312  111315
      47  111309  111312      49  111309  111315      49  111324  111327      47
  111321  111324      49  111321  111327      49  111336  111339      47  111333
  111336      49  111333  111339      49  111348  111351      47  111345  111348
      49  111345  111351      49  111360  111363      47  111357  111360      49
  111357  111363      49  111372  111375      47  111369  111372      49  111369
  111375      49  111384  111387      47  111381  111384      49  111381  111387
      49  111396  111399      47  111393  111396      49  111393  111399      49
  111408  111411      47  111405  111408      49  111405  111411      49  111420
  111423      47  111417  111420      49  111417  111423      49  111432  111435
      47  111429  111432      49  111429  111435      49  111444  111447      47
  111441  111444      49  111441  111447      49  111456  111459      47  111453
  111456      49  111453  111459      49  111468  111471      47  111465  111468
      49  111465  111471      49  111480  111483      47  111477  111480      49
  111477  111483      49  111492  111495      47  111489  111492      49  111489
  111495      49  111504  111507      47  111501  111504      49  111501  111507
      49  111516  111519      47  111513  111516      49  111513  111519      49
  111528  111531      47  111525  111528      49  111525  111531      49  111540
  111543      47  111537  111540      49  111537  111543      49  111552  111555
      47  111549  111552      49  111549  111555      49  111564  111567      47
  111561  111564      49  111561  111567      49  111576  111579      47  111573
  111576      49  111573  111579      49  111588  111591      47  111585  111588
      49  111585  111591      49  111600  111603      47  111597  111600      49
  111597  111603      49  111612  111615      47  111609  111612      49  111609
  111615      49  111624  111627      47  111621  111624      49  111621  111627
      49  111636  111639      47  111633  111636      49  111633  111639      49
  111648  111651      47  111645  111648      49  111645  111651      49  111660
  111663      47  111657  111660      49  111657  111663      49  111672  111675
      47  111669  111672      49  111669  111675      49  111684  111687      47
  111681  111684      49  111681  111687      49  111696  111699      47  111693
  111696      49  111693  111699      49  111708  111711      47  111705  111708
      49  111705  111711      49  111720  111723      47  111717  111720      49
  111717  111723      49  111732  111735      47  111729  111732      49  111729
  111735      49  111744  111747      47  111741  111744      49  111741  111747
      49  111756  111759      47  111753  111756      49  111753  111759      49
  111768  111771      47  111765  111768      49  111765  111771      49  111780
  111783      47  111777  111780      49  111777  111783      49  111792  111795
      47  111789  111792      49  111789  111795      49  111804  111807      47
  111801  111804      49  111801  111807      49  111816  111819      47  111813
  111816      49  111813  111819      49  111828  111831      47  111825  111828
      49  111825  111831      49  111840  111843      47  111837  111840      49
  111837  111843      49  111852  111855      47  111849  111852      49  111849
  111855      49  111864  111867      47  111861  111864      49  111861  111867
      49  111876  111879      47  111873  111876      49  111873  111879      49
  111888  111891      47  111885  111888      49  111885  111891      49  111900
  111903      47  111897  111900      49  111897  111903      49  111912  111915
      47  111909  111912      49  111909  111915      49  111924  111927      47
  111921  111924      49  111921  111927      49  111936  111939      47  111933
  111936      49  111933  111939      49  111948  111951      47  111945  111948
      49  111945  111951      49  111960  111963      47  111957  111960      49
  111957  111963      49  111972  111975      47  111969  111972      49  111969
  111975      49  111984  111987      47  111981  111984      49  111981  111987
      49  111996  111999      47  111993  111996      49  111993  111999      49
  112008  112011      47  112005  112008      49  112005  112011      49  112020
  112023      47  112017  112020      49  112017  112023      49  112032  112035
      47  112029  112032      49  112029  112035      49  112044  112047      47
  112041  112044      49  112041  112047      49  112056  112059      47  112053
  112056      49  112053  112059      49  112068  112071      47  112065  112068
      49  112065  112071      49  112080  112083      47  112077  112080      49
  112077  112083      49  112092  112095      47  112089  112092      49  112089
  112095      49  112104  112107      47  112101  112104      49  112101  112107
      49  112116  112119      47  112113  112116      49  112113  112119      49
  112128  112131      47  112125  112128      49  112125  112131      49  112140
  112143      47  112137  112140      49  112137  112143      49  112152  112155
      47  112149  112152      49  112149  112155      49  112164  112167      47
  112161  112164      49  112161  112167      49  112176  112179      47  112173
  112176      49  112173  112179      49  112188  112191      47  112185  112188
      49  112185  112191      49  112200  112203      47  112197  112200      49
  112197  112203      49  112212  112215      47  112209  112212      49  112209
  112215      49  112224  112227      47  112221  112224      49  112221  112227
      49  112236  112239      47  112233  112236      49  112233  112239      49
  112248  112251      47  112245  112248      49  112245  112251      49  112260
  112263      47  112257  112260      49  112257  112263      49  112272  112275
      47  112269  112272      49  112269  112275      49  112284  112287      47
  112281  112284      49  112281  112287      49  112296  112299      47  112293
  112296      49  112293  112299      49  112308  112311      47  112305  112308
      49  112305  112311      49  112320  112323      47  112317  112320      49
  112317  112323      49  112332  112335      47  112329  112332      49  112329
  112335      49  112344  112347      47  112341  112344      49  112341  112347
      49  112356  112359      47  112353  112356      49  112353  112359      49
  112368  112371      47  112365  112368      49  112365  112371      49  112380
  112383      47  112377  112380      49  112377  112383      49  112392  112395
      47  112389  112392      49  112389  112395      49  112404  112407      47
  112401  112404      49  112401  112407      49  112416  112419      47  112413
  112416      49  112413  112419      49  112428  112431      47  112425  112428
      49  112425  112431      49  112440  112443      47  112437  112440      49
  112437  112443      49  112452  112455      47  112449  112452      49  112449
  112455      49  112464  112467      47  112461  112464      49  112461  112467
      49  112476  112479      47  112473  112476      49  112473  112479      49
  112488  112491      47  112485  112488      49  112485  112491      49  112500
  112503      47  112497  112500      49  112497  112503      49  112512  112515
      47  112509  112512      49  112509  112515      49  112524  112527      47
  112521  112524      49  112521  112527      49  112536  112539      47  112533
  112536      49  112533  112539      49  112548  112551      47  112545  112548
      49  112545  112551      49  112560  112563      47  112557  112560      49
  112557  112563      49  112572  112575      47  112569  112572      49  112569
  112575      49  112584  112587      47  112581  112584      49  112581  112587
      49  112596  112599      47  112593  112596      49  112593  112599      49
  112608  112611      47  112605  112608      49  112605  112611      49  112620
  112623      47  112617  112620      49  112617  112623      49  112632  112635
      47  112629  112632      49  112629  112635      49  112644  112647      47
  112641  112644      49  112641  112647      49  112656  112659      47  112653
  112656      49  112653  112659      49  112668  112671      47  112665  112668
      49  112665  112671      49  112680  112683      47  112677  112680      49
  112677  112683      49  112692  112695      47  112689  112692      49  112689
  112695      49  112704  112707      47  112701  112704      49  112701  112707
      49  112716  112719      47  112713  112716      49  112713  112719      49
  112728  112731      47  112725  112728      49  112725  112731      49  112740
  112743      47  112737  112740      49  112737  112743      49  112752  112755
      47  112749  112752      49  112749  112755      49  112764  112767      47
  112761  112764      49  112761  112767      49  112776  112779      47  112773
  112776      49  112773  112779      49  112788  112791      47  112785  112788
      49  112785  112791      49  112800  112803      47  112797  112800      49
  112797  112803      49  112812  112815      47  112809  112812      49  112809
  112815      49  112824  112827      47  112821  112824      49  112821  112827
      49  112836  112839      47  112833  112836      49  112833  112839      49
  112848  112851      47  112845  112848      49  112845  112851      49  112860
  112863      47  112857  112860      49  112857  112863      49  112872  112875
      47  112869  112872      49  112869  112875      49  112884  112887      47
  112881  112884      49  112881  112887      49  112896  112899      47  112893
  112896      49  112893  112899      49  112908  112911      47  112905  112908
      49  112905  112911      49  112920  112923      47  112917  112920      49
  112917  112923      49  112932  112935      47  112929  112932      49  112929
  112935      49  112944  112947      47  112941  112944      49  112941  112947
      49  112956  112959      47  112953  112956      49  112953  112959      49
  112968  112971      47  112965  112968      49  112965  112971      49  112980
  112983      47  112977  112980      49  112977  112983      49  112992  112995
      47  112989  112992      49  112989  112995      49  113004  113007      47
  113001  113004      49  113001  113007      49  113016  113019      47  113013
  113016      49  113013  113019      49  113028  113031      47  113025  113028
      49  113025  113031      49  113040  113043      47  113037  113040      49
  113037  113043      49  113052  113055      47  113049  113052      49  113049
  113055      49  113064  113067      47  113061  113064      49  113061  113067
      49  113076  113079      47  113073  113076      49  113073  113079      49
  113088  113091      47  113085  113088      49  113085  113091      49  113100
  113103      47  113097  113100      49  113097  113103      49  113112  113115
      47  113109  113112      49  113109  113115      49  113124  113127      47
  113121  113124      49  113121  113127      49  113136  113139      47  113133
  113136      49  113133  113139      49  113148  113151      47  113145  113148
      49  113145  113151      49  113160  113163      47  113157  113160      49
  113157  113163      49  113172  113175      47  113169  113172      49  113169
  113175      49  113184  113187      47  113181  113184      49  113181  113187
      49  113196  113199      47  113193  113196      49  113193  113199      49
  113208  113211      47  113205  113208      49  113205  113211      49  113220
  113223      47  113217  113220      49  113217  113223      49  113232  113235
      47  113229  113232      49  113229  113235      49  113244  113247      47
  113241  113244      49  113241  113247      49  113256  113259      47  113253
  113256      49  113253  113259      49  113268  113271      47  113265  113268
      49  113265  113271      49  113280  113283      47  113277  113280      49
  113277  113283      49  113292  113295      47  113289  113292      49  113289
  113295      49  113304  113307      47  113301  113304      49  113301  113307
      49  113316  113319      47  113313  113316      49  113313  113319      49
  113328  113331      47  113325  113328      49  113325  113331      49  113340
  113343      47  113337  113340      49  113337  113343      49  113352  113355
      47  113349  113352      49  113349  113355      49  113364  113367      47
  113361  113364      49  113361  113367      49  113376  113379      47  113373
  113376      49  113373  113379      49  113388  113391      47  113385  113388
      49  113385  113391      49  113400  113403      47  113397  113400      49
  113397  113403      49  113412  113415      47  113409  113412      49  113409
  113415      49  113424  113427      47  113421  113424      49  113421  113427
      49  113436  113439      47  113433  113436      49  113433  113439      49
  113448  113451      47  113445  113448      49  113445  113451      49  113460
  113463      47  113457  113460      49  113457  113463      49  113472  113475
      47  113469  113472      49  113469  113475      49  113484  113487      47
  113481  113484      49  113481  113487      49  113496  113499      47  113493
  113496      49  113493  113499      49  113508  113511      47  113505  113508
      49  113505  113511      49  113520  113523      47  113517  113520      49
  113517  113523      49  113532  113535      47  113529  113532      49  113529
  113535      49  113544  113547      47  113541  113544      49  113541  113547
      49  113556  113559      47  113553  113556      49  113553  113559      49
  113568  113571      47  113565  113568      49  113565  113571      49  113580
  113583      47  113577  113580      49  113577  113583      49  113592  113595
      47  113589  113592      49  113589  113595      49  113604  113607      47
  113601  113604      49  113601  113607      49  113616  113619      47  113613
  113616      49  113613  113619      49  113628  113631      47  113625  113628
      49  113625  113631      49  113640  113643      47  113637  113640      49
  113637  113643      49  113652  113655      47  113649  113652      49  113649
  113655      49  113664  113667      47  113661  113664      49  113661  113667
      49  113676  113679      47  113673  113676      49  113673  113679      49
  113688  113691      47  113685  113688      49  113685  113691      49  113700
  113703      47  113697  113700      49  113697  113703      49  113712  113715
      47  113709  113712      49  113709  113715      49  113724  113727      47
  113721  113724      49  113721  113727      49  113736  113739      47  113733
  113736      49  113733  113739      49  113748  113751      47  113745  113748
      49  113745  113751      49  113760  113763      47  113757  113760      49
  113757  113763      49  113772  113775      47  113769  113772      49  113769
  113775      49  113784  113787      47  113781  113784      49  113781  113787
      49  113796  113799      47  113793  113796      49  113793  113799      49
  113808  113811      47  113805  113808      49  113805  113811      49  113820
  113823      47  113817  113820      49  113817  113823      49  113832  113835
      47  113829  113832      49  113829  113835      49  113844  113847      47
  113841  113844      49  113841  113847      49  113856  113859      47  113853
  113856      49  113853  113859      49  113868  113871      47  113865  113868
      49  113865  113871      49  113880  113883      47  113877  113880      49
  113877  113883      49  113892  113895      47  113889  113892      49  113889
  113895      49  113904  113907      47  113901  113904      49  113901  113907
      49  113916  113919      47  113913  113916      49  113913  113919      49
  113928  113931      47  113925  113928      49  113925  113931      49  113940
  113943      47  113937  113940      49  113937  113943      49  113952  113955
      47  113949  113952      49  113949  113955      49  113964  113967      47
  113961  113964      49  113961  113967      49  113976  113979      47  113973
  113976      49  113973  113979      49  113988  113991      47  113985  113988
      49  113985  113991      49  114000  114003      47  113997  114000      49
  113997  114003      49  114012  114015      47  114009  114012      49  114009
  114015      49  114024  114027      47  114021  114024      49  114021  114027
      49  114036  114039      47  114033  114036      49  114033  114039      49
  114048  114051      47  114045  114048      49  114045  114051      49  114060
  114063      47  114057  114060      49  114057  114063      49  114072  114075
      47  114069  114072      49  114069  114075      49  114084  114087      47
  114081  114084      49  114081  114087      49  114096  114099      47  114093
  114096      49  114093  114099      49  114108  114111      47  114105  114108
      49  114105  114111      49  114120  114123      47  114117  114120      49
  114117  114123      49  114132  114135      47  114129  114132      49  114129
  114135      49  114144  114147      47  114141  114144      49  114141  114147
      49  114156  114159      47  114153  114156      49  114153  114159      49
  114168  114171      47  114165  114168      49  114165  114171      49  114180
  114183      47  114177  114180      49  114177  114183      49  114192  114195
      47  114189  114192      49  114189  114195      49  114204  114207      47
  114201  114204      49  114201  114207      49  114216  114219      47  114213
  114216      49  114213  114219      49  114228  114231      47  114225  114228
      49  114225  114231      49  114240  114243      47  114237  114240      49
  114237  114243      49  114252  114255      47  114249  114252      49  114249
  114255      49  114264  114267      47  114261  114264      49  114261  114267
      49  114276  114279      47  114273  114276      49  114273  114279      49
  114288  114291      47  114285  114288      49  114285  114291      49  114300
  114303      47  114297  114300      49  114297  114303      49  114312  114315
      47  114309  114312      49  114309  114315      49  114324  114327      47
  114321  114324      49  114321  114327      49  114336  114339      47  114333
  114336      49  114333  114339      49  114348  114351      47  114345  114348
      49  114345  114351      49  114360  114363      47  114357  114360      49
  114357  114363      49  114372  114375      47  114369  114372      49  114369
  114375      49  114384  114387      47  114381  114384      49  114381  114387
      49  114396  114399      47  114393  114396      49  114393  114399      49
  114408  114411      47  114405  114408      49  114405  114411      49  114420
  114423      47  114417  114420      49  114417  114423      49  114432  114435
      47  114429  114432      49  114429  114435      49  114444  114447      47
  114441  114444      49  114441  114447      49  114456  114459      47  114453
  114456      49  114453  114459      49  114468  114471      47  114465  114468
      49  114465  114471      49  114480  114483      47  114477  114480      49
  114477  114483      49  114492  114495      47  114489  114492      49  114489
  114495      49  114504  114507      47  114501  114504      49  114501  114507
      49  114516  114519      47  114513  114516      49  114513  114519      49
  114528  114531      47  114525  114528      49  114525  114531      49  114540
  114543      47  114537  114540      49  114537  114543      49  114552  114555
      47  114549  114552      49  114549  114555      49  114564  114567      47
  114561  114564      49  114561  114567      49  114576  114579      47  114573
  114576      49  114573  114579      49  114588  114591      47  114585  114588
      49  114585  114591      49  114600  114603      47  114597  114600      49
  114597  114603      49  114612  114615      47  114609  114612      49  114609
  114615      49  114624  114627      47  114621  114624      49  114621  114627
      49  114636  114639      47  114633  114636      49  114633  114639      49
  114648  114651      47  114645  114648      49  114645  114651      49  114660
  114663      47  114657  114660      49  114657  114663      49  114672  114675
      47  114669  114672      49  114669  114675      49  114684  114687      47
  114681  114684      49  114681  114687      49  114696  114699      47  114693
  114696      49  114693  114699      49  114708  114711      47  114705  114708
      49  114705  114711      49  114720  114723      47  114717  114720      49
  114717  114723      49  114732  114735      47  114729  114732      49  114729
  114735      49  114744  114747      47  114741  114744      49  114741  114747
      49  114756  114759      47  114753  114756      49  114753  114759      49
  114768  114771      47  114765  114768      49  114765  114771      49  114780
  114783      47  114777  114780      49  114777  114783      49  114792  114795
      47  114789  114792      49  114789  114795      49  114804  114807      47
  114801  114804      49  114801  114807      49  114816  114819      47  114813
  114816      49  114813  114819      49  114828  114831      47  114825  114828
      49  114825  114831      49  114840  114843      47  114837  114840      49
  114837  114843      49  114852  114855      47  114849  114852      49  114849
  114855      49  114864  114867      47  114861  114864      49  114861  114867
      49  114876  114879      47  114873  114876      49  114873  114879      49
  114888  114891      47  114885  114888      49  114885  114891      49  114900
  114903      47  114897  114900      49  114897  114903      49  114912  114915
      47  114909  114912      49  114909  114915      49  114924  114927      47
  114921  114924      49  114921  114927      49  114936  114939      47  114933
  114936      49  114933  114939      49  114948  114951      47  114945  114948
      49  114945  114951      49  114960  114963      47  114957  114960      49
  114957  114963      49  114972  114975      47  114969  114972      49  114969
  114975      49  114984  114987      47  114981  114984      49  114981  114987
      49  114996  114999      47  114993  114996      49  114993  114999      49
  115008  115011      47  115005  115008      49  115005  115011      49  115020
  115023      47  115017  115020      49  115017  115023      49  115032  115035
      47  115029  115032      49  115029  115035      49  115044  115047      47
  115041  115044      49  115041  115047      49  115056  115059      47  115053
  115056      49  115053  115059      49  115068  115071      47  115065  115068
      49  115065  115071      49  115080  115083      47  115077  115080      49
  115077  115083      49  115092  115095      47  115089  115092      49  115089
  115095      49  115104  115107      47  115101  115104      49  115101  115107
      49  115116  115119      47  115113  115116      49  115113  115119      49
  115128  115131      47  115125  115128      49  115125  115131      49  115140
  115143      47  115137  115140      49  115137  115143      49  115152  115155
      47  115149  115152      49  115149  115155      49  115164  115167      47
  115161  115164      49  115161  115167      49  115176  115179      47  115173
  115176      49  115173  115179      49  115188  115191      47  115185  115188
      49  115185  115191      49  115200  115203      47  115197  115200      49
  115197  115203      49  115212  115215      47  115209  115212      49  115209
  115215      49  115224  115227      47  115221  115224      49  115221  115227
      49  115236  115239      47  115233  115236      49  115233  115239      49
  115248  115251      47  115245  115248      49  115245  115251      49  115260
  115263      47  115257  115260      49  115257  115263      49  115272  115275
      47  115269  115272      49  115269  115275      49  115284  115287      47
  115281  115284      49  115281  115287      49  115296  115299      47  115293
  115296      49  115293  115299      49  115308  115311      47  115305  115308
      49  115305  115311      49  115320  115323      47  115317  115320      49
  115317  115323      49  115332  115335      47  115329  115332      49  115329
  115335      49  115344  115347      47  115341  115344      49  115341  115347
      49  115356  115359      47  115353  115356      49  115353  115359      49
  115368  115371      47  115365  115368      49  115365  115371      49  115380
  115383      47  115377  115380      49  115377  115383      49  115392  115395
      47  115389  115392      49  115389  115395      49  115404  115407      47
  115401  115404      49  115401  115407      49  115416  115419      47  115413
  115416      49  115413  115419      49  115428  115431      47  115425  115428
      49  115425  115431      49  115440  115443      47  115437  115440      49
  115437  115443      49  115452  115455      47  115449  115452      49  115449
  115455      49  115464  115467      47  115461  115464      49  115461  115467
      49  115476  115479      47  115473  115476      49  115473  115479      49
  115488  115491      47  115485  115488      49  115485  115491      49  115500
  115503      47  115497  115500      49  115497  115503      49  115512  115515
      47  115509  115512      49  115509  115515      49  115524  115527      47
  115521  115524      49  115521  115527      49  115536  115539      47  115533
  115536      49  115533  115539      49  115548  115551      47  115545  115548
      49  115545  115551      49  115560  115563      47  115557  115560      49
  115557  115563      49  115572  115575      47  115569  115572      49  115569
  115575      49  115584  115587      47  115581  115584      49  115581  115587
      49  115596  115599      47  115593  115596      49  115593  115599      49
  115608  115611      47  115605  115608      49  115605  115611      49  115620
  115623      47  115617  115620      49  115617  115623      49  115632  115635
      47  115629  115632      49  115629  115635      49  115644  115647      47
  115641  115644      49  115641  115647      49  115656  115659      47  115653
  115656      49  115653  115659      49  115668  115671      47  115665  115668
      49  115665  115671      49  115680  115683      47  115677  115680      49
  115677  115683      49  115692  115695      47  115689  115692      49  115689
  115695      49  115704  115707      47  115701  115704      49  115701  115707
      49  115716  115719      47  115713  115716      49  115713  115719      49
  115728  115731      47  115725  115728      49  115725  115731      49  115740
  115743      47  115737  115740      49  115737  115743      49  115752  115755
      47  115749  115752      49  115749  115755      49  115764  115767      47
  115761  115764      49  115761  115767      49  115776  115779      47  115773
  115776      49  115773  115779      49  115788  115791      47  115785  115788
      49  115785  115791      49  115800  115803      47  115797  115800      49
  115797  115803      49  115812  115815      47  115809  115812      49  115809
  115815      49  115824  115827      47  115821  115824      49  115821  115827
      49  115836  115839      47  115833  115836      49  115833  115839      49
  115848  115851      47  115845  115848      49  115845  115851      49  115860
  115863      47  115857  115860      49  115857  115863      49  115872  115875
      47  115869  115872      49  115869  115875      49  115884  115887      47
  115881  115884      49  115881  115887      49  115896  115899      47  115893
  115896      49  115893  115899      49  115908  115911      47  115905  115908
      49  115905  115911      49  115920  115923      47  115917  115920      49
  115917  115923      49  115932  115935      47  115929  115932      49  115929
  115935      49  115944  115947      47  115941  115944      49  115941  115947
      49  115956  115959      47  115953  115956      49  115953  115959      49
  115968  115971      47  115965  115968      49  115965  115971      49  115980
  115983      47  115977  115980      49  115977  115983      49  115992  115995
      47  115989  115992      49  115989  115995      49  116004  116007      47
  116001  116004      49  116001  116007      49  116016  116019      47  116013
  116016      49  116013  116019      49  116028  116031      47  116025  116028
      49  116025  116031      49  116040  116043      47  116037  116040      49
  116037  116043      49  116052  116055      47  116049  116052      49  116049
  116055      49  116064  116067      47  116061  116064      49  116061  116067
      49  116076  116079      47  116073  116076      49  116073  116079      49
  116088  116091      47  116085  116088      49  116085  116091      49  116100
  116103      47  116097  116100      49  116097  116103      49  116112  116115
      47  116109  116112      49  116109  116115      49  116124  116127      47
  116121  116124      49  116121  116127      49  116136  116139      47  116133
  116136      49  116133  116139      49  116148  116151      47  116145  116148
      49  116145  116151      49  116160  116163      47  116157  116160      49
  116157  116163      49  116172  116175      47  116169  116172      49  116169
  116175      49  116184  116187      47  116181  116184      49  116181  116187
      49  116196  116199      47  116193  116196      49  116193  116199      49
  116208  116211      47  116205  116208      49  116205  116211      49  116220
  116223      47  116217  116220      49  116217  116223      49  116232  116235
      47  116229  116232      49  116229  116235      49  116244  116247      47
  116241  116244      49  116241  116247      49  116256  116259      47  116253
  116256      49  116253  116259      49  116268  116271      47  116265  116268
      49  116265  116271      49  116280  116283      47  116277  116280      49
  116277  116283      49  116292  116295      47  116289  116292      49  116289
  116295      49  116304  116307      47  116301  116304      49  116301  116307
      49  116316  116319      47  116313  116316      49  116313  116319      49
  116328  116331      47  116325  116328      49  116325  116331      49  116340
  116343      47  116337  116340      49  116337  116343      49  116352  116355
      47  116349  116352      49  116349  116355      49  116364  116367      47
  116361  116364      49  116361  116367      49  116376  116379      47  116373
  116376      49  116373  116379      49  116388  116391      47  116385  116388
      49  116385  116391      49  116400  116403      47  116397  116400      49
  116397  116403      49  116412  116415      47  116409  116412      49  116409
  116415      49  116424  116427      47  116421  116424      49  116421  116427
      49  116436  116439      47  116433  116436      49  116433  116439      49
  116448  116451      47  116445  116448      49  116445  116451      49  116460
  116463      47  116457  116460      49  116457  116463      49  116472  116475
      47  116469  116472      49  116469  116475      49  116484  116487      47
  116481  116484      49  116481  116487      49  116496  116499      47  116493
  116496      49  116493  116499      49  116508  116511      47  116505  116508
      49  116505  116511      49  116520  116523      47  116517  116520      49
  116517  116523      49  116532  116535      47  116529  116532      49  116529
  116535      49  116544  116547      47  116541  116544      49  116541  116547
      49  116556  116559      47  116553  116556      49  116553  116559      49
  116568  116571      47  116565  116568      49  116565  116571      49  116580
  116583      47  116577  116580      49  116577  116583      49  116592  116595
      47  116589  116592      49  116589  116595      49  116604  116607      47
  116601  116604      49  116601  116607      49  116616  116619      47  116613
  116616      49  116613  116619      49  116628  116631      47  116625  116628
      49  116625  116631      49  116640  116643      47  116637  116640      49
  116637  116643      49  116652  116655      47  116649  116652      49  116649
  116655      49  116664  116667      47  116661  116664      49  116661  116667
      49  116676  116679      47  116673  116676      49  116673  116679      49
  116688  116691      47  116685  116688      49  116685  116691      49  116700
  116703      47  116697  116700      49  116697  116703      49  116712  116715
      47  116709  116712      49  116709  116715      49  116724  116727      47
  116721  116724      49  116721  116727      49  116736  116739      47  116733
  116736      49  116733  116739      49  116748  116751      47  116745  116748
      49  116745  116751      49  116760  116763      47  116757  116760      49
  116757  116763      49  116772  116775      47  116769  116772      49  116769
  116775      49  116784  116787      47  116781  116784      49  116781  116787
      49  116796  116799      47  116793  116796      49  116793  116799      49
  116808  116811      47  116805  116808      49  116805  116811      49  116820
  116823      47  116817  116820      49  116817  116823      49  116832  116835
      47  116829  116832      49  116829  116835      49  116844  116847      47
  116841  116844      49  116841  116847      49  116856  116859      47  116853
  116856      49  116853  116859      49  116868  116871      47  116865  116868
      49  116865  116871      49  116880  116883      47  116877  116880      49
  116877  116883      49  116892  116895      47  116889  116892      49  116889
  116895      49  116904  116907      47  116901  116904      49  116901  116907
      49  116916  116919      47  116913  116916      49  116913  116919      49
  116928  116931      47  116925  116928      49  116925  116931      49  116940
  116943      47  116937  116940      49  116937  116943      49  116952  116955
      47  116949  116952      49  116949  116955      49  116964  116967      47
  116961  116964      49  116961  116967      49  116976  116979      47  116973
  116976      49  116973  116979      49  116988  116991      47  116985  116988
      49  116985  116991      49  117000  117003      47  116997  117000      49
  116997  117003      49  117012  117015      47  117009  117012      49  117009
  117015      49  117024  117027      47  117021  117024      49  117021  117027
      49  117036  117039      47  117033  117036      49  117033  117039      49
  117048  117051      47  117045  117048      49  117045  117051      49  117060
  117063      47  117057  117060      49  117057  117063      49  117072  117075
      47  117069  117072      49  117069  117075      49  117084  117087      47
  117081  117084      49  117081  117087      49  117096  117099      47  117093
  117096      49  117093  117099      49  117108  117111      47  117105  117108
      49  117105  117111      49  117120  117123      47  117117  117120      49
  117117  117123      49  117132  117135      47  117129  117132      49  117129
  117135      49  117144  117147      47  117141  117144      49  117141  117147
      49  117156  117159      47  117153  117156      49  117153  117159      49
  117168  117171      47  117165  117168      49  117165  117171      49  117180
  117183      47  117177  117180      49  117177  117183      49  117192  117195
      47  117189  117192      49  117189  117195      49  117204  117207      47
  117201  117204      49  117201  117207      49  117216  117219      47  117213
  117216      49  117213  117219      49  117228  117231      47  117225  117228
      49  117225  117231      49  117240  117243      47  117237  117240      49
  117237  117243      49  117252  117255      47  117249  117252      49  117249
  117255      49  117264  117267      47  117261  117264      49  117261  117267
      49  117276  117279      47  117273  117276      49  117273  117279      49
  117288  117291      47  117285  117288      49  117285  117291      49  117300
  117303      47  117297  117300      49  117297  117303      49  117312  117315
      47  117309  117312      49  117309  117315      49  117324  117327      47
  117321  117324      49  117321  117327      49  117336  117339      47  117333
  117336      49  117333  117339      49  117348  117351      47  117345  117348
      49  117345  117351      49  117360  117363      47  117357  117360      49
  117357  117363      49  117372  117375      47  117369  117372      49  117369
  117375      49  117384  117387      47  117381  117384      49  117381  117387
      49  117396  117399      47  117393  117396      49  117393  117399      49
  117408  117411      47  117405  117408      49  117405  117411      49  117420
  117423      47  117417  117420      49  117417  117423      49  117432  117435
      47  117429  117432      49  117429  117435      49  117444  117447      47
  117441  117444      49  117441  117447      49  117456  117459      47  117453
  117456      49  117453  117459      49  117468  117471      47  117465  117468
      49  117465  117471      49  117480  117483      47  117477  117480      49
  117477  117483      49  117492  117495      47  117489  117492      49  117489
  117495      49  117504  117507      47  117501  117504      49  117501  117507
      49  117516  117519      47  117513  117516      49  117513  117519      49
  117528  117531      47  117525  117528      49  117525  117531      49  117540
  117543      47  117537  117540      49  117537  117543      49  117552  117555
      47  117549  117552      49  117549  117555      49  117564  117567      47
  117561  117564      49  117561  117567      49  117576  117579      47  117573
  117576      49  117573  117579      49  117588  117591      47  117585  117588
      49  117585  117591      49  117600  117603      47  117597  117600      49
  117597  117603      49  117612  117615      47  117609  117612      49  117609
  117615      49  117624  117627      47  117621  117624      49  117621  117627
      49  117636  117639      47  117633  117636      49  117633  117639      49
  117648  117651      47  117645  117648      49  117645  117651      49  117660
  117663      47  117657  117660      49  117657  117663      49  117672  117675
      47  117669  117672      49  117669  117675      49  117684  117687      47
  117681  117684      49  117681  117687      49  117696  117699      47  117693
  117696      49  117693  117699      49  117708  117711      47  117705  117708
      49  117705  117711      49  117720  117723      47  117717  117720      49
  117717  117723      49  117732  117735      47  117729  117732      49  117729
  117735      49  117744  117747      47  117741  117744      49  117741  117747
      49  117756  117759      47  117753  117756      49  117753  117759      49
  117768  117771      47  117765  117768      49  117765  117771      49  117780
  117783      47  117777  117780      49  117777  117783      49  117792  117795
      47  117789  117792      49  117789  117795      49  117804  117807      47
  117801  117804      49  117801  117807      49  117816  117819      47  117813
  117816      49  117813  117819      49  117828  117831      47  117825  117828
      49  117825  117831      49  117840  117843      47  117837  117840      49
  117837  117843      49  117852  117855      47  117849  117852      49  117849
  117855      49  117864  117867      47  117861  117864      49  117861  117867
      49  117876  117879      47  117873  117876      49  117873  117879      49
  117888  117891      47  117885  117888      49  117885  117891      49  117900
  117903      47  117897  117900      49  117897  117903      49  117912  117915
      47  117909  117912      49  117909  117915      49  117924  117927      47
  117921  117924      49  117921  117927      49  117936  117939      47  117933
  117936      49  117933  117939      49  117948  117951      47  117945  117948
      49  117945  117951      49  117960  117963      47  117957  117960      49
  117957  117963      49  117972  117975      47  117969  117972      49  117969
  117975      49  117984  117987      47  117981  117984      49  117981  117987
      49  117996  117999      47  117993  117996      49  117993  117999      49
  118008  118011      47  118005  118008      49  118005  118011      49  118020
  118023      47  118017  118020      49  118017  118023      49  118032  118035
      47  118029  118032      49  118029  118035      49  118044  118047      47
  118041  118044      49  118041  118047      49  118056  118059      47  118053
  118056      49  118053  118059      49  118068  118071      47  118065  118068
      49  118065  118071      49  118080  118083      47  118077  118080      49
  118077  118083      49  118092  118095      47  118089  118092      49  118089
  118095      49  118104  118107      47  118101  118104      49  118101  118107
      49  118116  118119      47  118113  118116      49  118113  118119      49
  118128  118131      47  118125  118128      49  118125  118131      49  118140
  118143      47  118137  118140      49  118137  118143      49  118152  118155
      47  118149  118152      49  118149  118155      49  118164  118167      47
  118161  118164      49  118161  118167      49  118176  118179      47  118173
  118176      49  118173  118179      49  118188  118191      47  118185  118188
      49  118185  118191      49  118200  118203      47  118197  118200      49
  118197  118203      49  118212  118215      47  118209  118212      49  118209
  118215      49  118224  118227      47  118221  118224      49  118221  118227
      49  118236  118239      47  118233  118236      49  118233  118239      49
  118248  118251      47  118245  118248      49  118245  118251      49  118260
  118263      47  118257  118260      49  118257  118263      49  118272  118275
      47  118269  118272      49  118269  118275      49  118284  118287      47
  118281  118284      49  118281  118287      49  118296  118299      47  118293
  118296      49  118293  118299      49  118308  118311      47  118305  118308
      49  118305  118311      49  118320  118323      47  118317  118320      49
  118317  118323      49  118332  118335      47  118329  118332      49  118329
  118335      49  118344  118347      47  118341  118344      49  118341  118347
      49  118356  118359      47  118353  118356      49  118353  118359      49
  118368  118371      47  118365  118368      49  118365  118371      49  118380
  118383      47  118377  118380      49  118377  118383      49  118392  118395
      47  118389  118392      49  118389  118395      49  118404  118407      47
  118401  118404      49  118401  118407      49  118416  118419      47  118413
  118416      49  118413  118419      49  118428  118431      47  118425  118428
      49  118425  118431      49  118440  118443      47  118437  118440      49
  118437  118443      49  118452  118455      47  118449  118452      49  118449
  118455      49  118464  118467      47  118461  118464      49  118461  118467
      49  118476  118479      47  118473  118476      49  118473  118479      49
  118488  118491      47  118485  118488      49  118485  118491      49  118500
  118503      47  118497  118500      49  118497  118503      49  118512  118515
      47  118509  118512      49  118509  118515      49  118524  118527      47
  118521  118524      49  118521  118527      49  118536  118539      47  118533
  118536      49  118533  118539      49  118548  118551      47  118545  118548
      49  118545  118551      49  118560  118563      47  118557  118560      49
  118557  118563      49  118572  118575      47  118569  118572      49  118569
  118575      49  118584  118587      47  118581  118584      49  118581  118587
      49  118596  118599      47  118593  118596      49  118593  118599      49
  118608  118611      47  118605  118608      49  118605  118611      49  118620
  118623      47  118617  118620      49  118617  118623      49  118632  118635
      47  118629  118632      49  118629  118635      49  118644  118647      47
  118641  118644      49  118641  118647      49  118656  118659      47  118653
  118656      49  118653  118659      49  118668  118671      47  118665  118668
      49  118665  118671      49  118680  118683      47  118677  118680      49
  118677  118683      49  118692  118695      47  118689  118692      49  118689
  118695      49  118704  118707      47  118701  118704      49  118701  118707
      49  118716  118719      47  118713  118716      49  118713  118719      49
  118728  118731      47  118725  118728      49  118725  118731      49  118740
  118743      47  118737  118740      49  118737  118743      49  118752  118755
      47  118749  118752      49  118749  118755      49  118764  118767      47
  118761  118764      49  118761  118767      49  118776  118779      47  118773
  118776      49  118773  118779      49  118788  118791      47  118785  118788
      49  118785  118791      49  118800  118803      47  118797  118800      49
  118797  118803      49  118812  118815      47  118809  118812      49  118809
  118815      49  118824  118827      47  118821  118824      49  118821  118827
      49  118836  118839      47  118833  118836      49  118833  118839      49
  118848  118851      47  118845  118848      49  118845  118851      49  118860
  118863      47  118857  118860      49  118857  118863      49  118872  118875
      47  118869  118872      49  118869  118875      49  118884  118887      47
  118881  118884      49  118881  118887      49  118896  118899      47  118893
  118896      49  118893  118899      49  118908  118911      47  118905  118908
      49  118905  118911      49  118920  118923      47  118917  118920      49
  118917  118923      49  118932  118935      47  118929  118932      49  118929
  118935      49  118944  118947      47  118941  118944      49  118941  118947
      49  118956  118959      47  118953  118956      49  118953  118959      49
  118968  118971      47  118965  118968      49  118965  118971      49  118980
  118983      47  118977  118980      49  118977  118983      49  118992  118995
      47  118989  118992      49  118989  118995      49  119004  119007      47
  119001  119004      49  119001  119007      49  119016  119019      47  119013
  119016      49  119013  119019      49  119028  119031      47  119025  119028
      49  119025  119031      49  119040  119043      47  119037  119040      49
  119037  119043      49  119052  119055      47  119049  119052      49  119049
  119055      49  119064  119067      47  119061  119064      49  119061  119067
      49  119076  119079      47  119073  119076      49  119073  119079      49
  119088  119091      47  119085  119088      49  119085  119091      49  119100
  119103      47  119097  119100      49  119097  119103      49  119112  119115
      47  119109  119112      49  119109  119115      49  119124  119127      47
  119121  119124      49  119121  119127      49  119136  119139      47  119133
  119136      49  119133  119139      49  119148  119151      47  119145  119148
      49  119145  119151      49  119160  119163      47  119157  119160      49
  119157  119163      49  119172  119175      47  119169  119172      49  119169
  119175      49  119184  119187      47  119181  119184      49  119181  119187
      49  119196  119199      47  119193  119196      49  119193  119199      49
  119208  119211      47  119205  119208      49  119205  119211      49  119220
  119223      47  119217  119220      49  119217  119223      49  119232  119235
      47  119229  119232      49  119229  119235      49  119244  119247      47
  119241  119244      49  119241  119247      49  119256  119259      47  119253
  119256      49  119253  119259      49  119268  119271      47  119265  119268
      49  119265  119271      49  119280  119283      47  119277  119280      49
  119277  119283      49  119292  119295      47  119289  119292      49  119289
  119295      49  119304  119307      47  119301  119304      49  119301  119307
      49  119316  119319      47  119313  119316      49  119313  119319      49
  119328  119331      47  119325  119328      49  119325  119331      49  119340
  119343      47  119337  119340      49  119337  119343      49  119352  119355
      47  119349  119352      49  119349  119355      49  119364  119367      47
  119361  119364      49  119361  119367      49  119376  119379      47  119373
  119376      49  119373  119379      49  119388  119391      47  119385  119388
      49  119385  119391      49  119400  119403      47  119397  119400      49
  119397  119403      49  119412  119415      47  119409  119412      49  119409
  119415      49  119424  119427      47  119421  119424      49  119421  119427
      49  119436  119439      47  119433  119436      49  119433  119439      49
  119448  119451      47  119445  119448      49  119445  119451      49  119460
  119463      47  119457  119460      49  119457  119463      49  119472  119475
      47  119469  119472      49  119469  119475      49  119484  119487      47
  119481  119484      49  119481  119487      49  119496  119499      47  119493
  119496      49  119493  119499      49  119508  119511      47  119505  119508
      49  119505  119511      49  119520  119523      47  119517  119520      49
  119517  119523      49  119532  119535      47  119529  119532      49  119529
  119535      49  119544  119547      47  119541  119544      49  119541  119547
      49  119556  119559      47  119553  119556      49  119553  119559      49
  119568  119571      47  119565  119568      49  119565  119571      49  119580
  119583      47  119577  119580      49  119577  119583      49  119592  119595
      47  119589  119592      49  119589  119595      49  119604  119607      47
  119601  119604      49  119601  119607      49  119616  119619      47  119613
  119616      49  119613  119619      49  119628  119631      47  119625  119628
      49  119625  119631      49  119640  119643      47  119637  119640      49
  119637  119643      49  119652  119655      47  119649  119652      49  119649
  119655      49  119664  119667      47  119661  119664      49  119661  119667
      49  119676  119679      47  119673  119676      49  119673  119679      49
  119688  119691      47  119685  119688      49  119685  119691      49  119700
  119703      47  119697  119700      49  119697  119703      49  119712  119715
      47  119709  119712      49  119709  119715      49  119724  119727      47
  119721  119724      49  119721  119727      49  119736  119739      47  119733
  119736      49  119733  119739      49  119748  119751      47  119745  119748
      49  119745  119751      49  119760  119763      47  119757  119760      49
  119757  119763      49  119772  119775      47  119769  119772      49  119769
  119775      49  119784  119787      47  119781  119784      49  119781  119787
      49  119796  119799      47  119793  119796      49  119793  119799      49
  119808  119811      47  119805  119808      49  119805  119811      49  119820
  119823      47  119817  119820      49  119817  119823      49  119832  119835
      47  119829  119832      49  119829  119835      49  119844  119847      47
  119841  119844      49  119841  119847      49  119856  119859      47  119853
  119856      49  119853  119859      49  119868  119871      47  119865  119868
      49  119865  119871      49  119880  119883      47  119877  119880      49
  119877  119883      49  119892  119895      47  119889  119892      49  119889
  119895      49  119904  119907      47  119901  119904      49  119901  119907
      49  119916  119919      47  119913  119916      49  119913  119919      49
  119928  119931      47  119925  119928      49  119925  119931      49  119940
  119943      47  119937  119940      49  119937  119943      49  119952  119955
      47  119949  119952      49  119949  119955      49  119964  119967      47
  119961  119964      49  119961  119967      49  119976  119979      47  119973
  119976      49  119973  119979      49  119988  119991      47  119985  119988
      49  119985  119991      49  120000  120003      47  119997  120000      49
  119997  120003      49  120012  120015      47  120009  120012      49  120009
  120015      49  120024  120027      47  120021  120024      49  120021  120027
      49  120036  120039      47  120033  120036      49  120033  120039      49
  120048  120051      47  120045  120048      49  120045  120051      49  120060
  120063      47  120057  120060      49  120057  120063      49  120072  120075
      47  120069  120072      49  120069  120075      49  120084  120087      47
  120081  120084      49  120081  120087      49  120096  120099      47  120093
  120096      49  120093  120099      49  120108  120111      47  120105  120108
      49  120105  120111      49  120120  120123      47  120117  120120      49
  120117  120123      49  120132  120135      47  120129  120132      49  120129
  120135      49  120144  120147      47  120141  120144      49  120141  120147
      49  120156  120159      47  120153  120156      49  120153  120159      49
  120168  120171      47  120165  120168      49  120165  120171      49  120180
  120183      47  120177  120180      49  120177  120183      49  120192  120195
      47  120189  120192      49  120189  120195      49  120204  120207      47
  120201  120204      49  120201  120207      49  120216  120219      47  120213
  120216      49  120213  120219      49  120228  120231      47  120225  120228
      49  120225  120231      49  120240  120243      47  120237  120240      49
  120237  120243      49  120252  120255      47  120249  120252      49  120249
  120255      49  120264  120267      47  120261  120264      49  120261  120267
      49  120276  120279      47  120273  120276      49  120273  120279      49
  120288  120291      47  120285  120288      49  120285  120291      49  120300
  120303      47  120297  120300      49  120297  120303      49  120312  120315
      47  120309  120312      49  120309  120315      49  120324  120327      47
  120321  120324      49  120321  120327      49  120336  120339      47  120333
  120336      49  120333  120339      49  120348  120351      47  120345  120348
      49  120345  120351      49  120360  120363      47  120357  120360      49
  120357  120363      49  120372  120375      47  120369  120372      49  120369
  120375      49  120384  120387      47  120381  120384      49  120381  120387
      49  120396  120399      47  120393  120396      49  120393  120399      49
  120408  120411      47  120405  120408      49  120405  120411      49  120420
  120423      47  120417  120420      49  120417  120423      49  120432  120435
      47  120429  120432      49  120429  120435      49  120444  120447      47
  120441  120444      49  120441  120447      49  120456  120459      47  120453
  120456      49  120453  120459      49  120468  120471      47  120465  120468
      49  120465  120471      49  120480  120483      47  120477  120480      49
  120477  120483      49  120492  120495      47  120489  120492      49  120489
  120495      49  120504  120507      47  120501  120504      49  120501  120507
      49  120516  120519      47  120513  120516      49  120513  120519      49
  120528  120531      47  120525  120528      49  120525  120531      49  120540
  120543      47  120537  120540      49  120537  120543      49  120552  120555
      47  120549  120552      49  120549  120555      49  120564  120567      47
  120561  120564      49  120561  120567      49  120576  120579      47  120573
  120576      49  120573  120579      49  120588  120591      47  120585  120588
      49  120585  120591      49  120600  120603      47  120597  120600      49
  120597  120603      49  120612  120615      47  120609  120612      49  120609
  120615      49  120624  120627      47  120621  120624      49  120621  120627
      49  120636  120639      47  120633  120636      49  120633  120639      49
  120648  120651      47  120645  120648      49  120645  120651      49  120660
  120663      47  120657  120660      49  120657  120663      49  120672  120675
      47  120669  120672      49  120669  120675      49  120684  120687      47
  120681  120684      49  120681  120687      49  120696  120699      47  120693
  120696      49  120693  120699      49  120708  120711      47  120705  120708
      49  120705  120711      49  120720  120723      47  120717  120720      49
  120717  120723      49  120732  120735      47  120729  120732      49  120729
  120735      49  120744  120747      47  120741  120744      49  120741  120747
      49  120756  120759      47  120753  120756      49  120753  120759      49
  120768  120771      47  120765  120768      49  120765  120771      49  120780
  120783      47  120777  120780      49  120777  120783      49  120792  120795
      47  120789  120792      49  120789  120795      49  120804  120807      47
  120801  120804      49  120801  120807      49  120816  120819      47  120813
  120816      49  120813  120819      49  120828  120831      47  120825  120828
      49  120825  120831      49  120840  120843      47  120837  120840      49
  120837  120843      49  120852  120855      47  120849  120852      49  120849
  120855      49  120864  120867      47  120861  120864      49  120861  120867
      49  120876  120879      47  120873  120876      49  120873  120879      49
  120888  120891      47  120885  120888      49  120885  120891      49  120900
  120903      47  120897  120900      49  120897  120903      49  120912  120915
      47  120909  120912      49  120909  120915      49  120924  120927      47
  120921  120924      49  120921  120927      49  120936  120939      47  120933
  120936      49  120933  120939      49  120948  120951      47  120945  120948
      49  120945  120951      49  120960  120963      47  120957  120960      49
  120957  120963      49  120972  120975      47  120969  120972      49  120969
  120975      49  120984  120987      47  120981  120984      49  120981  120987
      49  120996  120999      47  120993  120996      49  120993  120999      49
  121008  121011      47  121005  121008      49  121005  121011      49  121020
  121023      47  121017  121020      49  121017  121023      49  121032  121035
      47  121029  121032      49  121029  121035      49  121044  121047      47
  121041  121044      49  121041  121047      49  121056  121059      47  121053
  121056      49  121053  121059      49  121068  121071      47  121065  121068
      49  121065  121071      49  121080  121083      47  121077  121080      49
  121077  121083      49  121092  121095      47  121089  121092      49  121089
  121095      49  121104  121107      47  121101  121104      49  121101  121107
      49  121116  121119      47  121113  121116      49  121113  121119      49
  121128  121131      47  121125  121128      49  121125  121131      49  121140
  121143      47  121137  121140      49  121137  121143      49  121152  121155
      47  121149  121152      49  121149  121155      49  121164  121167      47
  121161  121164      49  121161  121167      49  121176  121179      47  121173
  121176      49  121173  121179      49  121188  121191      47  121185  121188
      49  121185  121191      49  121200  121203      47  121197  121200      49
  121197  121203      49  121212  121215      47  121209  121212      49  121209
  121215      49  121224  121227      47  121221  121224      49  121221  121227
      49  121236  121239      47  121233  121236      49  121233  121239      49
  121248  121251      47  121245  121248      49  121245  121251      49  121260
  121263      47  121257  121260      49  121257  121263      49  121272  121275
      47  121269  121272      49  121269  121275      49  121284  121287      47
  121281  121284      49  121281  121287      49  121296  121299      47  121293
  121296      49  121293  121299      49  121308  121311      47  121305  121308
      49  121305  121311      49  121320  121323      47  121317  121320      49
  121317  121323      49  121332  121335      47  121329  121332      49  121329
  121335      49  121344  121347      47  121341  121344      49  121341  121347
      49  121356  121359      47  121353  121356      49  121353  121359      49
  121368  121371      47  121365  121368      49  121365  121371      49  121380
  121383      47  121377  121380      49  121377  121383      49  121392  121395
      47  121389  121392      49  121389  121395      49  121404  121407      47
  121401  121404      49  121401  121407      49  121416  121419      47  121413
  121416      49  121413  121419      49  121428  121431      47  121425  121428
      49  121425  121431      49  121440  121443      47  121437  121440      49
  121437  121443      49  121452  121455      47  121449  121452      49  121449
  121455      49  121464  121467      47  121461  121464      49  121461  121467
      49  121476  121479      47  121473  121476      49  121473  121479      49
  121488  121491      47  121485  121488      49  121485  121491      49  121500
  121503      47  121497  121500      49  121497  121503      49  121512  121515
      47  121509  121512      49  121509  121515      49  121524  121527      47
  121521  121524      49  121521  121527      49  121536  121539      47  121533
  121536      49  121533  121539      49  121548  121551      47  121545  121548
      49  121545  121551      49  121560  121563      47  121557  121560      49
  121557  121563      49  121572  121575      47  121569  121572      49  121569
  121575      49  121584  121587      47  121581  121584      49  121581  121587
      49  121596  121599      47  121593  121596      49  121593  121599      49
  121608  121611      47  121605  121608      49  121605  121611      49  121620
  121623      47  121617  121620      49  121617  121623      49  121632  121635
      47  121629  121632      49  121629  121635      49  121644  121647      47
  121641  121644      49  121641  121647      49  121656  121659      47  121653
  121656      49  121653  121659      49  121668  121671      47  121665  121668
      49  121665  121671      49  121680  121683      47  121677  121680      49
  121677  121683      49  121692  121695      47  121689  121692      49  121689
  121695      49  121704  121707      47  121701  121704      49  121701  121707
      49  121716  121719      47  121713  121716      49  121713  121719      49
  121728  121731      47  121725  121728      49  121725  121731      49  121740
  121743      47  121737  121740      49  121737  121743      49  121752  121755
      47  121749  121752      49  121749  121755      49  121764  121767      47
  121761  121764      49  121761  121767      49  121776  121779      47  121773
  121776      49  121773  121779      49  121788  121791      47  121785  121788
      49  121785  121791      49  121800  121803      47  121797  121800      49
  121797  121803      49  121812  121815      47  121809  121812      49  121809
  121815      49  121824  121827      47  121821  121824      49  121821  121827
      49  121836  121839      47  121833  121836      49  121833  121839      49
  121848  121851      47  121845  121848      49  121845  121851      49  121860
  121863      47  121857  121860      49  121857  121863      49  121872  121875
      47  121869  121872      49  121869  121875      49  121884  121887      47
  121881  121884      49  121881  121887      49  121896  121899      47  121893
  121896      49  121893  121899      49  121908  121911      47  121905  121908
      49  121905  121911      49  121920  121923      47  121917  121920      49
  121917  121923      49  121932  121935      47  121929  121932      49  121929
  121935      49  121944  121947      47  121941  121944      49  121941  121947
      49  121956  121959      47  121953  121956      49  121953  121959      49
  121968  121971      47  121965  121968      49  121965  121971      49  121980
  121983      47  121977  121980      49  121977  121983      49  121992  121995
      47  121989  121992      49  121989  121995      49  122004  122007      47
  122001  122004      49  122001  122007      49  122016  122019      47  122013
  122016      49  122013  122019      49  122028  122031      47  122025  122028
      49  122025  122031      49  122040  122043      47  122037  122040      49
  122037  122043      49  122052  122055      47  122049  122052      49  122049
  122055      49  122064  122067      47  122061  122064      49  122061  122067
      49  122076  122079      47  122073  122076      49  122073  122079      49
  122088  122091      47  122085  122088      49  122085  122091      49  122100
  122103      47  122097  122100      49  122097  122103      49  122112  122115
      47  122109  122112      49  122109  122115      49  122124  122127      47
  122121  122124      49  122121  122127      49  122136  122139      47  122133
  122136      49  122133  122139      49  122148  122151      47  122145  122148
      49  122145  122151      49  122160  122163      47  122157  122160      49
  122157  122163      49  122172  122175      47  122169  122172      49  122169
  122175      49  122184  122187      47  122181  122184      49  122181  122187
      49  122196  122199      47  122193  122196      49  122193  122199      49
  122208  122211      47  122205  122208      49  122205  122211      49  122220
  122223      47  122217  122220      49  122217  122223      49  122232  122235
      47  122229  122232      49  122229  122235      49  122244  122247      47
  122241  122244      49  122241  122247      49  122256  122259      47  122253
  122256      49  122253  122259      49  122268  122271      47  122265  122268
      49  122265  122271      49  122280  122283      47  122277  122280      49
  122277  122283      49  122292  122295      47  122289  122292      49  122289
  122295      49  122304  122307      47  122301  122304      49  122301  122307
      49  122316  122319      47  122313  122316      49  122313  122319      49
  122328  122331      47  122325  122328      49  122325  122331      49  122340
  122343      47  122337  122340      49  122337  122343      49  122352  122355
      47  122349  122352      49  122349  122355      49  122364  122367      47
  122361  122364      49  122361  122367      49  122376  122379      47  122373
  122376      49  122373  122379      49  122388  122391      47  122385  122388
      49  122385  122391      49  122400  122403      47  122397  122400      49
  122397  122403      49  122412  122415      47  122409  122412      49  122409
  122415      49  122424  122427      47  122421  122424      49  122421  122427
      49  122436  122439      47  122433  122436      49  122433  122439      49
  122448  122451      47  122445  122448      49  122445  122451      49  122460
  122463      47  122457  122460      49  122457  122463      49  122472  122475
      47  122469  122472      49  122469  122475      49  122484  122487      47
  122481  122484      49  122481  122487      49  122496  122499      47  122493
  122496      49  122493  122499      49  122508  122511      47  122505  122508
      49  122505  122511      49  122520  122523      47  122517  122520      49
  122517  122523      49  122532  122535      47  122529  122532      49  122529
  122535      49  122544  122547      47  122541  122544      49  122541  122547
      49  122556  122559      47  122553  122556      49  122553  122559      49
  122568  122571      47  122565  122568      49  122565  122571      49  122580
  122583      47  122577  122580      49  122577  122583      49  122592  122595
      47  122589  122592      49  122589  122595      49  122604  122607      47
  122601  122604      49  122601  122607      49  122616  122619      47  122613
  122616      49  122613  122619      49  122628  122631      47  122625  122628
      49  122625  122631      49  122640  122643      47  122637  122640      49
  122637  122643      49  122652  122655      47  122649  122652      49  122649
  122655      49  122664  122667      47  122661  122664      49  122661  122667
      49  122676  122679      47  122673  122676      49  122673  122679      49
  122688  122691      47  122685  122688      49  122685  122691      49  122700
  122703      47  122697  122700      49  122697  122703      49  122712  122715
      47  122709  122712      49  122709  122715      49  122724  122727      47
  122721  122724      49  122721  122727      49  122736  122739      47  122733
  122736      49  122733  122739      49  122748  122751      47  122745  122748
      49  122745  122751      49  122760  122763      47  122757  122760      49
  122757  122763      49  122772  122775      47  122769  122772      49  122769
  122775      49  122784  122787      47  122781  122784      49  122781  122787
      49  122796  122799      47  122793  122796      49  122793  122799      49
  122808  122811      47  122805  122808      49  122805  122811      49  122820
  122823      47  122817  122820      49  122817  122823      49  122832  122835
      47  122829  122832      49  122829  122835      49  122844  122847      47
  122841  122844      49  122841  122847      49  122856  122859      47  122853
  122856      49  122853  122859      49  122868  122871      47  122865  122868
      49  122865  122871      49  122880  122883      47  122877  122880      49
  122877  122883      49  122892  122895      47  122889  122892      49  122889
  122895      49  122904  122907      47  122901  122904      49  122901  122907
      49  122916  122919      47  122913  122916      49  122913  122919      49
  122928  122931      47  122925  122928      49  122925  122931      49  122940
  122943      47  122937  122940      49  122937  122943      49  122952  122955
      47  122949  122952      49  122949  122955      49  122964  122967      47
  122961  122964      49  122961  122967      49  122976  122979      47  122973
  122976      49  122973  122979      49  122988  122991      47  122985  122988
      49  122985  122991      49  123000  123003      47  122997  123000      49
  122997  123003      49  123012  123015      47  123009  123012      49  123009
  123015      49  123024  123027      47  123021  123024      49  123021  123027
      49  123036  123039      47  123033  123036      49  123033  123039      49
  123048  123051      47  123045  123048      49  123045  123051      49  123060
  123063      47  123057  123060      49  123057  123063      49  123072  123075
      47  123069  123072      49  123069  123075      49  123084  123087      47
  123081  123084      49  123081  123087      49  123096  123099      47  123093
  123096      49  123093  123099      49  123108  123111      47  123105  123108
      49  123105  123111      49  123120  123123      47  123117  123120      49
  123117  123123      49  123132  123135      47  123129  123132      49  123129
  123135      49  123144  123147      47  123141  123144      49  123141  123147
      49  123156  123159      47  123153  123156      49  123153  123159      49
  123168  123171      47  123165  123168      49  123165  123171      49  123180
  123183      47  123177  123180      49  123177  123183      49  123192  123195
      47  123189  123192      49  123189  123195      49  123204  123207      47
  123201  123204      49  123201  123207      49  123216  123219      47  123213
  123216      49  123213  123219      49  123228  123231      47  123225  123228
      49  123225  123231      49  123240  123243      47  123237  123240      49
  123237  123243      49  123252  123255      47  123249  123252      49  123249
  123255      49  123264  123267      47  123261  123264      49  123261  123267
      49  123276  123279      47  123273  123276      49  123273  123279      49
  123288  123291      47  123285  123288      49  123285  123291      49  123300
  123303      47  123297  123300      49  123297  123303      49  123312  123315
      47  123309  123312      49  123309  123315      49  123324  123327      47
  123321  123324      49  123321  123327      49  123336  123339      47  123333
  123336      49  123333  123339      49  123348  123351      47  123345  123348
      49  123345  123351      49  123360  123363      47  123357  123360      49
  123357  123363      49  123372  123375      47  123369  123372      49  123369
  123375      49  123384  123387      47  123381  123384      49  123381  123387
      49  123396  123399      47  123393  123396      49  123393  123399      49
  123408  123411      47  123405  123408      49  123405  123411      49  123420
  123423      47  123417  123420      49  123417  123423      49  123432  123435
      47  123429  123432      49  123429  123435      49  123444  123447      47
  123441  123444      49  123441  123447      49  123456  123459      47  123453
  123456      49  123453  123459      49  123468  123471      47  123465  123468
      49  123465  123471      49  123480  123483      47  123477  123480      49
  123477  123483      49  123492  123495      47  123489  123492      49  123489
  123495      49  123504  123507      47  123501  123504      49  123501  123507
      49  123516  123519      47  123513  123516      49  123513  123519      49
  123528  123531      47  123525  123528      49  123525  123531      49  123540
  123543      47  123537  123540      49  123537  123543      49  123552  123555
      47  123549  123552      49  123549  123555      49  123564  123567      47
  123561  123564      49  123561  123567      49  123576  123579      47  123573
  123576      49  123573  123579      49  123588  123591      47  123585  123588
      49  123585  123591      49  123600  123603      47  123597  123600      49
  123597  123603      49  123612  123615      47  123609  123612      49  123609
  123615      49  123624  123627      47  123621  123624      49  123621  123627
      49  123636  123639      47  123633  123636      49  123633  123639      49
  123648  123651      47  123645  123648      49  123645  123651      49  123660
  123663      47  123657  123660      49  123657  123663      49  123672  123675
      47  123669  123672      49  123669  123675      49  123684  123687      47
  123681  123684      49  123681  123687      49  123696  123699      47  123693
  123696      49  123693  123699      49  123708  123711      47  123705  123708
      49  123705  123711      49  123720  123723      47  123717  123720      49
  123717  123723      49  123732  123735      47  123729  123732      49  123729
  123735      49  123744  123747      47  123741  123744      49  123741  123747
      49  123756  123759      47  123753  123756      49  123753  123759      49
  123768  123771      47  123765  123768      49  123765  123771      49  123780
  123783      47  123777  123780      49  123777  123783      49  123792  123795
      47  123789  123792      49  123789  123795      49  123804  123807      47
  123801  123804      49  123801  123807      49  123816  123819      47  123813
  123816      49  123813  123819      49  123828  123831      47  123825  123828
      49  123825  123831      49  123840  123843      47  123837  123840      49
  123837  123843      49  123852  123855      47  123849  123852      49  123849
  123855      49  123864  123867      47  123861  123864      49  123861  123867
      49  123876  123879      47  123873  123876      49  123873  123879      49
  123888  123891      47  123885  123888      49  123885  123891      49  123900
  123903      47  123897  123900      49  123897  123903      49  123912  123915
      47  123909  123912      49  123909  123915      49  123924  123927      47
  123921  123924      49  123921  123927      49  123936  123939      47  123933
  123936      49  123933  123939      49  123948  123951      47  123945  123948
      49  123945  123951      49  123960  123963      47  123957  123960      49
  123957  123963      49  123972  123975      47  123969  123972      49  123969
  123975      49  123984  123987      47  123981  123984      49  123981  123987
      49  123996  123999      47  123993  123996      49  123993  123999      49
  124008  124011      47  124005  124008      49  124005  124011      49  124020
  124023      47  124017  124020      49  124017  124023      49  124032  124035
      47  124029  124032      49  124029  124035      49  124044  124047      47
  124041  124044      49  124041  124047      49  124056  124059      47  124053
  124056      49  124053  124059      49  124068  124071      47  124065  124068
      49  124065  124071      49  124080  124083      47  124077  124080      49
  124077  124083      49  124092  124095      47  124089  124092      49  124089
  124095      49  124104  124107      47  124101  124104      49  124101  124107
      49  124116  124119      47  124113  124116      49  124113  124119      49
  124128  124131      47  124125  124128      49  124125  124131      49  124140
  124143      47  124137  124140      49  124137  124143      49  124152  124155
      47  124149  124152      49  124149  124155      49  124164  124167      47
  124161  124164      49  124161  124167      49  124176  124179      47  124173
  124176      49  124173  124179      49  124188  124191      47  124185  124188
      49  124185  124191      49  124200  124203      47  124197  124200      49
  124197  124203      49  124212  124215      47  124209  124212      49  124209
  124215      49  124224  124227      47  124221  124224      49  124221  124227
      49  124236  124239      47  124233  124236      49  124233  124239      49
  124248  124251      47  124245  124248      49  124245  124251      49  124260
  124263      47  124257  124260      49  124257  124263      49  124272  124275
      47  124269  124272      49  124269  124275      49  124284  124287      47
  124281  124284      49  124281  124287      49  124296  124299      47  124293
  124296      49  124293  124299      49  124308  124311      47  124305  124308
      49  124305  124311      49  124320  124323      47  124317  124320      49
  124317  124323      49  124332  124335      47  124329  124332      49  124329
  124335      49  124344  124347      47  124341  124344      49  124341  124347
      49  124356  124359      47  124353  124356      49  124353  124359      49
  124368  124371      47  124365  124368      49  124365  124371      49  124380
  124383      47  124377  124380      49  124377  124383      49  124392  124395
      47  124389  124392      49  124389  124395      49  124404  124407      47
  124401  124404      49  124401  124407      49  124416  124419      47  124413
  124416      49  124413  124419      49  124428  124431      47  124425  124428
      49  124425  124431      49  124440  124443      47  124437  124440      49
  124437  124443      49  124452  124455      47  124449  124452      49  124449
  124455      49  124464  124467      47  124461  124464      49  124461  124467
      49  124476  124479      47  124473  124476      49  124473  124479      49
  124488  124491      47  124485  124488      49  124485  124491      49  124500
  124503      47  124497  124500      49  124497  124503      49  124512  124515
      47  124509  124512      49  124509  124515      49  124524  124527      47
  124521  124524      49  124521  124527      49  124536  124539      47  124533
  124536      49  124533  124539      49  124548  124551      47  124545  124548
      49  124545  124551      49  124560  124563      47  124557  124560      49
  124557  124563      49  124572  124575      47  124569  124572      49  124569
  124575      49  124584  124587      47  124581  124584      49  124581  124587
      49  124596  124599      47  124593  124596      49  124593  124599      49
  124608  124611      47  124605  124608      49  124605  124611      49  124620
  124623      47  124617  124620      49  124617  124623      49  124632  124635
      47  124629  124632      49  124629  124635      49  124644  124647      47
  124641  124644      49  124641  124647      49  124656  124659      47  124653
  124656      49  124653  124659      49  124668  124671      47  124665  124668
      49  124665  124671      49  124680  124683      47  124677  124680      49
  124677  124683      49  124692  124695      47  124689  124692      49  124689
  124695      49  124704  124707      47  124701  124704      49  124701  124707
      49  124716  124719      47  124713  124716      49  124713  124719      49
  124728  124731      47  124725  124728      49  124725  124731      49  124740
  124743      47  124737  124740      49  124737  124743      49  124752  124755
      47  124749  124752      49  124749  124755      49  124764  124767      47
  124761  124764      49  124761  124767      49  124776  124779      47  124773
  124776      49  124773  124779      49  124788  124791      47  124785  124788
      49  124785  124791      49  124800  124803      47  124797  124800      49
  124797  124803      49  124812  124815      47  124809  124812      49  124809
  124815      49  124824  124827      47  124821  124824      49  124821  124827
      49  124836  124839      47  124833  124836      49  124833  124839      49
  124848  124851      47  124845  124848      49  124845  124851      49  124860
  124863      47  124857  124860      49  124857  124863      49  124872  124875
      47  124869  124872      49  124869  124875      49  124884  124887      47
  124881  124884      49  124881  124887      49  124896  124899      47  124893
  124896      49  124893  124899      49  124908  124911      47  124905  124908
      49  124905  124911      49  124920  124923      47  124917  124920      49
  124917  124923      49  124932  124935      47  124929  124932      49  124929
  124935      49  124944  124947      47  124941  124944      49  124941  124947
      49  124956  124959      47  124953  124956      49  124953  124959      49
  124968  124971      47  124965  124968      49  124965  124971      49  124980
  124983      47  124977  124980      49  124977  124983      49  124992  124995
      47  124989  124992      49  124989  124995      49  125004  125007      47
  125001  125004      49  125001  125007      49  125016  125019      47  125013
  125016      49  125013  125019      49  125028  125031      47  125025  125028
      49  125025  125031      49  125040  125043      47  125037  125040      49
  125037  125043      49  125052  125055      47  125049  125052      49  125049
  125055      49  125064  125067      47  125061  125064      49  125061  125067
      49  125076  125079      47  125073  125076      49  125073  125079      49
  125088  125091      47  125085  125088      49  125085  125091      49  125100
  125103      47  125097  125100      49  125097  125103      49  125112  125115
      47  125109  125112      49  125109  125115      49  125124  125127      47
  125121  125124      49  125121  125127      49  125136  125139      47  125133
  125136      49  125133  125139      49  125148  125151      47  125145  125148
      49  125145  125151      49  125160  125163      47  125157  125160      49
  125157  125163      49  125172  125175      47  125169  125172      49  125169
  125175      49  125184  125187      47  125181  125184      49  125181  125187
      49  125196  125199      47  125193  125196      49  125193  125199      49
  125208  125211      47  125205  125208      49  125205  125211      49  125220
  125223      47  125217  125220      49  125217  125223      49  125232  125235
      47  125229  125232      49  125229  125235      49  125244  125247      47
  125241  125244      49  125241  125247      49  125256  125259      47  125253
  125256      49  125253  125259      49  125268  125271      47  125265  125268
      49  125265  125271      49  125280  125283      47  125277  125280      49
  125277  125283      49  125292  125295      47  125289  125292      49  125289
  125295      49  125304  125307      47  125301  125304      49  125301  125307
      49  125316  125319      47  125313  125316      49  125313  125319      49
  125328  125331      47  125325  125328      49  125325  125331      49  125340
  125343      47  125337  125340      49  125337  125343      49  125352  125355
      47  125349  125352      49  125349  125355      49  125364  125367      47
  125361  125364      49  125361  125367      49  125376  125379      47  125373
  125376      49  125373  125379      49  125388  125391      47  125385  125388
      49  125385  125391      49  125400  125403      47  125397  125400      49
  125397  125403      49  125412  125415      47  125409  125412      49  125409
  125415      49  125424  125427      47  125421  125424      49  125421  125427
      49  125436  125439      47  125433  125436      49  125433  125439      49
  125448  125451      47  125445  125448      49  125445  125451      49  125460
  125463      47  125457  125460      49  125457  125463      49  125472  125475
      47  125469  125472      49  125469  125475      49  125484  125487      47
  125481  125484      49  125481  125487      49  125496  125499      47  125493
  125496      49  125493  125499      49  125508  125511      47  125505  125508
      49  125505  125511      49  125520  125523      47  125517  125520      49
  125517  125523      49  125532  125535      47  125529  125532      49  125529
  125535      49  125544  125547      47  125541  125544      49  125541  125547
      49  125556  125559      47  125553  125556      49  125553  125559      49
  125568  125571      47  125565  125568      49  125565  125571      49  125580
  125583      47  125577  125580      49  125577  125583      49  125592  125595
      47  125589  125592      49  125589  125595      49  125604  125607      47
  125601  125604      49  125601  125607      49  125616  125619      47  125613
  125616      49  125613  125619      49  125628  125631      47  125625  125628
      49  125625  125631      49  125640  125643      47  125637  125640      49
  125637  125643      49  125652  125655      47  125649  125652      49  125649
  125655      49  125664  125667      47  125661  125664      49  125661  125667
      49  125676  125679      47  125673  125676      49  125673  125679      49
  125688  125691      47  125685  125688      49  125685  125691      49  125700
  125703      47  125697  125700      49  125697  125703      49  125712  125715
      47  125709  125712      49  125709  125715      49  125724  125727      47
  125721  125724      49  125721  125727      49  125736  125739      47  125733
  125736      49  125733  125739      49  125748  125751      47  125745  125748
      49  125745  125751      49  125760  125763      47  125757  125760      49
  125757  125763      49  125772  125775      47  125769  125772      49  125769
  125775      49  125784  125787      47  125781  125784      49  125781  125787
      49  125796  125799      47  125793  125796      49  125793  125799      49
  125808  125811      47  125805  125808      49  125805  125811      49  125820
  125823      47  125817  125820      49  125817  125823      49  125832  125835
      47  125829  125832      49  125829  125835      49  125844  125847      47
  125841  125844      49  125841  125847      49  125856  125859      47  125853
  125856      49  125853  125859      49  125868  125871      47  125865  125868
      49  125865  125871      49  125880  125883      47  125877  125880      49
  125877  125883      49  125892  125895      47  125889  125892      49  125889
  125895      49  125904  125907      47  125901  125904      49  125901  125907
      49  125916  125919      47  125913  125916      49  125913  125919      49
  125928  125931      47  125925  125928      49  125925  125931      49  125940
  125943      47  125937  125940      49  125937  125943      49  125952  125955
      47  125949  125952      49  125949  125955      49  125964  125967      47
  125961  125964      49  125961  125967      49  125976  125979      47  125973
  125976      49  125973  125979      49  125988  125991      47  125985  125988
      49  125985  125991      49  126000  126003      47  125997  126000      49
  125997  126003      49  126012  126015      47  126009  126012      49  126009
  126015      49  126024  126027      47  126021  126024      49  126021  126027
      49  126036  126039      47  126033  126036      49  126033  126039      49
  126048  126051      47  126045  126048      49  126045  126051      49  126060
  126063      47  126057  126060      49  126057  126063      49  126072  126075
      47  126069  126072      49  126069  126075      49  126084  126087      47
  126081  126084      49  126081  126087      49  126096  126099      47  126093
  126096      49  126093  126099      49  126108  126111      47  126105  126108
      49  126105  126111      49  126120  126123      47  126117  126120      49
  126117  126123      49  126132  126135      47  126129  126132      49  126129
  126135      49  126144  126147      47  126141  126144      49  126141  126147
      49  126156  126159      47  126153  126156      49  126153  126159      49
  126168  126171      47  126165  126168      49  126165  126171      49  126180
  126183      47  126177  126180      49  126177  126183      49  126192  126195
      47  126189  126192      49  126189  126195      49  126204  126207      47
  126201  126204      49  126201  126207      49  126216  126219      47  126213
  126216      49  126213  126219      49  126228  126231      47  126225  126228
      49  126225  126231      49  126240  126243      47  126237  126240      49
  126237  126243      49  126252  126255      47  126249  126252      49  126249
  126255      49  126264  126267      47  126261  126264      49  126261  126267
      49  126276  126279      47  126273  126276      49  126273  126279      49
  126288  126291      47  126285  126288      49  126285  126291      49  126300
  126303      47  126297  126300      49  126297  126303      49  126312  126315
      47  126309  126312      49  126309  126315      49  126324  126327      47
  126321  126324      49  126321  126327      49  126336  126339      47  126333
  126336      49  126333  126339      49  126348  126351      47  126345  126348
      49  126345  126351      49  126360  126363      47  126357  126360      49
  126357  126363      49  126372  126375      47  126369  126372      49  126369
  126375      49  126384  126387      47  126381  126384      49  126381  126387
      49  126396  126399      47  126393  126396      49  126393  126399      49
  126408  126411      47  126405  126408      49  126405  126411      49  126420
  126423      47  126417  126420      49  126417  126423      49  126432  126435
      47  126429  126432      49  126429  126435      49  126444  126447      47
  126441  126444      49  126441  126447      49  126456  126459      47  126453
  126456      49  126453  126459      49  126468  126471      47  126465  126468
      49  126465  126471      49  126480  126483      47  126477  126480      49
  126477  126483      49  126492  126495      47  126489  126492      49  126489
  126495      49  126504  126507      47  126501  126504      49  126501  126507
      49  126516  126519      47  126513  126516      49  126513  126519      49
  126528  126531      47  126525  126528      49  126525  126531      49  126540
  126543      47  126537  126540      49  126537  126543      49  126552  126555
      47  126549  126552      49  126549  126555      49  126564  126567      47
  126561  126564      49  126561  126567      49  126576  126579      47  126573
  126576      49  126573  126579      49  126588  126591      47  126585  126588
      49  126585  126591      49  126600  126603      47  126597  126600      49
  126597  126603      49  126612  126615      47  126609  126612      49  126609
  126615      49  126624  126627      47  126621  126624      49  126621  126627
      49  126636  126639      47  126633  126636      49  126633  126639      49
  126648  126651      47  126645  126648      49  126645  126651      49  126660
  126663      47  126657  126660      49  126657  126663      49  126672  126675
      47  126669  126672      49  126669  126675      49  126684  126687      47
  126681  126684      49  126681  126687      49  126696  126699      47  126693
  126696      49  126693  126699      49  126708  126711      47  126705  126708
      49  126705  126711      49  126720  126723      47  126717  126720      49
  126717  126723      49  126732  126735      47  126729  126732      49  126729
  126735      49  126744  126747      47  126741  126744      49  126741  126747
      49  126756  126759      47  126753  126756      49  126753  126759      49
  126768  126771      47  126765  126768      49  126765  126771      49  126780
  126783      47  126777  126780      49  126777  126783      49  126792  126795
      47  126789  126792      49  126789  126795      49  126804  126807      47
  126801  126804      49  126801  126807      49  126816  126819      47  126813
  126816      49  126813  126819      49  126828  126831      47  126825  126828
      49  126825  126831      49  126840  126843      47  126837  126840      49
  126837  126843      49  126852  126855      47  126849  126852      49  126849
  126855      49  126864  126867      47  126861  126864      49  126861  126867
      49  126876  126879      47  126873  126876      49  126873  126879      49
  126888  126891      47  126885  126888      49  126885  126891      49  126900
  126903      47  126897  126900      49  126897  126903      49  126912  126915
      47  126909  126912      49  126909  126915      49  126924  126927      47
  126921  126924      49  126921  126927      49  126936  126939      47  126933
  126936      49  126933  126939      49  126948  126951      47  126945  126948
      49  126945  126951      49  126960  126963      47  126957  126960      49
  126957  126963      49  126972  126975      47  126969  126972      49  126969
  126975      49  126984  126987      47  126981  126984      49  126981  126987
      49  126996  126999      47  126993  126996      49  126993  126999      49
  127008  127011      47  127005  127008      49  127005  127011      49  127020
  127023      47  127017  127020      49  127017  127023      49  127032  127035
      47  127029  127032      49  127029  127035      49  127044  127047      47
  127041  127044      49  127041  127047      49  127056  127059      47  127053
  127056      49  127053  127059      49  127068  127071      47  127065  127068
      49  127065  127071      49  127080  127083      47  127077  127080      49
  127077  127083      49  127092  127095      47  127089  127092      49  127089
  127095      49  127104  127107      47  127101  127104      49  127101  127107
      49  127116  127119      47  127113  127116      49  127113  127119      49
  127128  127131      47  127125  127128      49  127125  127131      49  127140
  127143      47  127137  127140      49  127137  127143      49  127152  127155
      47  127149  127152      49  127149  127155      49  127164  127167      47
  127161  127164      49  127161  127167      49  127176  127179      47  127173
  127176      49  127173  127179      49  127188  127191      47  127185  127188
      49  127185  127191      49  127200  127203      47  127197  127200      49
  127197  127203      49  127212  127215      47  127209  127212      49  127209
  127215      49  127224  127227      47  127221  127224      49  127221  127227
      49  127236  127239      47  127233  127236      49  127233  127239      49
  127248  127251      47  127245  127248      49  127245  127251      49  127260
  127263      47  127257  127260      49  127257  127263      49  127272  127275
      47  127269  127272      49  127269  127275      49  127284  127287      47
  127281  127284      49  127281  127287      49  127296  127299      47  127293
  127296      49  127293  127299      49  127308  127311      47  127305  127308
      49  127305  127311      49  127320  127323      47  127317  127320      49
  127317  127323      49  127332  127335      47  127329  127332      49  127329
  127335      49  127344  127347      47  127341  127344      49  127341  127347
      49  127356  127359      47  127353  127356      49  127353  127359      49
  127368  127371      47  127365  127368      49  127365  127371      49  127380
  127383      47  127377  127380      49  127377  127383      49  127392  127395
      47  127389  127392      49  127389  127395      49  127404  127407      47
  127401  127404      49  127401  127407      49  127416  127419      47  127413
  127416      49  127413  127419      49  127428  127431      47  127425  127428
      49  127425  127431      49  127440  127443      47  127437  127440      49
  127437  127443      49  127452  127455      47  127449  127452      49  127449
  127455      49  127464  127467      47  127461  127464      49  127461  127467
      49  127476  127479      47  127473  127476      49  127473  127479      49
  127488  127491      47  127485  127488      49  127485  127491      49  127500
  127503      47  127497  127500      49  127497  127503      49  127512  127515
      47  127509  127512      49  127509  127515      49  127524  127527      47
  127521  127524      49  127521  127527      49  127536  127539      47  127533
  127536      49  127533  127539      49  127548  127551      47  127545  127548
      49  127545  127551      49  127560  127563      47  127557  127560      49
  127557  127563      49  127572  127575      47  127569  127572      49  127569
  127575      49  127584  127587      47  127581  127584      49  127581  127587
      49  127596  127599      47  127593  127596      49  127593  127599      49
  127608  127611      47  127605  127608      49  127605  127611      49  127620
  127623      47  127617  127620      49  127617  127623      49  127632  127635
      47  127629  127632      49  127629  127635      49  127644  127647      47
  127641  127644      49  127641  127647      49  127656  127659      47  127653
  127656      49  127653  127659      49  127668  127671      47  127665  127668
      49  127665  127671      49  127680  127683      47  127677  127680      49
  127677  127683      49  127692  127695      47  127689  127692      49  127689
  127695      49  127704  127707      47  127701  127704      49  127701  127707
      49  127716  127719      47  127713  127716      49  127713  127719      49
  127728  127731      47  127725  127728      49  127725  127731      49  127740
  127743      47  127737  127740      49  127737  127743      49  127752  127755
      47  127749  127752      49  127749  127755      49  127764  127767      47
  127761  127764      49  127761  127767      49  127776  127779      47  127773
  127776      49  127773  127779      49  127788  127791      47  127785  127788
      49  127785  127791      49  127800  127803      47  127797  127800      49
  127797  127803      49  127812  127815      47  127809  127812      49  127809
  127815      49  127824  127827      47  127821  127824      49  127821  127827
      49  127836  127839      47  127833  127836      49  127833  127839      49
  127848  127851      47  127845  127848      49  127845  127851      49  127860
  127863      47  127857  127860      49  127857  127863      49  127872  127875
      47  127869  127872      49  127869  127875      49  127884  127887      47
  127881  127884      49  127881  127887      49  127896  127899      47  127893
  127896      49  127893  127899      49  127908  127911      47  127905  127908
      49  127905  127911      49  127920  127923      47  127917  127920      49
  127917  127923      49  127932  127935      47  127929  127932      49  127929
  127935      49  127944  127947      47  127941  127944      49  127941  127947
      49  127956  127959      47  127953  127956      49  127953  127959      49
  127968  127971      47  127965  127968      49  127965  127971      49  127980
  127983      47  127977  127980      49  127977  127983      49  127992  127995
      47  127989  127992      49  127989  127995      49  128004  128007      47
  128001  128004      49  128001  128007      49  128016  128019      47  128013
  128016      49  128013  128019      49  128028  128031      47  128025  128028
      49  128025  128031      49  128040  128043      47  128037  128040      49
  128037  128043      49  128052  128055      47  128049  128052      49  128049
  128055      49  128064  128067      47  128061  128064      49  128061  128067
      49  128076  128079      47  128073  128076      49  128073  128079      49
  128088  128091      47  128085  128088      49  128085  128091      49  128100
  128103      47  128097  128100      49  128097  128103      49  128112  128115
      47  128109  128112      49  128109  128115      49  128124  128127      47
  128121  128124      49  128121  128127      49  128136  128139      47  128133
  128136      49  128133  128139      49  128148  128151      47  128145  128148
      49  128145  128151      49  128160  128163      47  128157  128160      49
  128157  128163      49  128172  128175      47  128169  128172      49  128169
  128175      49  128184  128187      47  128181  128184      49  128181  128187
      49  128196  128199      47  128193  128196      49  128193  128199      49
  128208  128211      47  128205  128208      49  128205  128211      49  128220
  128223      47  128217  128220      49  128217  128223      49  128232  128235
      47  128229  128232      49  128229  128235      49  128244  128247      47
  128241  128244      49  128241  128247      49  128256  128259      47  128253
  128256      49  128253  128259      49  128268  128271      47  128265  128268
      49  128265  128271      49  128280  128283      47  128277  128280      49
  128277  128283      49  128292  128295      47  128289  128292      49  128289
  128295      49  128304  128307      47  128301  128304      49  128301  128307
      49  128316  128319      47  128313  128316      49  128313  128319      49
  128328  128331      47  128325  128328      49  128325  128331      49  128340
  128343      47  128337  128340      49  128337  128343      49  128352  128355
      47  128349  128352      49  128349  128355      49  128364  128367      47
  128361  128364      49  128361  128367      49  128376  128379      47  128373
  128376      49  128373  128379      49  128388  128391      47  128385  128388
      49  128385  128391      49  128400  128403      47  128397  128400      49
  128397  128403      49  128412  128415      47  128409  128412      49  128409
  128415      49  128424  128427      47  128421  128424      49  128421  128427
      49  128436  128439      47  128433  128436      49  128433  128439      49
  128448  128451      47  128445  128448      49  128445  128451      49  128460
  128463      47  128457  128460      49  128457  128463      49  128472  128475
      47  128469  128472      49  128469  128475      49  128484  128487      47
  128481  128484      49  128481  128487      49  128496  128499      47  128493
  128496      49  128493  128499      49  128508  128511      47  128505  128508
      49  128505  128511      49  128520  128523      47  128517  128520      49
  128517  128523      49  128532  128535      47  128529  128532      49  128529
  128535      49  128544  128547      47  128541  128544      49  128541  128547
      49  128556  128559      47  128553  128556      49  128553  128559      49
  128568  128571      47  128565  128568      49  128565  128571      49  128580
  128583      47  128577  128580      49  128577  128583      49  128592  128595
      47  128589  128592      49  128589  128595      49  128604  128607      47
  128601  128604      49  128601  128607      49  128616  128619      47  128613
  128616      49  128613  128619      49  128628  128631      47  128625  128628
      49  128625  128631      49  128640  128643      47  128637  128640      49
  128637  128643      49  128652  128655      47  128649  128652      49  128649
  128655      49  128664  128667      47  128661  128664      49  128661  128667
      49  128676  128679      47  128673  128676      49  128673  128679      49
  128688  128691      47  128685  128688      49  128685  128691      49  128700
  128703      47  128697  128700      49  128697  128703      49  128712  128715
      47  128709  128712      49  128709  128715      49  128724  128727      47
  128721  128724      49  128721  128727      49  128736  128739      47  128733
  128736      49  128733  128739      49  128748  128751      47  128745  128748
      49  128745  128751      49  128760  128763      47  128757  128760      49
  128757  128763      49  128772  128775      47  128769  128772      49  128769
  128775      49  128784  128787      47  128781  128784      49  128781  128787
      49  128796  128799      47  128793  128796      49  128793  128799      49
  128808  128811      47  128805  128808      49  128805  128811      49  128820
  128823      47  128817  128820      49  128817  128823      49  128832  128835
      47  128829  128832      49  128829  128835      49  128844  128847      47
  128841  128844      49  128841  128847      49  128856  128859      47  128853
  128856      49  128853  128859      49  128868  128871      47  128865  128868
      49  128865  128871      49  128880  128883      47  128877  128880      49
  128877  128883      49  128892  128895      47  128889  128892      49  128889
  128895      49  128904  128907      47  128901  128904      49  128901  128907
      49  128916  128919      47  128913  128916      49  128913  128919      49
  128928  128931      47  128925  128928      49  128925  128931      49  128940
  128943      47  128937  128940      49  128937  128943      49  128952  128955
      47  128949  128952      49  128949  128955      49  128964  128967      47
  128961  128964      49  128961  128967      49  128976  128979      47  128973
  128976      49  128973  128979      49  128988  128991      47  128985  128988
      49  128985  128991      49  129000  129003      47  128997  129000      49
  128997  129003      49  129012  129015      47  129009  129012      49  129009
  129015      49  129024  129027      47  129021  129024      49  129021  129027
      49  129036  129039      47  129033  129036      49  129033  129039      49
  129048  129051      47  129045  129048      49  129045  129051      49  129060
  129063      47  129057  129060      49  129057  129063      49  129072  129075
      47  129069  129072      49  129069  129075      49  129084  129087      47
  129081  129084      49  129081  129087      49  129096  129099      47  129093
  129096      49  129093  129099      49  129108  129111      47  129105  129108
      49  129105  129111      49  129120  129123      47  129117  129120      49
  129117  129123      49  129132  129135      47  129129  129132      49  129129
  129135      49  129144  129147      47  129141  129144      49  129141  129147
      49  129156  129159      47  129153  129156      49  129153  129159      49
  129168  129171      47  129165  129168      49  129165  129171      49  129180
  129183      47  129177  129180      49  129177  129183      49  129192  129195
      47  129189  129192      49  129189  129195      49  129204  129207      47
  129201  129204      49  129201  129207      49  129216  129219      47  129213
  129216      49  129213  129219      49  129228  129231      47  129225  129228
      49  129225  129231      49  129240  129243      47  129237  129240      49
  129237  129243      49  129252  129255      47  129249  129252      49  129249
  129255      49  129264  129267      47  129261  129264      49  129261  129267
      49  129276  129279      47  129273  129276      49  129273  129279      49
  129288  129291      47  129285  129288      49  129285  129291      49  129300
  129303      47  129297  129300      49  129297  129303      49  129312  129315
      47  129309  129312      49  129309  129315      49  129324  129327      47
  129321  129324      49  129321  129327      49  129336  129339      47  129333
  129336      49  129333  129339      49  129348  129351      47  129345  129348
      49  129345  129351      49  129360  129363      47  129357  129360      49
  129357  129363      49  129372  129375      47  129369  129372      49  129369
  129375      49  129384  129387      47  129381  129384      49  129381  129387
      49  129396  129399      47  129393  129396      49  129393  129399      49
  129408  129411      47  129405  129408      49  129405  129411      49  129420
  129423      47  129417  129420      49  129417  129423      49  129432  129435
      47  129429  129432      49  129429  129435      49  129444  129447      47
  129441  129444      49  129441  129447      49  129456  129459      47  129453
  129456      49  129453  129459      49  129468  129471      47  129465  129468
      49  129465  129471      49  129480  129483      47  129477  129480      49
  129477  129483      49  129492  129495      47  129489  129492      49  129489
  129495      49  129504  129507      47  129501  129504      49  129501  129507
      49  129516  129519      47  129513  129516      49  129513  129519      49
  129528  129531      47  129525  129528      49  129525  129531      49  129540
  129543      47  129537  129540      49  129537  129543      49  129552  129555
      47  129549  129552      49  129549  129555      49  129564  129567      47
  129561  129564      49  129561  129567      49  129576  129579      47  129573
  129576      49  129573  129579      49  129588  129591      47  129585  129588
      49  129585  129591      49  129600  129603      47  129597  129600      49
  129597  129603      49  129612  129615      47  129609  129612      49  129609
  129615      49  129624  129627      47  129621  129624      49  129621  129627
      49  129636  129639      47  129633  129636      49  129633  129639      49
  129648  129651      47  129645  129648      49  129645  129651      49  129660
  129663      47  129657  129660      49  129657  129663      49  129672  129675
      47  129669  129672      49  129669  129675      49  129684  129687      47
  129681  129684      49  129681  129687      49  129696  129699      47  129693
  129696      49  129693  129699      49  129708  129711      47  129705  129708
      49  129705  129711      49  129720  129723      47  129717  129720      49
  129717  129723      49  129732  129735      47  129729  129732      49  129729
  129735      49  129744  129747      47  129741  129744      49  129741  129747
      49  129756  129759      47  129753  129756      49  129753  129759      49
  129768  129771      47  129765  129768      49  129765  129771      49  129780
  129783      47  129777  129780      49  129777  129783      49  129792  129795
      47  129789  129792      49  129789  129795      49  129804  129807      47
  129801  129804      49  129801  129807      49  129816  129819      47  129813
  129816      49  129813  129819      49  129828  129831      47  129825  129828
      49  129825  129831      49  129840  129843      47  129837  129840      49
  129837  129843      49  129852  129855      47  129849  129852      49  129849
  129855      49  129864  129867      47  129861  129864      49  129861  129867
      49  129876  129879      47  129873  129876      49  129873  129879      49
  129888  129891      47  129885  129888      49  129885  129891      49  129900
  129903      47  129897  129900      49  129897  129903      49  129912  129915
      47  129909  129912      49  129909  129915      49  129924  129927      47
  129921  129924      49  129921  129927      49  129936  129939      47  129933
  129936      49  129933  129939      49  129948  129951      47  129945  129948
      49  129945  129951      49  129960  129963      47  129957  129960      49
  129957  129963      49  129972  129975      47  129969  129972      49  129969
  129975      49  129984  129987      47  129981  129984      49  129981  129987
      49  129996  129999      47  129993  129996      49  129993  129999      49
  130008  130011      47  130005  130008      49  130005  130011      49  130020
  130023      47  130017  130020      49  130017  130023      49  130032  130035
      47  130029  130032      49  130029  130035      49  130044  130047      47
  130041  130044      49  130041  130047      49  130056  130059      47  130053
  130056      49  130053  130059      49  130068  130071      47  130065  130068
      49  130065  130071      49  130080  130083      47  130077  130080      49
  130077  130083      49  130092  130095      47  130089  130092      49  130089
  130095      49  130104  130107      47  130101  130104      49  130101  130107
      49  130116  130119      47  130113  130116      49  130113  130119      49
  130128  130131      47  130125  130128      49  130125  130131      49  130140
  130143      47  130137  130140      49  130137  130143      49  130152  130155
      47  130149  130152      49  130149  130155      49  130164  130167      47
  130161  130164      49  130161  130167      49  130176  130179      47  130173
  130176      49  130173  130179      49  130188  130191      47  130185  130188
      49  130185  130191      49  130200  130203      47  130197  130200      49
  130197  130203      49  130212  130215      47  130209  130212      49  130209
  130215      49  130224  130227      47  130221  130224      49  130221  130227
      49  130236  130239      47  130233  130236      49  130233  130239      49
  130248  130251      47  130245  130248      49  130245  130251      49  130260
  130263      47  130257  130260      49  130257  130263      49  130272  130275
      47  130269  130272      49  130269  130275      49  130284  130287      47
  130281  130284      49  130281  130287      49  130296  130299      47  130293
  130296      49  130293  130299      49  130308  130311      47  130305  130308
      49  130305  130311      49  130320  130323      47  130317  130320      49
  130317  130323      49  130332  130335      47  130329  130332      49  130329
  130335      49  130344  130347      47  130341  130344      49  130341  130347
      49  130356  130359      47  130353  130356      49  130353  130359      49
  130368  130371      47  130365  130368      49  130365  130371      49  130380
  130383      47  130377  130380      49  130377  130383      49  130392  130395
      47  130389  130392      49  130389  130395      49  130404  130407      47
  130401  130404      49  130401  130407      49  130416  130419      47  130413
  130416      49  130413  130419      49  130428  130431      47  130425  130428
      49  130425  130431      49  130440  130443      47  130437  130440      49
  130437  130443      49  130452  130455      47  130449  130452      49  130449
  130455      49  130464  130467      47  130461  130464      49  130461  130467
      49  130476  130479      47  130473  130476      49  130473  130479      49
  130488  130491      47  130485  130488      49  130485  130491      49  130500
  130503      47  130497  130500      49  130497  130503      49  130512  130515
      47  130509  130512      49  130509  130515      49  130524  130527      47
  130521  130524      49  130521  130527      49  130536  130539      47  130533
  130536      49  130533  130539      49  130548  130551      47  130545  130548
      49  130545  130551      49  130560  130563      47  130557  130560      49
  130557  130563      49  130572  130575      47  130569  130572      49  130569
  130575      49  130584  130587      47  130581  130584      49  130581  130587
      49  130596  130599      47  130593  130596      49  130593  130599      49
  130608  130611      47  130605  130608      49  130605  130611      49  130620
  130623      47  130617  130620      49  130617  130623      49  130632  130635
      47  130629  130632      49  130629  130635      49  130644  130647      47
  130641  130644      49  130641  130647      49  130656  130659      47  130653
  130656      49  130653  130659      49  130668  130671      47  130665  130668
      49  130665  130671      49  130680  130683      47  130677  130680      49
  130677  130683      49  130692  130695      47  130689  130692      49  130689
  130695      49  130704  130707      47  130701  130704      49  130701  130707
      49  130716  130719      47  130713  130716      49  130713  130719      49
  130728  130731      47  130725  130728      49  130725  130731      49  130740
  130743      47  130737  130740      49  130737  130743      49  130752  130755
      47  130749  130752      49  130749  130755      49  130764  130767      47
  130761  130764      49  130761  130767      49  130776  130779      47  130773
  130776      49  130773  130779      49  130788  130791      47  130785  130788
      49  130785  130791      49  130800  130803      47  130797  130800      49
  130797  130803      49  130812  130815      47  130809  130812      49  130809
  130815      49  130824  130827      47  130821  130824      49  130821  130827
      49  130836  130839      47  130833  130836      49  130833  130839      49
  130848  130851      47  130845  130848      49  130845  130851      49  130860
  130863      47  130857  130860      49  130857  130863      49  130872  130875
      47  130869  130872      49  130869  130875      49  130884  130887      47
  130881  130884      49  130881  130887      49  130896  130899      47  130893
  130896      49  130893  130899      49  130908  130911      47  130905  130908
      49  130905  130911      49  130920  130923      47  130917  130920      49
  130917  130923      49  130932  130935      47  130929  130932      49  130929
  130935      49  130944  130947      47  130941  130944      49  130941  130947
      49  130956  130959      47  130953  130956      49  130953  130959      49
  130968  130971      47  130965  130968      49  130965  130971      49  130980
  130983      47  130977  130980      49  130977  130983      49  130992  130995
      47  130989  130992      49  130989  130995      49  131004  131007      47
  131001  131004      49  131001  131007      49  131016  131019      47  131013
  131016      49  131013  131019      49  131028  131031      47  131025  131028
      49  131025  131031      49  131040  131043      47  131037  131040      49
  131037  131043      49  131052  131055      47  131049  131052      49  131049
  131055      49  131064  131067      47  131061  131064      49  131061  131067
      49  131076  131079      47  131073  131076      49  131073  131079      49
  131088  131091      47  131085  131088      49  131085  131091      49  131100
  131103      47  131097  131100      49  131097  131103      49  131112  131115
      47  131109  131112      49  131109  131115      49  131124  131127      47
  131121  131124      49  131121  131127      49  131136  131139      47  131133
  131136      49  131133  131139      49  131148  131151      47  131145  131148
      49  131145  131151      49  131160  131163      47  131157  131160      49
  131157  131163      49  131172  131175      47  131169  131172      49  131169
  131175      49  131184  131187      47  131181  131184      49  131181  131187
      49  131196  131199      47  131193  131196      49  131193  131199      49
  131208  131211      47  131205  131208      49  131205  131211      49  131220
  131223      47  131217  131220      49  131217  131223      49  131232  131235
      47  131229  131232      49  131229  131235      49  131244  131247      47
  131241  131244      49  131241  131247      49  131256  131259      47  131253
  131256      49  131253  131259      49  131268  131271      47  131265  131268
      49  131265  131271      49  131280  131283      47  131277  131280      49
  131277  131283      49  131292  131295      47  131289  131292      49  131289
  131295      49  131304  131307      47  131301  131304      49  131301  131307
      49  131316  131319      47  131313  131316      49  131313  131319      49
  131328  131331      47  131325  131328      49  131325  131331      49  131340
  131343      47  131337  131340      49  131337  131343      49  131352  131355
      47  131349  131352      49  131349  131355      49  131364  131367      47
  131361  131364      49  131361  131367      49  131376  131379      47  131373
  131376      49  131373  131379      49  131388  131391      47  131385  131388
      49  131385  131391      49  131400  131403      47  131397  131400      49
  131397  131403      49  131412  131415      47  131409  131412      49  131409
  131415      49  131424  131427      47  131421  131424      49  131421  131427
      49  131436  131439      47  131433  131436      49  131433  131439      49
  131448  131451      47  131445  131448      49  131445  131451      49  131460
  131463      47  131457  131460      49  131457  131463      49  131472  131475
      47  131469  131472      49  131469  131475      49  131484  131487      47
  131481  131484      49  131481  131487      49  131496  131499      47  131493
  131496      49  131493  131499      49  131508  131511      47  131505  131508
      49  131505  131511      49  131520  131523      47  131517  131520      49
  131517  131523      49  131532  131535      47  131529  131532      49  131529
  131535      49  131544  131547      47  131541  131544      49  131541  131547
      49  131556  131559      47  131553  131556      49  131553  131559      49
  131568  131571      47  131565  131568      49  131565  131571      49  131580
  131583      47  131577  131580      49  131577  131583      49  131592  131595
      47  131589  131592      49  131589  131595      49  131604  131607      47
  131601  131604      49  131601  131607      49  131616  131619      47  131613
  131616      49  131613  131619      49  131628  131631      47  131625  131628
      49  131625  131631      49  131640  131643      47  131637  131640      49
  131637  131643      49  131652  131655      47  131649  131652      49  131649
  131655      49  131664  131667      47  131661  131664      49  131661  131667
      49  131676  131679      47  131673  131676      49  131673  131679      49
  131688  131691      47  131685  131688      49  131685  131691      49  131700
  131703      47  131697  131700      49  131697  131703      49  131712  131715
      47  131709  131712      49  131709  131715      49  131724  131727      47
  131721  131724      49  131721  131727      49  131736  131739      47  131733
  131736      49  131733  131739      49  131748  131751      47  131745  131748
      49  131745  131751      49  131760  131763      47  131757  131760      49
  131757  131763      49  131772  131775      47  131769  131772      49  131769
  131775      49  131784  131787      47  131781  131784      49  131781  131787
      49  131796  131799      47  131793  131796      49  131793  131799      49
  131808  131811      47  131805  131808      49  131805  131811      49  131820
  131823      47  131817  131820      49  131817  131823      49  131832  131835
      47  131829  131832      49  131829  131835      49  131844  131847      47
  131841  131844      49  131841  131847      49  131856  131859      47  131853
  131856      49  131853  131859      49  131868  131871      47  131865  131868
      49  131865  131871      49  131880  131883      47  131877  131880      49
  131877  131883      49  131892  131895      47  131889  131892      49  131889
  131895      49  131904  131907      47  131901  131904      49  131901  131907
      49  131916  131919      47  131913  131916      49  131913  131919      49
  131928  131931      47  131925  131928      49  131925  131931      49  131940
  131943      47  131937  131940      49  131937  131943      49  131952  131955
      47  131949  131952      49  131949  131955      49  131964  131967      47
  131961  131964      49  131961  131967      49  131976  131979      47  131973
  131976      49  131973  131979      49  131988  131991      47  131985  131988
      49  131985  131991      49  132000  132003      47  131997  132000      49
  131997  132003      49  132012  132015      47  132009  132012      49  132009
  132015      49  132024  132027      47  132021  132024      49  132021  132027
      49  132036  132039      47  132033  132036      49  132033  132039      49
  132048  132051      47  132045  132048      49  132045  132051      49  132060
  132063      47  132057  132060      49  132057  132063      49  132072  132075
      47  132069  132072      49  132069  132075      49  132084  132087      47
  132081  132084      49  132081  132087      49  132096  132099      47  132093
  132096      49  132093  132099      49  132108  132111      47  132105  132108
      49  132105  132111      49  132120  132123      47  132117  132120      49
  132117  132123      49  132132  132135      47  132129  132132      49  132129
  132135      49  132144  132147      47  132141  132144      49  132141  132147
      49  132156  132159      47  132153  132156      49  132153  132159      49
  132168  132171      47  132165  132168      49  132165  132171      49  132180
  132183      47  132177  132180      49  132177  132183      49  132192  132195
      47  132189  132192      49  132189  132195      49  132204  132207      47
  132201  132204      49  132201  132207      49  132216  132219      47  132213
  132216      49  132213  132219      49  132228  132231      47  132225  132228
      49  132225  132231      49  132240  132243      47  132237  132240      49
  132237  132243      49  132252  132255      47  132249  132252      49  132249
  132255      49  132264  132267      47  132261  132264      49  132261  132267
      49  132276  132279      47  132273  132276      49  132273  132279      49
  132288  132291      47  132285  132288      49  132285  132291      49  132300
  132303      47  132297  132300      49  132297  132303      49  132312  132315
      47  132309  132312      49  132309  132315      49  132324  132327      47
  132321  132324      49  132321  132327      49  132336  132339      47  132333
  132336      49  132333  132339      49  132348  132351      47  132345  132348
      49  132345  132351      49  132360  132363      47  132357  132360      49
  132357  132363      49  132372  132375      47  132369  132372      49  132369
  132375      49  132384  132387      47  132381  132384      49  132381  132387
      49  132396  132399      47  132393  132396      49  132393  132399      49
  132408  132411      47  132405  132408      49  132405  132411      49  132420
  132423      47  132417  132420      49  132417  132423      49  132432  132435
      47  132429  132432      49  132429  132435      49  132444  132447      47
  132441  132444      49  132441  132447      49  132456  132459      47  132453
  132456      49  132453  132459      49  132468  132471      47  132465  132468
      49  132465  132471      49  132480  132483      47  132477  132480      49
  132477  132483      49  132492  132495      47  132489  132492      49  132489
  132495      49  132504  132507      47  132501  132504      49  132501  132507
      49  132516  132519      47  132513  132516      49  132513  132519      49
  132528  132531      47  132525  132528      49  132525  132531      49  132540
  132543      47  132537  132540      49  132537  132543      49  132552  132555
      47  132549  132552      49  132549  132555      49  132564  132567      47
  132561  132564      49  132561  132567      49  132576  132579      47  132573
  132576      49  132573  132579      49  132588  132591      47  132585  132588
      49  132585  132591      49  132600  132603      47  132597  132600      49
  132597  132603      49  132612  132615      47  132609  132612      49  132609
  132615      49  132624  132627      47  132621  132624      49  132621  132627
      49  132636  132639      47  132633  132636      49  132633  132639      49
  132648  132651      47  132645  132648      49  132645  132651      49  132660
  132663      47  132657  132660      49  132657  132663      49  132672  132675
      47  132669  132672      49  132669  132675      49  132684  132687      47
  132681  132684      49  132681  132687      49  132696  132699      47  132693
  132696      49  132693  132699      49  132708  132711      47  132705  132708
      49  132705  132711      49  132720  132723      47  132717  132720      49
  132717  132723      49  132732  132735      47  132729  132732      49  132729
  132735      49  132744  132747      47  132741  132744      49  132741  132747
      49  132756  132759      47  132753  132756      49  132753  132759      49
  132768  132771      47  132765  132768      49  132765  132771      49  132780
  132783      47  132777  132780      49  132777  132783      49  132792  132795
      47  132789  132792      49  132789  132795      49  132804  132807      47
  132801  132804      49  132801  132807      49  132816  132819      47  132813
  132816      49  132813  132819      49  132828  132831      47  132825  132828
      49  132825  132831      49  132840  132843      47  132837  132840      49
  132837  132843      49  132852  132855      47  132849  132852      49  132849
  132855      49  132864  132867      47  132861  132864      49  132861  132867
      49  132876  132879      47  132873  132876      49  132873  132879      49
  132888  132891      47  132885  132888      49  132885  132891      49  132900
  132903      47  132897  132900      49  132897  132903      49  132912  132915
      47  132909  132912      49  132909  132915      49  132924  132927      47
  132921  132924      49  132921  132927      49  132936  132939      47  132933
  132936      49  132933  132939      49  132948  132951      47  132945  132948
      49  132945  132951      49  132960  132963      47  132957  132960      49
  132957  132963      49  132972  132975      47  132969  132972      49  132969
  132975      49  132984  132987      47  132981  132984      49  132981  132987
      49  132996  132999      47  132993  132996      49  132993  132999      49
  133008  133011      47  133005  133008      49  133005  133011      49  133020
  133023      47  133017  133020      49  133017  133023      49  133032  133035
      47  133029  133032      49  133029  133035      49  133044  133047      47
  133041  133044      49  133041  133047      49  133056  133059      47  133053
  133056      49  133053  133059      49  133068  133071      47  133065  133068
      49  133065  133071      49  133080  133083      47  133077  133080      49
  133077  133083      49  133092  133095      47  133089  133092      49  133089
  133095      49  133104  133107      47  133101  133104      49  133101  133107
      49  133116  133119      47  133113  133116      49  133113  133119      49
  133128  133131      47  133125  133128      49  133125  133131      49  133140
  133143      47  133137  133140      49  133137  133143      49  133152  133155
      47  133149  133152      49  133149  133155      49  133164  133167      47
  133161  133164      49  133161  133167      49  133176  133179      47  133173
  133176      49  133173  133179      49  133188  133191      47  133185  133188
      49  133185  133191      49  133200  133203      47  133197  133200      49
  133197  133203      49  133212  133215      47  133209  133212      49  133209
  133215      49  133224  133227      47  133221  133224      49  133221  133227
      49  133236  133239      47  133233  133236      49  133233  133239      49
  133248  133251      47  133245  133248      49  133245  133251      49  133260
  133263      47  133257  133260      49  133257  133263      49  133272  133275
      47  133269  133272      49  133269  133275      49  133284  133287      47
  133281  133284      49  133281  133287      49  133296  133299      47  133293
  133296      49  133293  133299      49  133308  133311      47  133305  133308
      49  133305  133311      49  133320  133323      47  133317  133320      49
  133317  133323      49  133332  133335      47  133329  133332      49  133329
  133335      49  133344  133347      47  133341  133344      49  133341  133347
      49  133356  133359      47  133353  133356      49  133353  133359      49
  133368  133371      47  133365  133368      49  133365  133371      49  133380
  133383      47  133377  133380      49  133377  133383      49  133392  133395
      47  133389  133392      49  133389  133395      49  133404  133407      47
  133401  133404      49  133401  133407      49  133416  133419      47  133413
  133416      49  133413  133419      49  133428  133431      47  133425  133428
      49  133425  133431      49  133440  133443      47  133437  133440      49
  133437  133443      49  133452  133455      47  133449  133452      49  133449
  133455      49  133464  133467      47  133461  133464      49  133461  133467
      49  133476  133479      47  133473  133476      49  133473  133479      49
  133488  133491      47  133485  133488      49  133485  133491      49  133500
  133503      47  133497  133500      49  133497  133503      49  133512  133515
      47  133509  133512      49  133509  133515      49  133524  133527      47
  133521  133524      49  133521  133527      49  133536  133539      47  133533
  133536      49  133533  133539      49  133548  133551      47  133545  133548
      49  133545  133551      49  133560  133563      47  133557  133560      49
  133557  133563      49  133572  133575      47  133569  133572      49  133569
  133575      49  133584  133587      47  133581  133584      49  133581  133587
      49  133596  133599      47  133593  133596      49  133593  133599      49
  133608  133611      47  133605  133608      49  133605  133611      49  133620
  133623      47  133617  133620      49  133617  133623      49  133632  133635
      47  133629  133632      49  133629  133635      49  133644  133647      47
  133641  133644      49  133641  133647      49  133656  133659      47  133653
  133656      49  133653  133659      49  133668  133671      47  133665  133668
      49  133665  133671      49  133680  133683      47  133677  133680      49
  133677  133683      49  133692  133695      47  133689  133692      49  133689
  133695      49  133704  133707      47  133701  133704      49  133701  133707
      49  133716  133719      47  133713  133716      49  133713  133719      49
  133728  133731      47  133725  133728      49  133725  133731      49  133740
  133743      47  133737  133740      49  133737  133743      49  133752  133755
      47  133749  133752      49  133749  133755      49  133764  133767      47
  133761  133764      49  133761  133767      49  133776  133779      47  133773
  133776      49  133773  133779      49  133788  133791      47  133785  133788
      49  133785  133791      49  133800  133803      47  133797  133800      49
  133797  133803      49  133812  133815      47  133809  133812      49  133809
  133815      49  133824  133827      47  133821  133824      49  133821  133827
      49  133836  133839      47  133833  133836      49  133833  133839      49
  133848  133851      47  133845  133848      49  133845  133851      49  133860
  133863      47  133857  133860      49  133857  133863      49  133872  133875
      47  133869  133872      49  133869  133875      49  133884  133887      47
  133881  133884      49  133881  133887      49  133896  133899      47  133893
  133896      49  133893  133899      49  133908  133911      47  133905  133908
      49  133905  133911      49  133920  133923      47  133917  133920      49
  133917  133923      49  133932  133935      47  133929  133932      49  133929
  133935      49  133944  133947      47  133941  133944      49  133941  133947
      49  133956  133959      47  133953  133956      49  133953  133959      49
  133968  133971      47  133965  133968      49  133965  133971      49  133980
  133983      47  133977  133980      49  133977  133983      49  133992  133995
      47  133989  133992      49  133989  133995      49  134004  134007      47
  134001  134004      49  134001  134007      49  134016  134019      47  134013
  134016      49  134013  134019      49  134028  134031      47  134025  134028
      49  134025  134031      49  134040  134043      47  134037  134040      49
  134037  134043      49  134052  134055      47  134049  134052      49  134049
  134055      49  134064  134067      47  134061  134064      49  134061  134067
      49  134076  134079      47  134073  134076      49  134073  134079      49
  134088  134091      47  134085  134088      49  134085  134091      49  134100
  134103      47  134097  134100      49  134097  134103      49  134112  134115
      47  134109  134112      49  134109  134115      49  134124  134127      47
  134121  134124      49  134121  134127      49  134136  134139      47  134133
  134136      49  134133  134139      49  134148  134151      47  134145  134148
      49  134145  134151      49  134160  134163      47  134157  134160      49
  134157  134163      49  134172  134175      47  134169  134172      49  134169
  134175      49  134184  134187      47  134181  134184      49  134181  134187
      49  134196  134199      47  134193  134196      49  134193  134199      49
  134208  134211      47  134205  134208      49  134205  134211      49  134220
  134223      47  134217  134220      49  134217  134223      49  134232  134235
      47  134229  134232      49  134229  134235      49  134244  134247      47
  134241  134244      49  134241  134247      49  134256  134259      47  134253
  134256      49  134253  134259      49  134268  134271      47  134265  134268
      49  134265  134271      49  134280  134283      47  134277  134280      49
  134277  134283      49  134292  134295      47  134289  134292      49  134289
  134295      49  134304  134307      47  134301  134304      49  134301  134307
      49  134316  134319      47  134313  134316      49  134313  134319      49
  134328  134331      47  134325  134328      49  134325  134331      49  134340
  134343      47  134337  134340      49  134337  134343      49  134352  134355
      47  134349  134352      49  134349  134355      49  134364  134367      47
  134361  134364      49  134361  134367      49  134376  134379      47  134373
  134376      49  134373  134379      49  134388  134391      47  134385  134388
      49  134385  134391      49  134400  134403      47  134397  134400      49
  134397  134403      49  134412  134415      47  134409  134412      49  134409
  134415      49  134424  134427      47  134421  134424      49  134421  134427
      49  134436  134439      47  134433  134436      49  134433  134439      49
  134448  134451      47  134445  134448      49  134445  134451      49  134460
  134463      47  134457  134460      49  134457  134463      49  134472  134475
      47  134469  134472      49  134469  134475      49  134484  134487      47
  134481  134484      49  134481  134487      49  134496  134499      47  134493
  134496      49  134493  134499      49  134508  134511      47  134505  134508
      49  134505  134511      49  134520  134523      47  134517  134520      49
  134517  134523      49  134532  134535      47  134529  134532      49  134529
  134535      49  134544  134547      47  134541  134544      49  134541  134547
      49  134556  134559      47  134553  134556      49  134553  134559      49
  134568  134571      47  134565  134568      49  134565  134571      49  134580
  134583      47  134577  134580      49  134577  134583      49  134592  134595
      47  134589  134592      49  134589  134595      49  134604  134607      47
  134601  134604      49  134601  134607      49  134616  134619      47  134613
  134616      49  134613  134619      49  134628  134631      47  134625  134628
      49  134625  134631      49  134640  134643      47  134637  134640      49
  134637  134643      49  134652  134655      47  134649  134652      49  134649
  134655      49  134664  134667      47  134661  134664      49  134661  134667
      49  134676  134679      47  134673  134676      49  134673  134679      49
  134688  134691      47  134685  134688      49  134685  134691      49  134700
  134703      47  134697  134700      49  134697  134703      49  134712  134715
      47  134709  134712      49  134709  134715      49  134724  134727      47
  134721  134724      49  134721  134727      49  134736  134739      47  134733
  134736      49  134733  134739      49  134748  134751      47  134745  134748
      49  134745  134751      49  134760  134763      47  134757  134760      49
  134757  134763      49  134772  134775      47  134769  134772      49  134769
  134775      49  134784  134787      47  134781  134784      49  134781  134787
      49  134796  134799      47  134793  134796      49  134793  134799      49
  134808  134811      47  134805  134808      49  134805  134811      49  134820
  134823      47  134817  134820      49  134817  134823      49  134832  134835
      47  134829  134832      49  134829  134835      49  134844  134847      47
  134841  134844      49  134841  134847      49  134856  134859      47  134853
  134856      49  134853  134859      49  134868  134871      47  134865  134868
      49  134865  134871      49  134880  134883      47  134877  134880      49
  134877  134883      49  134892  134895      47  134889  134892      49  134889
  134895      49  134904  134907      47  134901  134904      49  134901  134907
      49  134916  134919      47  134913  134916      49  134913  134919      49
  134928  134931      47  134925  134928      49  134925  134931      49  134940
  134943      47  134937  134940      49  134937  134943      49  134952  134955
      47  134949  134952      49  134949  134955      49  134964  134967      47
  134961  134964      49  134961  134967      49  134976  134979      47  134973
  134976      49  134973  134979      49  134988  134991      47  134985  134988
      49  134985  134991      49  135000  135003      47  134997  135000      49
  134997  135003      49  135012  135015      47  135009  135012      49  135009
  135015      49  135024  135027      47  135021  135024      49  135021  135027
      49  135036  135039      47  135033  135036      49  135033  135039      49
  135048  135051      47  135045  135048      49  135045  135051      49  135060
  135063      47  135057  135060      49  135057  135063      49  135072  135075
      47  135069  135072      49  135069  135075      49  135084  135087      47
  135081  135084      49  135081  135087      49  135096  135099      47  135093
  135096      49  135093  135099      49  135108  135111      47  135105  135108
      49  135105  135111      49  135120  135123      47  135117  135120      49
  135117  135123      49  135132  135135      47  135129  135132      49  135129
  135135      49  135144  135147      47  135141  135144      49  135141  135147
      49  135156  135159      47  135153  135156      49  135153  135159      49
  135168  135171      47  135165  135168      49  135165  135171      49  135180
  135183      47  135177  135180      49  135177  135183      49  135192  135195
      47  135189  135192      49  135189  135195      49  135204  135207      47
  135201  135204      49  135201  135207      49  135216  135219      47  135213
  135216      49  135213  135219      49  135228  135231      47  135225  135228
      49  135225  135231      49  135240  135243      47  135237  135240      49
  135237  135243      49  135252  135255      47  135249  135252      49  135249
  135255      49  135264  135267      47  135261  135264      49  135261  135267
      49  135276  135279      47  135273  135276      49  135273  135279      49
  135288  135291      47  135285  135288      49  135285  135291      49  135300
  135303      47  135297  135300      49  135297  135303      49  135312  135315
      47  135309  135312      49  135309  135315      49  135324  135327      47
  135321  135324      49  135321  135327      49  135336  135339      47  135333
  135336      49  135333  135339      49  135348  135351      47  135345  135348
      49  135345  135351      49  135360  135363      47  135357  135360      49
  135357  135363      49  135372  135375      47  135369  135372      49  135369
  135375      49  135384  135387      47  135381  135384      49  135381  135387
      49  135396  135399      47  135393  135396      49  135393  135399      49
  135408  135411      47  135405  135408      49  135405  135411      49  135420
  135423      47  135417  135420      49  135417  135423      49  135432  135435
      47  135429  135432      49  135429  135435      49  135444  135447      47
  135441  135444      49  135441  135447      49  135456  135459      47  135453
  135456      49  135453  135459      49  135468  135471      47  135465  135468
      49  135465  135471      49  135480  135483      47  135477  135480      49
  135477  135483      49  135492  135495      47  135489  135492      49  135489
  135495      49  135504  135507      47  135501  135504      49  135501  135507
      49  135516  135519      47  135513  135516      49  135513  135519      49
  135528  135531      47  135525  135528      49  135525  135531      49  135540
  135543      47  135537  135540      49  135537  135543      49  135552  135555
      47  135549  135552      49  135549  135555      49  135564  135567      47
  135561  135564      49  135561  135567      49  135576  135579      47  135573
  135576      49  135573  135579      49  135588  135591      47  135585  135588
      49  135585  135591      49  135600  135603      47  135597  135600      49
  135597  135603      49  135612  135615      47  135609  135612      49  135609
  135615      49  135624  135627      47  135621  135624      49  135621  135627
      49  135636  135639      47  135633  135636      49  135633  135639      49
  135648  135651      47  135645  135648      49  135645  135651      49  135660
  135663      47  135657  135660      49  135657  135663      49  135672  135675
      47  135669  135672      49  135669  135675      49  135684  135687      47
  135681  135684      49  135681  135687      49  135696  135699      47  135693
  135696      49  135693  135699      49  135708  135711      47  135705  135708
      49  135705  135711      49  135720  135723      47  135717  135720      49
  135717  135723      49  135732  135735      47  135729  135732      49  135729
  135735      49  135744  135747      47  135741  135744      49  135741  135747
      49  135756  135759      47  135753  135756      49  135753  135759      49
  135768  135771      47  135765  135768      49  135765  135771      49  135780
  135783      47  135777  135780      49  135777  135783      49  135792  135795
      47  135789  135792      49  135789  135795      49  135804  135807      47
  135801  135804      49  135801  135807      49  135816  135819      47  135813
  135816      49  135813  135819      49  135828  135831      47  135825  135828
      49  135825  135831      49  135840  135843      47  135837  135840      49
  135837  135843      49  135852  135855      47  135849  135852      49  135849
  135855      49  135864  135867      47  135861  135864      49  135861  135867
      49  135876  135879      47  135873  135876      49  135873  135879      49
  135888  135891      47  135885  135888      49  135885  135891      49  135900
  135903      47  135897  135900      49  135897  135903      49  135912  135915
      47  135909  135912      49  135909  135915      49  135924  135927      47
  135921  135924      49  135921  135927      49  135936  135939      47  135933
  135936      49  135933  135939      49  135948  135951      47  135945  135948
      49  135945  135951      49  135960  135963      47  135957  135960      49
  135957  135963      49  135972  135975      47  135969  135972      49  135969
  135975      49  135984  135987      47  135981  135984      49  135981  135987
      49  135996  135999      47  135993  135996      49  135993  135999      49
  136008  136011      47  136005  136008      49  136005  136011      49  136020
  136023      47  136017  136020      49  136017  136023      49  136032  136035
      47  136029  136032      49  136029  136035      49  136044  136047      47
  136041  136044      49  136041  136047      49  136056  136059      47  136053
  136056      49  136053  136059      49  136068  136071      47  136065  136068
      49  136065  136071      49  136080  136083      47  136077  136080      49
  136077  136083      49  136092  136095      47  136089  136092      49  136089
  136095      49  136104  136107      47  136101  136104      49  136101  136107
      49  136116  136119      47  136113  136116      49  136113  136119      49
  136128  136131      47  136125  136128      49  136125  136131      49  136140
  136143      47  136137  136140      49  136137  136143      49  136152  136155
      47  136149  136152      49  136149  136155      49  136164  136167      47
  136161  136164      49  136161  136167      49  136176  136179      47  136173
  136176      49  136173  136179      49  136188  136191      47  136185  136188
      49  136185  136191      49  136200  136203      47  136197  136200      49
  136197  136203      49  136212  136215      47  136209  136212      49  136209
  136215      49  136224  136227      47  136221  136224      49  136221  136227
      49  136236  136239      47  136233  136236      49  136233  136239      49
  136248  136251      47  136245  136248      49  136245  136251      49  136260
  136263      47  136257  136260      49  136257  136263      49  136272  136275
      47  136269  136272      49  136269  136275      49  136284  136287      47
  136281  136284      49  136281  136287      49  136296  136299      47  136293
  136296      49  136293  136299      49  136308  136311      47  136305  136308
      49  136305  136311      49  136320  136323      47  136317  136320      49
  136317  136323      49  136332  136335      47  136329  136332      49  136329
  136335      49  136344  136347      47  136341  136344      49  136341  136347
      49  136356  136359      47  136353  136356      49  136353  136359      49
  136368  136371      47  136365  136368      49  136365  136371      49  136380
  136383      47  136377  136380      49  136377  136383      49  136392  136395
      47  136389  136392      49  136389  136395      49  136404  136407      47
  136401  136404      49  136401  136407      49  136416  136419      47  136413
  136416      49  136413  136419      49  136428  136431      47  136425  136428
      49  136425  136431      49  136440  136443      47  136437  136440      49
  136437  136443      49  136452  136455      47  136449  136452      49  136449
  136455      49  136464  136467      47  136461  136464      49  136461  136467
      49  136476  136479      47  136473  136476      49  136473  136479      49
  136488  136491      47  136485  136488      49  136485  136491      49  136500
  136503      47  136497  136500      49  136497  136503      49  136512  136515
      47  136509  136512      49  136509  136515      49  136524  136527      47
  136521  136524      49  136521  136527      49  136536  136539      47  136533
  136536      49  136533  136539      49  136548  136551      47  136545  136548
      49  136545  136551      49  136560  136563      47  136557  136560      49
  136557  136563      49  136572  136575      47  136569  136572      49  136569
  136575      49  136584  136587      47  136581  136584      49  136581  136587
      49  136596  136599      47  136593  136596      49  136593  136599      49
  136608  136611      47  136605  136608      49  136605  136611      49  136620
  136623      47  136617  136620      49  136617  136623      49  136632  136635
      47  136629  136632      49  136629  136635      49  136644  136647      47
  136641  136644      49  136641  136647      49  136656  136659      47  136653
  136656      49  136653  136659      49  136668  136671      47  136665  136668
      49  136665  136671      49  136680  136683      47  136677  136680      49
  136677  136683      49  136692  136695      47  136689  136692      49  136689
  136695      49  136704  136707      47  136701  136704      49  136701  136707
      49  136716  136719      47  136713  136716      49  136713  136719      49
  136728  136731      47  136725  136728      49  136725  136731      49  136740
  136743      47  136737  136740      49  136737  136743      49  136752  136755
      47  136749  136752      49  136749  136755      49  136764  136767      47
  136761  136764      49  136761  136767      49  136776  136779      47  136773
  136776      49  136773  136779      49  136788  136791      47  136785  136788
      49  136785  136791      49  136800  136803      47  136797  136800      49
  136797  136803      49  136812  136815      47  136809  136812      49  136809
  136815      49  136824  136827      47  136821  136824      49  136821  136827
      49  136836  136839      47  136833  136836      49  136833  136839      49
  136848  136851      47  136845  136848      49  136845  136851      49  136860
  136863      47  136857  136860      49  136857  136863      49  136872  136875
      47  136869  136872      49  136869  136875      49  136884  136887      47
  136881  136884      49  136881  136887      49  136896  136899      47  136893
  136896      49  136893  136899      49  136908  136911      47  136905  136908
      49  136905  136911      49  136920  136923      47  136917  136920      49
  136917  136923      49  136932  136935      47  136929  136932      49  136929
  136935      49  136944  136947      47  136941  136944      49  136941  136947
      49  136956  136959      47  136953  136956      49  136953  136959      49
  136968  136971      47  136965  136968      49  136965  136971      49  136980
  136983      47  136977  136980      49  136977  136983      49  136992  136995
      47  136989  136992      49  136989  136995      49  137004  137007      47
  137001  137004      49  137001  137007      49  137016  137019      47  137013
  137016      49  137013  137019      49  137028  137031      47  137025  137028
      49  137025  137031      49  137040  137043      47  137037  137040      49
  137037  137043      49  137052  137055      47  137049  137052      49  137049
  137055      49  137064  137067      47  137061  137064      49  137061  137067
      49  137076  137079      47  137073  137076      49  137073  137079      49
  137088  137091      47  137085  137088      49  137085  137091      49  137100
  137103      47  137097  137100      49  137097  137103      49  137112  137115
      47  137109  137112      49  137109  137115      49  137124  137127      47
  137121  137124      49  137121  137127      49  137136  137139      47  137133
  137136      49  137133  137139      49  137148  137151      47  137145  137148
      49  137145  137151      49  137160  137163      47  137157  137160      49
  137157  137163      49  137172  137175      47  137169  137172      49  137169
  137175      49  137184  137187      47  137181  137184      49  137181  137187
      49  137196  137199      47  137193  137196      49  137193  137199      49
  137208  137211      47  137205  137208      49  137205  137211      49  137220
  137223      47  137217  137220      49  137217  137223      49  137232  137235
      47  137229  137232      49  137229  137235      49  137244  137247      47
  137241  137244      49  137241  137247      49  137256  137259      47  137253
  137256      49  137253  137259      49  137268  137271      47  137265  137268
      49  137265  137271      49  137280  137283      47  137277  137280      49
  137277  137283      49  137292  137295      47  137289  137292      49  137289
  137295      49  137304  137307      47  137301  137304      49  137301  137307
      49  137316  137319      47  137313  137316      49  137313  137319      49
  137328  137331      47  137325  137328      49  137325  137331      49  137340
  137343      47  137337  137340      49  137337  137343      49  137352  137355
      47  137349  137352      49  137349  137355      49  137364  137367      47
  137361  137364      49  137361  137367      49  137376  137379      47  137373
  137376      49  137373  137379      49  137388  137391      47  137385  137388
      49  137385  137391      49  137400  137403      47  137397  137400      49
  137397  137403      49  137412  137415      47  137409  137412      49  137409
  137415      49  137424  137427      47  137421  137424      49  137421  137427
      49  137436  137439      47  137433  137436      49  137433  137439      49
  137448  137451      47  137445  137448      49  137445  137451      49  137460
  137463      47  137457  137460      49  137457  137463      49  137472  137475
      47  137469  137472      49  137469  137475      49  137484  137487      47
  137481  137484      49  137481  137487      49  137496  137499      47  137493
  137496      49  137493  137499      49  137508  137511      47  137505  137508
      49  137505  137511      49  137520  137523      47  137517  137520      49
  137517  137523      49  137532  137535      47  137529  137532      49  137529
  137535      49  137544  137547      47  137541  137544      49  137541  137547
      49  137556  137559      47  137553  137556      49  137553  137559      49
  137568  137571      47  137565  137568      49  137565  137571      49  137580
  137583      47  137577  137580      49  137577  137583      49  137592  137595
      47  137589  137592      49  137589  137595      49  137604  137607      47
  137601  137604      49  137601  137607      49  137616  137619      47  137613
  137616      49  137613  137619      49  137628  137631      47  137625  137628
      49  137625  137631      49  137640  137643      47  137637  137640      49
  137637  137643      49  137652  137655      47  137649  137652      49  137649
  137655      49  137664  137667      47  137661  137664      49  137661  137667
      49  137676  137679      47  137673  137676      49  137673  137679      49
  137688  137691      47  137685  137688      49  137685  137691      49  137700
  137703      47  137697  137700      49  137697  137703      49  137712  137715
      47  137709  137712      49  137709  137715      49  137724  137727      47
  137721  137724      49  137721  137727      49  137736  137739      47  137733
  137736      49  137733  137739      49  137748  137751      47  137745  137748
      49  137745  137751      49  137760  137763      47  137757  137760      49
  137757  137763      49  137772  137775      47  137769  137772      49  137769
  137775      49  137784  137787      47  137781  137784      49  137781  137787
      49  137796  137799      47  137793  137796      49  137793  137799      49
  137808  137811      47  137805  137808      49  137805  137811      49  137820
  137823      47  137817  137820      49  137817  137823      49  137832  137835
      47  137829  137832      49  137829  137835      49  137844  137847      47
  137841  137844      49  137841  137847      49  137856  137859      47  137853
  137856      49  137853  137859      49  137868  137871      47  137865  137868
      49  137865  137871      49  137880  137883      47  137877  137880      49
  137877  137883      49  137892  137895      47  137889  137892      49  137889
  137895      49  137904  137907      47  137901  137904      49  137901  137907
      49  137916  137919      47  137913  137916      49  137913  137919      49
  137928  137931      47  137925  137928      49  137925  137931      49  137940
  137943      47  137937  137940      49  137937  137943      49  137952  137955
      47  137949  137952      49  137949  137955      49  137964  137967      47
  137961  137964      49  137961  137967      49  137976  137979      47  137973
  137976      49  137973  137979      49  137988  137991      47  137985  137988
      49  137985  137991      49  138000  138003      47  137997  138000      49
  137997  138003      49  138012  138015      47  138009  138012      49  138009
  138015      49  138024  138027      47  138021  138024      49  138021  138027
      49  138036  138039      47  138033  138036      49  138033  138039      49
  138048  138051      47  138045  138048      49  138045  138051      49  138060
  138063      47  138057  138060      49  138057  138063      49  138072  138075
      47  138069  138072      49  138069  138075      49  138084  138087      47
  138081  138084      49  138081  138087      49  138096  138099      47  138093
  138096      49  138093  138099      49  138108  138111      47  138105  138108
      49  138105  138111      49  138120  138123      47  138117  138120      49
  138117  138123      49  138132  138135      47  138129  138132      49  138129
  138135      49  138144  138147      47  138141  138144      49  138141  138147
      49  138156  138159      47  138153  138156      49  138153  138159      49
  138168  138171      47  138165  138168      49  138165  138171      49  138180
  138183      47  138177  138180      49  138177  138183      49  138192  138195
      47  138189  138192      49  138189  138195      49  138204  138207      47
  138201  138204      49  138201  138207      49  138216  138219      47  138213
  138216      49  138213  138219      49  138228  138231      47  138225  138228
      49  138225  138231      49  138240  138243      47  138237  138240      49
  138237  138243      49  138252  138255      47  138249  138252      49  138249
  138255      49  138264  138267      47  138261  138264      49  138261  138267
      49  138276  138279      47  138273  138276      49  138273  138279      49
  138288  138291      47  138285  138288      49  138285  138291      49  138300
  138303      47  138297  138300      49  138297  138303      49  138312  138315
      47  138309  138312      49  138309  138315      49  138324  138327      47
  138321  138324      49  138321  138327      49  138336  138339      47  138333
  138336      49  138333  138339      49  138348  138351      47  138345  138348
      49  138345  138351      49  138360  138363      47  138357  138360      49
  138357  138363      49  138372  138375      47  138369  138372      49  138369
  138375      49  138384  138387      47  138381  138384      49  138381  138387
      49  138396  138399      47  138393  138396      49  138393  138399      49
  138408  138411      47  138405  138408      49  138405  138411      49  138420
  138423      47  138417  138420      49  138417  138423      49  138432  138435
      47  138429  138432      49  138429  138435      49  138444  138447      47
  138441  138444      49  138441  138447      49  138456  138459      47  138453
  138456      49  138453  138459      49  138468  138471      47  138465  138468
      49  138465  138471      49  138480  138483      47  138477  138480      49
  138477  138483      49  138492  138495      47  138489  138492      49  138489
  138495      49  138504  138507      47  138501  138504      49  138501  138507
      49  138516  138519      47  138513  138516      49  138513  138519      49
  138528  138531      47  138525  138528      49  138525  138531      49  138540
  138543      47  138537  138540      49  138537  138543      49  138552  138555
      47  138549  138552      49  138549  138555      49  138564  138567      47
  138561  138564      49  138561  138567      49  138576  138579      47  138573
  138576      49  138573  138579      49  138588  138591      47  138585  138588
      49  138585  138591      49  138600  138603      47  138597  138600      49
  138597  138603      49  138612  138615      47  138609  138612      49  138609
  138615      49  138624  138627      47  138621  138624      49  138621  138627
      49  138636  138639      47  138633  138636      49  138633  138639      49
  138648  138651      47  138645  138648      49  138645  138651      49  138660
  138663      47  138657  138660      49  138657  138663      49  138672  138675
      47  138669  138672      49  138669  138675      49  138684  138687      47
  138681  138684      49  138681  138687      49  138696  138699      47  138693
  138696      49  138693  138699      49  138708  138711      47  138705  138708
      49  138705  138711      49  138720  138723      47  138717  138720      49
  138717  138723      49  138732  138735      47  138729  138732      49  138729
  138735      49  138744  138747      47  138741  138744      49  138741  138747
      49  138756  138759      47  138753  138756      49  138753  138759      49
  138768  138771      47  138765  138768      49  138765  138771      49  138780
  138783      47  138777  138780      49  138777  138783      49  138792  138795
      47  138789  138792      49  138789  138795      49  138804  138807      47
  138801  138804      49  138801  138807      49  138816  138819      47  138813
  138816      49  138813  138819      49  138828  138831      47  138825  138828
      49  138825  138831      49  138840  138843      47  138837  138840      49
  138837  138843      49  138852  138855      47  138849  138852      49  138849
  138855      49  138864  138867      47  138861  138864      49  138861  138867
      49  138876  138879      47  138873  138876      49  138873  138879      49
  138888  138891      47  138885  138888      49  138885  138891      49  138900
  138903      47  138897  138900      49  138897  138903      49  138912  138915
      47  138909  138912      49  138909  138915      49  138924  138927      47
  138921  138924      49  138921  138927      49  138936  138939      47  138933
  138936      49  138933  138939      49  138948  138951      47  138945  138948
      49  138945  138951      49  138960  138963      47  138957  138960      49
  138957  138963      49  138972  138975      47  138969  138972      49  138969
  138975      49  138984  138987      47  138981  138984      49  138981  138987
      49  138996  138999      47  138993  138996      49  138993  138999      49
  139008  139011      47  139005  139008      49  139005  139011      49  139020
  139023      47  139017  139020      49  139017  139023      49  139032  139035
      47  139029  139032      49  139029  139035      49  139044  139047      47
  139041  139044      49  139041  139047      49  139056  139059      47  139053
  139056      49  139053  139059      49  139068  139071      47  139065  139068
      49  139065  139071      49  139080  139083      47  139077  139080      49
  139077  139083      49  139092  139095      47  139089  139092      49  139089
  139095      49  139104  139107      47  139101  139104      49  139101  139107
      49  139116  139119      47  139113  139116      49  139113  139119      49
  139128  139131      47  139125  139128      49  139125  139131      49  139140
  139143      47  139137  139140      49  139137  139143      49  139152  139155
      47  139149  139152      49  139149  139155      49  139164  139167      47
  139161  139164      49  139161  139167      49  139176  139179      47  139173
  139176      49  139173  139179      49  139188  139191      47  139185  139188
      49  139185  139191      49  139200  139203      47  139197  139200      49
  139197  139203      49  139212  139215      47  139209  139212      49  139209
  139215      49  139224  139227      47  139221  139224      49  139221  139227
      49  139236  139239      47  139233  139236      49  139233  139239      49
  139248  139251      47  139245  139248      49  139245  139251      49  139260
  139263      47  139257  139260      49  139257  139263      49  139272  139275
      47  139269  139272      49  139269  139275      49  139284  139287      47
  139281  139284      49  139281  139287      49  139296  139299      47  139293
  139296      49  139293  139299      49  139308  139311      47  139305  139308
      49  139305  139311      49  139320  139323      47  139317  139320      49
  139317  139323      49  139332  139335      47  139329  139332      49  139329
  139335      49  139344  139347      47  139341  139344      49  139341  139347
      49  139356  139359      47  139353  139356      49  139353  139359      49
  139368  139371      47  139365  139368      49  139365  139371      49  139380
  139383      47  139377  139380      49  139377  139383      49  139392  139395
      47  139389  139392      49  139389  139395      49  139404  139407      47
  139401  139404      49  139401  139407      49  139416  139419      47  139413
  139416      49  139413  139419      49  139428  139431      47  139425  139428
      49  139425  139431      49  139440  139443      47  139437  139440      49
  139437  139443      49  139452  139455      47  139449  139452      49  139449
  139455      49  139464  139467      47  139461  139464      49  139461  139467
      49  139476  139479      47  139473  139476      49  139473  139479      49
  139488  139491      47  139485  139488      49  139485  139491      49  139500
  139503      47  139497  139500      49  139497  139503      49  139512  139515
      47  139509  139512      49  139509  139515      49  139524  139527      47
  139521  139524      49  139521  139527      49  139536  139539      47  139533
  139536      49  139533  139539      49  139548  139551      47  139545  139548
      49  139545  139551      49  139560  139563      47  139557  139560      49
  139557  139563      49  139572  139575      47  139569  139572      49  139569
  139575      49  139584  139587      47  139581  139584      49  139581  139587
      49  139596  139599      47  139593  139596      49  139593  139599      49
  139608  139611      47  139605  139608      49  139605  139611      49  139620
  139623      47  139617  139620      49  139617  139623      49  139632  139635
      47  139629  139632      49  139629  139635      49  139644  139647      47
  139641  139644      49  139641  139647      49  139656  139659      47  139653
  139656      49  139653  139659      49  139668  139671      47  139665  139668
      49  139665  139671      49  139680  139683      47  139677  139680      49
  139677  139683      49  139692  139695      47  139689  139692      49  139689
  139695      49  139704  139707      47  139701  139704      49  139701  139707
      49  139716  139719      47  139713  139716      49  139713  139719      49
  139728  139731      47  139725  139728      49  139725  139731      49  139740
  139743      47  139737  139740      49  139737  139743      49  139752  139755
      47  139749  139752      49  139749  139755      49  139764  139767      47
  139761  139764      49  139761  139767      49  139776  139779      47  139773
  139776      49  139773  139779      49  139788  139791      47  139785  139788
      49  139785  139791      49  139800  139803      47  139797  139800      49
  139797  139803      49  139812  139815      47  139809  139812      49  139809
  139815      49  139824  139827      47  139821  139824      49  139821  139827
      49  139836  139839      47  139833  139836      49  139833  139839      49
  139848  139851      47  139845  139848      49  139845  139851      49  139860
  139863      47  139857  139860      49  139857  139863      49  139872  139875
      47  139869  139872      49  139869  139875      49  139884  139887      47
  139881  139884      49  139881  139887      49  139896  139899      47  139893
  139896      49  139893  139899      49  139908  139911      47  139905  139908
      49  139905  139911      49  139920  139923      47  139917  139920      49
  139917  139923      49  139932  139935      47  139929  139932      49  139929
  139935      49  139944  139947      47  139941  139944      49  139941  139947
      49  139956  139959      47  139953  139956      49  139953  139959      49
  139968  139971      47  139965  139968      49  139965  139971      49  139980
  139983      47  139977  139980      49  139977  139983      49  139992  139995
      47  139989  139992      49  139989  139995      49  140004  140007      47
  140001  140004      49  140001  140007      49  140016  140019      47  140013
  140016      49  140013  140019      49  140028  140031      47  140025  140028
      49  140025  140031      49  140040  140043      47  140037  140040      49
  140037  140043      49  140052  140055      47  140049  140052      49  140049
  140055      49  140064  140067      47  140061  140064      49  140061  140067
      49  140076  140079      47  140073  140076      49  140073  140079      49
  140088  140091      47  140085  140088      49  140085  140091      49  140100
  140103      47  140097  140100      49  140097  140103      49  140112  140115
      47  140109  140112      49  140109  140115      49  140124  140127      47
  140121  140124      49  140121  140127      49  140136  140139      47  140133
  140136      49  140133  140139      49  140148  140151      47  140145  140148
      49  140145  140151      49  140160  140163      47  140157  140160      49
  140157  140163      49  140172  140175      47  140169  140172      49  140169
  140175      49  140184  140187      47  140181  140184      49  140181  140187
      49  140196  140199      47  140193  140196      49  140193  140199      49
  140208  140211      47  140205  140208      49  140205  140211      49  140220
  140223      47  140217  140220      49  140217  140223      49  140232  140235
      47  140229  140232      49  140229  140235      49  140244  140247      47
  140241  140244      49  140241  140247      49  140256  140259      47  140253
  140256      49  140253  140259      49  140268  140271      47  140265  140268
      49  140265  140271      49  140280  140283      47  140277  140280      49
  140277  140283      49  140292  140295      47  140289  140292      49  140289
  140295      49  140304  140307      47  140301  140304      49  140301  140307
      49  140316  140319      47  140313  140316      49  140313  140319      49
  140328  140331      47  140325  140328      49  140325  140331      49  140340
  140343      47  140337  140340      49  140337  140343      49  140352  140355
      47  140349  140352      49  140349  140355      49  140364  140367      47
  140361  140364      49  140361  140367      49  140376  140379      47  140373
  140376      49  140373  140379      49  140388  140391      47  140385  140388
      49  140385  140391      49  140400  140403      47  140397  140400      49
  140397  140403      49  140412  140415      47  140409  140412      49  140409
  140415      49  140424  140427      47  140421  140424      49  140421  140427
      49  140436  140439      47  140433  140436      49  140433  140439      49
  140448  140451      47  140445  140448      49  140445  140451      49  140460
  140463      47  140457  140460      49  140457  140463      49  140472  140475
      47  140469  140472      49  140469  140475      49  140484  140487      47
  140481  140484      49  140481  140487      49  140496  140499      47  140493
  140496      49  140493  140499      49  140508  140511      47  140505  140508
      49  140505  140511      49  140520  140523      47  140517  140520      49
  140517  140523      49  140532  140535      47  140529  140532      49  140529
  140535      49  140544  140547      47  140541  140544      49  140541  140547
      49  140556  140559      47  140553  140556      49  140553  140559      49
  140568  140571      47  140565  140568      49  140565  140571      49  140580
  140583      47  140577  140580      49  140577  140583      49  140592  140595
      47  140589  140592      49  140589  140595      49  140604  140607      47
  140601  140604      49  140601  140607      49  140616  140619      47  140613
  140616      49  140613  140619      49  140628  140631      47  140625  140628
      49  140625  140631      49  140640  140643      47  140637  140640      49
  140637  140643      49  140652  140655      47  140649  140652      49  140649
  140655      49  140664  140667      47  140661  140664      49  140661  140667
      49  140676  140679      47  140673  140676      49  140673  140679      49
  140688  140691      47  140685  140688      49  140685  140691      49  140700
  140703      47  140697  140700      49  140697  140703      49  140712  140715
      47  140709  140712      49  140709  140715      49  140724  140727      47
  140721  140724      49  140721  140727      49  140736  140739      47  140733
  140736      49  140733  140739      49  140748  140751      47  140745  140748
      49  140745  140751      49  140760  140763      47  140757  140760      49
  140757  140763      49  140772  140775      47  140769  140772      49  140769
  140775      49  140784  140787      47  140781  140784      49  140781  140787
      49  140796  140799      47  140793  140796      49  140793  140799      49
  140808  140811      47  140805  140808      49  140805  140811      49  140820
  140823      47  140817  140820      49  140817  140823      49  140832  140835
      47  140829  140832      49  140829  140835      49  140844  140847      47
  140841  140844      49  140841  140847      49  140856  140859      47  140853
  140856      49  140853  140859      49  140868  140871      47  140865  140868
      49  140865  140871      49  140880  140883      47  140877  140880      49
  140877  140883      49  140892  140895      47  140889  140892      49  140889
  140895      49  140904  140907      47  140901  140904      49  140901  140907
      49  140916  140919      47  140913  140916      49  140913  140919      49
  140928  140931      47  140925  140928      49  140925  140931      49  140940
  140943      47  140937  140940      49  140937  140943      49  140952  140955
      47  140949  140952      49  140949  140955      49  140964  140967      47
  140961  140964      49  140961  140967      49  140976  140979      47  140973
  140976      49  140973  140979      49  140988  140991      47  140985  140988
      49  140985  140991      49  141000  141003      47  140997  141000      49
  140997  141003      49  141012  141015      47  141009  141012      49  141009
  141015      49  141024  141027      47  141021  141024      49  141021  141027
      49  141036  141039      47  141033  141036      49  141033  141039      49
  141048  141051      47  141045  141048      49  141045  141051      49  141060
  141063      47  141057  141060      49  141057  141063      49  141072  141075
      47  141069  141072      49  141069  141075      49  141084  141087      47
  141081  141084      49  141081  141087      49  141096  141099      47  141093
  141096      49  141093  141099      49  141108  141111      47  141105  141108
      49  141105  141111      49  141120  141123      47  141117  141120      49
  141117  141123      49  141132  141135      47  141129  141132      49  141129
  141135      49  141144  141147      47  141141  141144      49  141141  141147
      49  141156  141159      47  141153  141156      49  141153  141159      49
  141168  141171      47  141165  141168      49  141165  141171      49  141180
  141183      47  141177  141180      49  141177  141183      49  141192  141195
      47  141189  141192      49  141189  141195      49  141204  141207      47
  141201  141204      49  141201  141207      49  141216  141219      47  141213
  141216      49  141213  141219      49  141228  141231      47  141225  141228
      49  141225  141231      49  141240  141243      47  141237  141240      49
  141237  141243      49  141252  141255      47  141249  141252      49  141249
  141255      49  141264  141267      47  141261  141264      49  141261  141267
      49  141276  141279      47  141273  141276      49  141273  141279      49
  141288  141291      47  141285  141288      49  141285  141291      49  141300
  141303      47  141297  141300      49  141297  141303      49  141312  141315
      47  141309  141312      49  141309  141315      49  141324  141327      47
  141321  141324      49  141321  141327      49  141336  141339      47  141333
  141336      49  141333  141339      49  141348  141351      47  141345  141348
      49  141345  141351      49  141360  141363      47  141357  141360      49
  141357  141363      49  141372  141375      47  141369  141372      49  141369
  141375      49  141384  141387      47  141381  141384      49  141381  141387
      49  141396  141399      47  141393  141396      49  141393  141399      49
  141408  141411      47  141405  141408      49  141405  141411      49  141420
  141423      47  141417  141420      49  141417  141423      49  141432  141435
      47  141429  141432      49  141429  141435      49  141444  141447      47
  141441  141444      49  141441  141447      49  141456  141459      47  141453
  141456      49  141453  141459      49  141468  141471      47  141465  141468
      49  141465  141471      49  141480  141483      47  141477  141480      49
  141477  141483      49  141492  141495      47  141489  141492      49  141489
  141495      49  141504  141507      47  141501  141504      49  141501  141507
      49  141516  141519      47  141513  141516      49  141513  141519      49
  141528  141531      47  141525  141528      49  141525  141531      49  141540
  141543      47  141537  141540      49  141537  141543      49  141552  141555
      47  141549  141552      49  141549  141555      49  141564  141567      47
  141561  141564      49  141561  141567      49  141576  141579      47  141573
  141576      49  141573  141579      49  141588  141591      47  141585  141588
      49  141585  141591      49  141600  141603      47  141597  141600      49
  141597  141603      49  141612  141615      47  141609  141612      49  141609
  141615      49  141624  141627      47  141621  141624      49  141621  141627
      49  141636  141639      47  141633  141636      49  141633  141639      49
  141648  141651      47  141645  141648      49  141645  141651      49  141660
  141663      47  141657  141660      49  141657  141663      49  141672  141675
      47  141669  141672      49  141669  141675      49  141684  141687      47
  141681  141684      49  141681  141687      49  141696  141699      47  141693
  141696      49  141693  141699      49  141708  141711      47  141705  141708
      49  141705  141711      49  141720  141723      47  141717  141720      49
  141717  141723      49  141732  141735      47  141729  141732      49  141729
  141735      49  141744  141747      47  141741  141744      49  141741  141747
      49  141756  141759      47  141753  141756      49  141753  141759      49
  141768  141771      47  141765  141768      49  141765  141771      49  141780
  141783      47  141777  141780      49  141777  141783      49  141792  141795
      47  141789  141792      49  141789  141795      49  141804  141807      47
  141801  141804      49  141801  141807      49  141816  141819      47  141813
  141816      49  141813  141819      49  141828  141831      47  141825  141828
      49  141825  141831      49  141840  141843      47  141837  141840      49
  141837  141843      49  141852  141855      47  141849  141852      49  141849
  141855      49  141864  141867      47  141861  141864      49  141861  141867
      49  141876  141879      47  141873  141876      49  141873  141879      49
  141888  141891      47  141885  141888      49  141885  141891      49  141900
  141903      47  141897  141900      49  141897  141903      49  141912  141915
      47  141909  141912      49  141909  141915      49  141924  141927      47
  141921  141924      49  141921  141927      49  141936  141939      47  141933
  141936      49  141933  141939      49  141948  141951      47  141945  141948
      49  141945  141951      49  141960  141963      47  141957  141960      49
  141957  141963      49  141972  141975      47  141969  141972      49  141969
  141975      49  141984  141987      47  141981  141984      49  141981  141987
      49  141996  141999      47  141993  141996      49  141993  141999      49
  142008  142011      47  142005  142008      49  142005  142011      49  142020
  142023      47  142017  142020      49  142017  142023      49  142032  142035
      47  142029  142032      49  142029  142035      49  142044  142047      47
  142041  142044      49  142041  142047      49  142056  142059      47  142053
  142056      49  142053  142059      49  142068  142071      47  142065  142068
      49  142065  142071      49  142080  142083      47  142077  142080      49
  142077  142083      49  142092  142095      47  142089  142092      49  142089
  142095      49  142104  142107      47  142101  142104      49  142101  142107
      49  142116  142119      47  142113  142116      49  142113  142119      49
  142128  142131      47  142125  142128      49  142125  142131      49  142140
  142143      47  142137  142140      49  142137  142143      49  142152  142155
      47  142149  142152      49  142149  142155      49  142164  142167      47
  142161  142164      49  142161  142167      49  142176  142179      47  142173
  142176      49  142173  142179      49  142188  142191      47  142185  142188
      49  142185  142191      49  142200  142203      47  142197  142200      49
  142197  142203      49  142212  142215      47  142209  142212      49  142209
  142215      49  142224  142227      47  142221  142224      49  142221  142227
      49  142236  142239      47  142233  142236      49  142233  142239      49
  142248  142251      47  142245  142248      49  142245  142251      49  142260
  142263      47  142257  142260      49  142257  142263      49  142272  142275
      47  142269  142272      49  142269  142275      49  142284  142287      47
  142281  142284      49  142281  142287      49  142296  142299      47  142293
  142296      49  142293  142299      49  142308  142311      47  142305  142308
      49  142305  142311      49  142320  142323      47  142317  142320      49
  142317  142323      49  142332  142335      47  142329  142332      49  142329
  142335      49  142344  142347      47  142341  142344      49  142341  142347
      49  142356  142359      47  142353  142356      49  142353  142359      49
  142368  142371      47  142365  142368      49  142365  142371      49  142380
  142383      47  142377  142380      49  142377  142383      49  142392  142395
      47  142389  142392      49  142389  142395      49  142404  142407      47
  142401  142404      49  142401  142407      49  142416  142419      47  142413
  142416      49  142413  142419      49  142428  142431      47  142425  142428
      49  142425  142431      49  142440  142443      47  142437  142440      49
  142437  142443      49  142452  142455      47  142449  142452      49  142449
  142455      49  142464  142467      47  142461  142464      49  142461  142467
      49  142476  142479      47  142473  142476      49  142473  142479      49
  142488  142491      47  142485  142488      49  142485  142491      49  142500
  142503      47  142497  142500      49  142497  142503      49  142512  142515
      47  142509  142512      49  142509  142515      49  142524  142527      47
  142521  142524      49  142521  142527      49  142536  142539      47  142533
  142536      49  142533  142539      49  142548  142551      47  142545  142548
      49  142545  142551      49  142560  142563      47  142557  142560      49
  142557  142563      49  142572  142575      47  142569  142572      49  142569
  142575      49  142584  142587      47  142581  142584      49  142581  142587
      49  142596  142599      47  142593  142596      49  142593  142599      49
  142608  142611      47  142605  142608      49  142605  142611      49  142620
  142623      47  142617  142620      49  142617  142623      49  142632  142635
      47  142629  142632      49  142629  142635      49  142644  142647      47
  142641  142644      49  142641  142647      49  142656  142659      47  142653
  142656      49  142653  142659      49  142668  142671      47  142665  142668
      49  142665  142671      49  142680  142683      47  142677  142680      49
  142677  142683      49  142692  142695      47  142689  142692      49  142689
  142695      49  142704  142707      47  142701  142704      49  142701  142707
      49  142716  142719      47  142713  142716      49  142713  142719      49
  142728  142731      47  142725  142728      49  142725  142731      49  142740
  142743      47  142737  142740      49  142737  142743      49  142752  142755
      47  142749  142752      49  142749  142755      49  142764  142767      47
  142761  142764      49  142761  142767      49  142776  142779      47  142773
  142776      49  142773  142779      49  142788  142791      47  142785  142788
      49  142785  142791      49  142800  142803      47  142797  142800      49
  142797  142803      49  142812  142815      47  142809  142812      49  142809
  142815      49  142824  142827      47  142821  142824      49  142821  142827
      49  142836  142839      47  142833  142836      49  142833  142839      49
  142848  142851      47  142845  142848      49  142845  142851      49  142860
  142863      47  142857  142860      49  142857  142863      49  142872  142875
      47  142869  142872      49  142869  142875      49  142884  142887      47
  142881  142884      49  142881  142887      49  142896  142899      47  142893
  142896      49  142893  142899      49  142908  142911      47  142905  142908
      49  142905  142911      49  142920  142923      47  142917  142920      49
  142917  142923      49  142932  142935      47  142929  142932      49  142929
  142935      49  142944  142947      47  142941  142944      49  142941  142947
      49  142956  142959      47  142953  142956      49  142953  142959      49
  142968  142971      47  142965  142968      49  142965  142971      49  142980
  142983      47  142977  142980      49  142977  142983      49  142992  142995
      47  142989  142992      49  142989  142995      49  143004  143007      47
  143001  143004      49  143001  143007      49  143016  143019      47  143013
  143016      49  143013  143019      49  143028  143031      47  143025  143028
      49  143025  143031      49  143040  143043      47  143037  143040      49
  143037  143043      49  143052  143055      47  143049  143052      49  143049
  143055      49  143064  143067      47  143061  143064      49  143061  143067
      49  143076  143079      47  143073  143076      49  143073  143079      49
  143088  143091      47  143085  143088      49  143085  143091      49  143100
  143103      47  143097  143100      49  143097  143103      49  143112  143115
      47  143109  143112      49  143109  143115      49  143124  143127      47
  143121  143124      49  143121  143127      49  143136  143139      47  143133
  143136      49  143133  143139      49  143148  143151      47  143145  143148
      49  143145  143151      49  143160  143163      47  143157  143160      49
  143157  143163      49  143172  143175      47  143169  143172      49  143169
  143175      49  143184  143187      47  143181  143184      49  143181  143187
      49  143196  143199      47  143193  143196      49  143193  143199      49
  143208  143211      47  143205  143208      49  143205  143211      49  143220
  143223      47  143217  143220      49  143217  143223      49  143232  143235
      47  143229  143232      49  143229  143235      49  143244  143247      47
  143241  143244      49  143241  143247      49  143256  143259      47  143253
  143256      49  143253  143259      49  143268  143271      47  143265  143268
      49  143265  143271      49  143280  143283      47  143277  143280      49
  143277  143283      49  143292  143295      47  143289  143292      49  143289
  143295      49  143304  143307      47  143301  143304      49  143301  143307
      49  143316  143319      47  143313  143316      49  143313  143319      49
  143328  143331      47  143325  143328      49  143325  143331      49  143340
  143343      47  143337  143340      49  143337  143343      49  143352  143355
      47  143349  143352      49  143349  143355      49  143364  143367      47
  143361  143364      49  143361  143367      49  143376  143379      47  143373
  143376      49  143373  143379      49  143388  143391      47  143385  143388
      49  143385  143391      49  143400  143403      47  143397  143400      49
  143397  143403      49  143412  143415      47  143409  143412      49  143409
  143415      49  143424  143427      47  143421  143424      49  143421  143427
      49  143436  143439      47  143433  143436      49  143433  143439      49
  143448  143451      47  143445  143448      49  143445  143451      49  143460
  143463      47  143457  143460      49  143457  143463      49  143472  143475
      47  143469  143472      49  143469  143475      49  143484  143487      47
  143481  143484      49  143481  143487      49  143496  143499      47  143493
  143496      49  143493  143499      49  143508  143511      47  143505  143508
      49  143505  143511      49  143520  143523      47  143517  143520      49
  143517  143523      49  143532  143535      47  143529  143532      49  143529
  143535      49  143544  143547      47  143541  143544      49  143541  143547
      49  143556  143559      47  143553  143556      49  143553  143559      49
  143568  143571      47  143565  143568      49  143565  143571      49  143580
  143583      47  143577  143580      49  143577  143583      49  143592  143595
      47  143589  143592      49  143589  143595      49  143604  143607      47
  143601  143604      49  143601  143607      49  143616  143619      47  143613
  143616      49  143613  143619      49  143628  143631      47  143625  143628
      49  143625  143631      49  143640  143643      47  143637  143640      49
  143637  143643      49  143652  143655      47  143649  143652      49  143649
  143655      49  143664  143667      47  143661  143664      49  143661  143667
      49  143676  143679      47  143673  143676      49  143673  143679      49
  143688  143691      47  143685  143688      49  143685  143691      49  143700
  143703      47  143697  143700      49  143697  143703      49  143712  143715
      47  143709  143712      49  143709  143715      49  143724  143727      47
  143721  143724      49  143721  143727      49  143736  143739      47  143733
  143736      49  143733  143739      49  143748  143751      47  143745  143748
      49  143745  143751      49  143760  143763      47  143757  143760      49
  143757  143763      49  143772  143775      47  143769  143772      49  143769
  143775      49  143784  143787      47  143781  143784      49  143781  143787
      49  143796  143799      47  143793  143796      49  143793  143799      49
  143808  143811      47  143805  143808      49  143805  143811      49  143820
  143823      47  143817  143820      49  143817  143823      49  143832  143835
      47  143829  143832      49  143829  143835      49  143844  143847      47
  143841  143844      49  143841  143847      49  143856  143859      47  143853
  143856      49  143853  143859      49  143868  143871      47  143865  143868
      49  143865  143871      49  143880  143883      47  143877  143880      49
  143877  143883      49  143892  143895      47  143889  143892      49  143889
  143895      49  143904  143907      47  143901  143904      49  143901  143907
      49  143916  143919      47  143913  143916      49  143913  143919      49
  143928  143931      47  143925  143928      49  143925  143931      49  143940
  143943      47  143937  143940      49  143937  143943      49  143952  143955
      47  143949  143952      49  143949  143955      49  143964  143967      47
  143961  143964      49  143961  143967      49  143976  143979      47  143973
  143976      49  143973  143979      49  143988  143991      47  143985  143988
      49  143985  143991      49  144000  144003      47  143997  144000      49
  143997  144003      49  144012  144015      47  144009  144012      49  144009
  144015      49  144024  144027      47  144021  144024      49  144021  144027
      49  144036  144039      47  144033  144036      49  144033  144039      49
  144048  144051      47  144045  144048      49  144045  144051      49  144060
  144063      47  144057  144060      49  144057  144063      49  144072  144075
      47  144069  144072      49  144069  144075      49  144084  144087      47
  144081  144084      49  144081  144087      49  144096  144099      47  144093
  144096      49  144093  144099      49  144108  144111      47  144105  144108
      49  144105  144111      49  144120  144123      47  144117  144120      49
  144117  144123      49  144132  144135      47  144129  144132      49  144129
  144135      49  144144  144147      47  144141  144144      49  144141  144147
      49  144156  144159      47  144153  144156      49  144153  144159      49
  144168  144171      47  144165  144168      49  144165  144171      49  144180
  144183      47  144177  144180      49  144177  144183      49  144192  144195
      47  144189  144192      49  144189  144195      49  144204  144207      47
  144201  144204      49  144201  144207      49  144216  144219      47  144213
  144216      49  144213  144219      49  144228  144231      47  144225  144228
      49  144225  144231      49  144240  144243      47  144237  144240      49
  144237  144243      49  144252  144255      47  144249  144252      49  144249
  144255      49  144264  144267      47  144261  144264      49  144261  144267
      49  144276  144279      47  144273  144276      49  144273  144279      49
  144288  144291      47  144285  144288      49  144285  144291      49  144300
  144303      47  144297  144300      49  144297  144303      49  144312  144315
      47  144309  144312      49  144309  144315      49  144324  144327      47
  144321  144324      49  144321  144327      49  144336  144339      47  144333
  144336      49  144333  144339      49  144348  144351      47  144345  144348
      49  144345  144351      49  144360  144363      47  144357  144360      49
  144357  144363      49  144372  144375      47  144369  144372      49  144369
  144375      49  144384  144387      47  144381  144384      49  144381  144387
      49  144396  144399      47  144393  144396      49  144393  144399      49
  144408  144411      47  144405  144408      49  144405  144411      49  144420
  144423      47  144417  144420      49  144417  144423      49  144432  144435
      47  144429  144432      49  144429  144435      49  144444  144447      47
  144441  144444      49  144441  144447      49  144456  144459      47  144453
  144456      49  144453  144459      49  144468  144471      47  144465  144468
      49  144465  144471      49  144480  144483      47  144477  144480      49
  144477  144483      49  144492  144495      47  144489  144492      49  144489
  144495      49  144504  144507      47  144501  144504      49  144501  144507
      49  144516  144519      47  144513  144516      49  144513  144519      49
  144528  144531      47  144525  144528      49  144525  144531      49  144540
  144543      47  144537  144540      49  144537  144543      49  144552  144555
      47  144549  144552      49  144549  144555      49  144564  144567      47
  144561  144564      49  144561  144567      49  144576  144579      47  144573
  144576      49  144573  144579      49  144588  144591      47  144585  144588
      49  144585  144591      49  144600  144603      47  144597  144600      49
  144597  144603      49  144612  144615      47  144609  144612      49  144609
  144615      49  144624  144627      47  144621  144624      49  144621  144627
      49  144636  144639      47  144633  144636      49  144633  144639      49
  144648  144651      47  144645  144648      49  144645  144651      49  144660
  144663      47  144657  144660      49  144657  144663      49  144672  144675
      47  144669  144672      49  144669  144675      49  144684  144687      47
  144681  144684      49  144681  144687      49  144696  144699      47  144693
  144696      49  144693  144699      49  144708  144711      47  144705  144708
      49  144705  144711      49  144720  144723      47  144717  144720      49
  144717  144723      49  144732  144735      47  144729  144732      49  144729
  144735      49  144744  144747      47  144741  144744      49  144741  144747
      49  144756  144759      47  144753  144756      49  144753  144759      49
  144768  144771      47  144765  144768      49  144765  144771      49  144780
  144783      47  144777  144780      49  144777  144783      49  144792  144795
      47  144789  144792      49  144789  144795      49  144804  144807      47
  144801  144804      49  144801  144807      49  144816  144819      47  144813
  144816      49  144813  144819      49  144828  144831      47  144825  144828
      49  144825  144831      49  144840  144843      47  144837  144840      49
  144837  144843      49  144852  144855      47  144849  144852      49  144849
  144855      49  144864  144867      47  144861  144864      49  144861  144867
      49  144876  144879      47  144873  144876      49  144873  144879      49
  144888  144891      47  144885  144888      49  144885  144891      49  144900
  144903      47  144897  144900      49  144897  144903      49  144912  144915
      47  144909  144912      49  144909  144915      49  144924  144927      47
  144921  144924      49  144921  144927      49  144936  144939      47  144933
  144936      49  144933  144939      49  144948  144951      47  144945  144948
      49  144945  144951      49  144960  144963      47  144957  144960      49
  144957  144963      49  144972  144975      47  144969  144972      49  144969
  144975      49  144984  144987      47  144981  144984      49  144981  144987
      49  144996  144999      47  144993  144996      49  144993  144999      49
  145008  145011      47  145005  145008      49  145005  145011      49  145020
  145023      47  145017  145020      49  145017  145023      49  145032  145035
      47  145029  145032      49  145029  145035      49  145044  145047      47
  145041  145044      49  145041  145047      49  145056  145059      47  145053
  145056      49  145053  145059      49  145068  145071      47  145065  145068
      49  145065  145071      49  145080  145083      47  145077  145080      49
  145077  145083      49  145092  145095      47  145089  145092      49  145089
  145095      49  145104  145107      47  145101  145104      49  145101  145107
      49  145116  145119      47  145113  145116      49  145113  145119      49
  145128  145131      47  145125  145128      49  145125  145131      49  145140
  145143      47  145137  145140      49  145137  145143      49  145152  145155
      47  145149  145152      49  145149  145155      49  145164  145167      47
  145161  145164      49  145161  145167      49  145176  145179      47  145173
  145176      49  145173  145179      49  145188  145191      47  145185  145188
      49  145185  145191      49  145200  145203      47  145197  145200      49
  145197  145203      49  145212  145215      47  145209  145212      49  145209
  145215      49  145224  145227      47  145221  145224      49  145221  145227
      49  145236  145239      47  145233  145236      49  145233  145239      49
  145248  145251      47  145245  145248      49  145245  145251      49  145260
  145263      47  145257  145260      49  145257  145263      49  145272  145275
      47  145269  145272      49  145269  145275      49  145284  145287      47
  145281  145284      49  145281  145287      49  145296  145299      47  145293
  145296      49  145293  145299      49  145308  145311      47  145305  145308
      49  145305  145311      49  145320  145323      47  145317  145320      49
  145317  145323      49  145332  145335      47  145329  145332      49  145329
  145335      49  145344  145347      47  145341  145344      49  145341  145347
      49  145356  145359      47  145353  145356      49  145353  145359      49
  145368  145371      47  145365  145368      49  145365  145371      49  145380
  145383      47  145377  145380      49  145377  145383      49  145392  145395
      47  145389  145392      49  145389  145395      49  145404  145407      47
  145401  145404      49  145401  145407      49  145416  145419      47  145413
  145416      49  145413  145419      49  145428  145431      47  145425  145428
      49  145425  145431      49  145440  145443      47  145437  145440      49
  145437  145443      49  145452  145455      47  145449  145452      49  145449
  145455      49  145464  145467      47  145461  145464      49  145461  145467
      49  145476  145479      47  145473  145476      49  145473  145479      49
  145488  145491      47  145485  145488      49  145485  145491      49  145500
  145503      47  145497  145500      49  145497  145503      49  145512  145515
      47  145509  145512      49  145509  145515      49  145524  145527      47
  145521  145524      49  145521  145527      49  145536  145539      47  145533
  145536      49  145533  145539      49  145548  145551      47  145545  145548
      49  145545  145551      49  145560  145563      47  145557  145560      49
  145557  145563      49  145572  145575      47  145569  145572      49  145569
  145575      49  145584  145587      47  145581  145584      49  145581  145587
      49  145596  145599      47  145593  145596      49  145593  145599      49
  145608  145611      47  145605  145608      49  145605  145611      49  145620
  145623      47  145617  145620      49  145617  145623      49  145632  145635
      47  145629  145632      49  145629  145635      49  145644  145647      47
  145641  145644      49  145641  145647      49  145656  145659      47  145653
  145656      49  145653  145659      49  145668  145671      47  145665  145668
      49  145665  145671      49  145680  145683      47  145677  145680      49
  145677  145683      49  145692  145695      47  145689  145692      49  145689
  145695      49  145704  145707      47  145701  145704      49  145701  145707
      49  145716  145719      47  145713  145716      49  145713  145719      49
  145728  145731      47  145725  145728      49  145725  145731      49  145740
  145743      47  145737  145740      49  145737  145743      49  145752  145755
      47  145749  145752      49  145749  145755      49  145764  145767      47
  145761  145764      49  145761  145767      49  145776  145779      47  145773
  145776      49  145773  145779      49  145788  145791      47  145785  145788
      49  145785  145791      49  145800  145803      47  145797  145800      49
  145797  145803      49  145812  145815      47  145809  145812      49  145809
  145815      49  145824  145827      47  145821  145824      49  145821  145827
      49  145836  145839      47  145833  145836      49  145833  145839      49
  145848  145851      47  145845  145848      49  145845  145851      49  145860
  145863      47  145857  145860      49  145857  145863      49  145872  145875
      47  145869  145872      49  145869  145875      49  145884  145887      47
  145881  145884      49  145881  145887      49  145896  145899      47  145893
  145896      49  145893  145899      49  145908  145911      47  145905  145908
      49  145905  145911      49  145920  145923      47  145917  145920      49
  145917  145923      49  145932  145935      47  145929  145932      49  145929
  145935      49  145944  145947      47  145941  145944      49  145941  145947
      49  145956  145959      47  145953  145956      49  145953  145959      49
  145968  145971      47  145965  145968      49  145965  145971      49  145980
  145983      47  145977  145980      49  145977  145983      49  145992  145995
      47  145989  145992      49  145989  145995      49  146004  146007      47
  146001  146004      49  146001  146007      49  146016  146019      47  146013
  146016      49  146013  146019      49  146028  146031      47  146025  146028
      49  146025  146031      49  146040  146043      47  146037  146040      49
  146037  146043      49  146052  146055      47  146049  146052      49  146049
  146055      49  146064  146067      47  146061  146064      49  146061  146067
      49  146076  146079      47  146073  146076      49  146073  146079      49
  146088  146091      47  146085  146088      49  146085  146091      49  146100
  146103      47  146097  146100      49  146097  146103      49  146112  146115
      47  146109  146112      49  146109  146115      49  146124  146127      47
  146121  146124      49  146121  146127      49  146136  146139      47  146133
  146136      49  146133  146139      49  146148  146151      47  146145  146148
      49  146145  146151      49  146160  146163      47  146157  146160      49
  146157  146163      49  146172  146175      47  146169  146172      49  146169
  146175      49  146184  146187      47  146181  146184      49  146181  146187
      49  146196  146199      47  146193  146196      49  146193  146199      49
  146208  146211      47  146205  146208      49  146205  146211      49  146220
  146223      47  146217  146220      49  146217  146223      49  146232  146235
      47  146229  146232      49  146229  146235      49  146244  146247      47
  146241  146244      49  146241  146247      49  146256  146259      47  146253
  146256      49  146253  146259      49  146268  146271      47  146265  146268
      49  146265  146271      49  146280  146283      47  146277  146280      49
  146277  146283      49  146292  146295      47  146289  146292      49  146289
  146295      49  146304  146307      47  146301  146304      49  146301  146307
      49  146316  146319      47  146313  146316      49  146313  146319      49
  146328  146331      47  146325  146328      49  146325  146331      49  146340
  146343      47  146337  146340      49  146337  146343      49  146352  146355
      47  146349  146352      49  146349  146355      49  146364  146367      47
  146361  146364      49  146361  146367      49  146376  146379      47  146373
  146376      49  146373  146379      49  146388  146391      47  146385  146388
      49  146385  146391      49  146400  146403      47  146397  146400      49
  146397  146403      49  146412  146415      47  146409  146412      49  146409
  146415      49  146424  146427      47  146421  146424      49  146421  146427
      49  146436  146439      47  146433  146436      49  146433  146439      49
  146448  146451      47  146445  146448      49  146445  146451      49  146460
  146463      47  146457  146460      49  146457  146463      49  146472  146475
      47  146469  146472      49  146469  146475      49  146484  146487      47
  146481  146484      49  146481  146487      49  146496  146499      47  146493
  146496      49  146493  146499      49  146508  146511      47  146505  146508
      49  146505  146511      49  146520  146523      47  146517  146520      49
  146517  146523      49  146532  146535      47  146529  146532      49  146529
  146535      49  146544  146547      47  146541  146544      49  146541  146547
      49  146556  146559      47  146553  146556      49  146553  146559      49
  146568  146571      47  146565  146568      49  146565  146571      49  146580
  146583      47  146577  146580      49  146577  146583      49  146592  146595
      47  146589  146592      49  146589  146595      49  146604  146607      47
  146601  146604      49  146601  146607      49  146616  146619      47  146613
  146616      49  146613  146619      49  146628  146631      47  146625  146628
      49  146625  146631      49  146640  146643      47  146637  146640      49
  146637  146643      49  146652  146655      47  146649  146652      49  146649
  146655      49  146664  146667      47  146661  146664      49  146661  146667
      49  146676  146679      47  146673  146676      49  146673  146679      49
  146688  146691      47  146685  146688      49  146685  146691      49  146700
  146703      47  146697  146700      49  146697  146703      49  146712  146715
      47  146709  146712      49  146709  146715      49  146724  146727      47
  146721  146724      49  146721  146727      49  146736  146739      47  146733
  146736      49  146733  146739      49  146748  146751      47  146745  146748
      49  146745  146751      49  146760  146763      47  146757  146760      49
  146757  146763      49  146772  146775      47  146769  146772      49  146769
  146775      49  146784  146787      47  146781  146784      49  146781  146787
      49  146796  146799      47  146793  146796      49  146793  146799      49
  146808  146811      47  146805  146808      49  146805  146811      49  146820
  146823      47  146817  146820      49  146817  146823      49  146832  146835
      47  146829  146832      49  146829  146835      49  146844  146847      47
  146841  146844      49  146841  146847      49  146856  146859      47  146853
  146856      49  146853  146859      49  146868  146871      47  146865  146868
      49  146865  146871      49  146880  146883      47  146877  146880      49
  146877  146883      49  146892  146895      47  146889  146892      49  146889
  146895      49  146904  146907      47  146901  146904      49  146901  146907
      49  146916  146919      47  146913  146916      49  146913  146919      49
  146928  146931      47  146925  146928      49  146925  146931      49  146940
  146943      47  146937  146940      49  146937  146943      49  146952  146955
      47  146949  146952      49  146949  146955      49  146964  146967      47
  146961  146964      49  146961  146967      49  146976  146979      47  146973
  146976      49  146973  146979      49  146988  146991      47  146985  146988
      49  146985  146991      49  147000  147003      47  146997  147000      49
  146997  147003      49  147012  147015      47  147009  147012      49  147009
  147015      49  147024  147027      47  147021  147024      49  147021  147027
      49  147036  147039      47  147033  147036      49  147033  147039      49
  147048  147051      47  147045  147048      49  147045  147051      49  147060
  147063      47  147057  147060      49  147057  147063      49  147072  147075
      47  147069  147072      49  147069  147075      49  147084  147087      47
  147081  147084      49  147081  147087      49  147096  147099      47  147093
  147096      49  147093  147099      49  147108  147111      47  147105  147108
      49  147105  147111      49  147120  147123      47  147117  147120      49
  147117  147123      49  147132  147135      47  147129  147132      49  147129
  147135      49  147144  147147      47  147141  147144      49  147141  147147
      49  147156  147159      47  147153  147156      49  147153  147159      49
  147168  147171      47  147165  147168      49  147165  147171      49  147180
  147183      47  147177  147180      49  147177  147183      49  147192  147195
      47  147189  147192      49  147189  147195      49  147204  147207      47
  147201  147204      49  147201  147207      49  147216  147219      47  147213
  147216      49  147213  147219      49  147228  147231      47  147225  147228
      49  147225  147231      49  147240  147243      47  147237  147240      49
  147237  147243      49  147252  147255      47  147249  147252      49  147249
  147255      49  147264  147267      47  147261  147264      49  147261  147267
      49  147276  147279      47  147273  147276      49  147273  147279      49
  147288  147291      47  147285  147288      49  147285  147291      49  147300
  147303      47  147297  147300      49  147297  147303      49  147312  147315
      47  147309  147312      49  147309  147315      49  147324  147327      47
  147321  147324      49  147321  147327      49  147336  147339      47  147333
  147336      49  147333  147339      49  147348  147351      47  147345  147348
      49  147345  147351      49  147360  147363      47  147357  147360      49
  147357  147363      49  147372  147375      47  147369  147372      49  147369
  147375      49  147384  147387      47  147381  147384      49  147381  147387
      49  147396  147399      47  147393  147396      49  147393  147399      49
  147408  147411      47  147405  147408      49  147405  147411      49  147420
  147423      47  147417  147420      49  147417  147423      49  147432  147435
      47  147429  147432      49  147429  147435      49  147444  147447      47
  147441  147444      49  147441  147447      49  147456  147459      47  147453
  147456      49  147453  147459      49  147468  147471      47  147465  147468
      49  147465  147471      49  147480  147483      47  147477  147480      49
  147477  147483      49  147492  147495      47  147489  147492      49  147489
  147495      49  147504  147507      47  147501  147504      49  147501  147507
      49  147516  147519      47  147513  147516      49  147513  147519      49
  147528  147531      47  147525  147528      49  147525  147531      49  147540
  147543      47  147537  147540      49  147537  147543      49  147552  147555
      47  147549  147552      49  147549  147555      49  147564  147567      47
  147561  147564      49  147561  147567      49  147576  147579      47  147573
  147576      49  147573  147579      49  147588  147591      47  147585  147588
      49  147585  147591      49  147600  147603      47  147597  147600      49
  147597  147603      49  147612  147615      47  147609  147612      49  147609
  147615      49  147624  147627      47  147621  147624      49  147621  147627
      49  147636  147639      47  147633  147636      49  147633  147639      49
  147648  147651      47  147645  147648      49  147645  147651      49  147660
  147663      47  147657  147660      49  147657  147663      49  147672  147675
      47  147669  147672      49  147669  147675      49  147684  147687      47
  147681  147684      49  147681  147687      49  147696  147699      47  147693
  147696      49  147693  147699      49  147708  147711      47  147705  147708
      49  147705  147711      49  147720  147723      47  147717  147720      49
  147717  147723      49  147732  147735      47  147729  147732      49  147729
  147735      49  147744  147747      47  147741  147744      49  147741  147747
      49  147756  147759      47  147753  147756      49  147753  147759      49
  147768  147771      47  147765  147768      49  147765  147771      49  147780
  147783      47  147777  147780      49  147777  147783      49  147792  147795
      47  147789  147792      49  147789  147795      49  147804  147807      47
  147801  147804      49  147801  147807      49  147816  147819      47  147813
  147816      49  147813  147819      49  147828  147831      47  147825  147828
      49  147825  147831      49  147840  147843      47  147837  147840      49
  147837  147843      49  147852  147855      47  147849  147852      49  147849
  147855      49  147864  147867      47  147861  147864      49  147861  147867
      49  147876  147879      47  147873  147876      49  147873  147879      49
  147888  147891      47  147885  147888      49  147885  147891      49  147900
  147903      47  147897  147900      49  147897  147903      49  147912  147915
      47  147909  147912      49  147909  147915      49  147924  147927      47
  147921  147924      49  147921  147927      49  147936  147939      47  147933
  147936      49  147933  147939      49  147948  147951      47  147945  147948
      49  147945  147951      49  147960  147963      47  147957  147960      49
  147957  147963      49  147972  147975      47  147969  147972      49  147969
  147975      49  147984  147987      47  147981  147984      49  147981  147987
      49  147996  147999      47  147993  147996      49  147993  147999      49
  148008  148011      47  148005  148008      49  148005  148011      49  148020
  148023      47  148017  148020      49  148017  148023      49  148032  148035
      47  148029  148032      49  148029  148035      49  148044  148047      47
  148041  148044      49  148041  148047      49  148056  148059      47  148053
  148056      49  148053  148059      49  148068  148071      47  148065  148068
      49  148065  148071      49  148080  148083      47  148077  148080      49
  148077  148083      49  148092  148095      47  148089  148092      49  148089
  148095      49  148104  148107      47  148101  148104      49  148101  148107
      49  148116  148119      47  148113  148116      49  148113  148119      49
  148128  148131      47  148125  148128      49  148125  148131      49  148140
  148143      47  148137  148140      49  148137  148143      49  148152  148155
      47  148149  148152      49  148149  148155      49  148164  148167      47
  148161  148164      49  148161  148167      49  148176  148179      47  148173
  148176      49  148173  148179      49  148188  148191      47  148185  148188
      49  148185  148191      49  148200  148203      47  148197  148200      49
  148197  148203      49  148212  148215      47  148209  148212      49  148209
  148215      49  148224  148227      47  148221  148224      49  148221  148227
      49  148236  148239      47  148233  148236      49  148233  148239      49
  148248  148251      47  148245  148248      49  148245  148251      49  148260
  148263      47  148257  148260      49  148257  148263      49  148272  148275
      47  148269  148272      49  148269  148275      49  148284  148287      47
  148281  148284      49  148281  148287      49  148296  148299      47  148293
  148296      49  148293  148299      49  148308  148311      47  148305  148308
      49  148305  148311      49  148320  148323      47  148317  148320      49
  148317  148323      49  148332  148335      47  148329  148332      49  148329
  148335      49  148344  148347      47  148341  148344      49  148341  148347
      49  148356  148359      47  148353  148356      49  148353  148359      49
  148368  148371      47  148365  148368      49  148365  148371      49  148380
  148383      47  148377  148380      49  148377  148383      49  148392  148395
      47  148389  148392      49  148389  148395      49  148404  148407      47
  148401  148404      49  148401  148407      49  148416  148419      47  148413
  148416      49  148413  148419      49  148428  148431      47  148425  148428
      49  148425  148431      49  148440  148443      47  148437  148440      49
  148437  148443      49  148452  148455      47  148449  148452      49  148449
  148455      49  148464  148467      47  148461  148464      49  148461  148467
      49  148476  148479      47  148473  148476      49  148473  148479      49
  148488  148491      47  148485  148488      49  148485  148491      49  148500
  148503      47  148497  148500      49  148497  148503      49  148512  148515
      47  148509  148512      49  148509  148515      49  148524  148527      47
  148521  148524      49  148521  148527      49  148536  148539      47  148533
  148536      49  148533  148539      49  148548  148551      47  148545  148548
      49  148545  148551      49  148560  148563      47  148557  148560      49
  148557  148563      49  148572  148575      47  148569  148572      49  148569
  148575      49  148584  148587      47  148581  148584      49  148581  148587
      49  148596  148599      47  148593  148596      49  148593  148599      49
  148608  148611      47  148605  148608      49  148605  148611      49  148620
  148623      47  148617  148620      49  148617  148623      49  148632  148635
      47  148629  148632      49  148629  148635      49  148644  148647      47
  148641  148644      49  148641  148647      49  148656  148659      47  148653
  148656      49  148653  148659      49  148668  148671      47  148665  148668
      49  148665  148671      49  148680  148683      47  148677  148680      49
  148677  148683      49  148692  148695      47  148689  148692      49  148689
  148695      49  148704  148707      47  148701  148704      49  148701  148707
      49  148716  148719      47  148713  148716      49  148713  148719      49
  148728  148731      47  148725  148728      49  148725  148731      49  148740
  148743      47  148737  148740      49  148737  148743      49  148752  148755
      47  148749  148752      49  148749  148755      49  148764  148767      47
  148761  148764      49  148761  148767      49  148776  148779      47  148773
  148776      49  148773  148779      49  148788  148791      47  148785  148788
      49  148785  148791      49  148800  148803      47  148797  148800      49
  148797  148803      49  148812  148815      47  148809  148812      49  148809
  148815      49  148824  148827      47  148821  148824      49  148821  148827
      49  148836  148839      47  148833  148836      49  148833  148839      49
  148848  148851      47  148845  148848      49  148845  148851      49  148860
  148863      47  148857  148860      49  148857  148863      49  148872  148875
      47  148869  148872      49  148869  148875      49  148884  148887      47
  148881  148884      49  148881  148887      49  148896  148899      47  148893
  148896      49  148893  148899      49  148908  148911      47  148905  148908
      49  148905  148911      49  148920  148923      47  148917  148920      49
  148917  148923      49  148932  148935      47  148929  148932      49  148929
  148935      49  148944  148947      47  148941  148944      49  148941  148947
      49  148956  148959      47  148953  148956      49  148953  148959      49
  148968  148971      47  148965  148968      49  148965  148971      49  148980
  148983      47  148977  148980      49  148977  148983      49  148992  148995
      47  148989  148992      49  148989  148995      49  149004  149007      47
  149001  149004      49  149001  149007      49  149016  149019      47  149013
  149016      49  149013  149019      49  149028  149031      47  149025  149028
      49  149025  149031      49  149040  149043      47  149037  149040      49
  149037  149043      49  149052  149055      47  149049  149052      49  149049
  149055      49  149064  149067      47  149061  149064      49  149061  149067
      49  149076  149079      47  149073  149076      49  149073  149079      49
  149088  149091      47  149085  149088      49  149085  149091      49  149100
  149103      47  149097  149100      49  149097  149103      49  149112  149115
      47  149109  149112      49  149109  149115      49  149124  149127      47
  149121  149124      49  149121  149127      49  149136  149139      47  149133
  149136      49  149133  149139      49  149148  149151      47  149145  149148
      49  149145  149151      49  149160  149163      47  149157  149160      49
  149157  149163      49  149172  149175      47  149169  149172      49  149169
  149175      49  149184  149187      47  149181  149184      49  149181  149187
      49  149196  149199      47  149193  149196      49  149193  149199      49
  149208  149211      47  149205  149208      49  149205  149211      49  149220
  149223      47  149217  149220      49  149217  149223      49  149232  149235
      47  149229  149232      49  149229  149235      49  149244  149247      47
  149241  149244      49  149241  149247      49  149256  149259      47  149253
  149256      49  149253  149259      49  149268  149271      47  149265  149268
      49  149265  149271      49  149280  149283      47  149277  149280      49
  149277  149283      49  149292  149295      47  149289  149292      49  149289
  149295      49  149304  149307      47  149301  149304      49  149301  149307
      49  149316  149319      47  149313  149316      49  149313  149319      49
  149328  149331      47  149325  149328      49  149325  149331      49  149340
  149343      47  149337  149340      49  149337  149343      49  149352  149355
      47  149349  149352      49  149349  149355      49  149364  149367      47
  149361  149364      49  149361  149367      49  149376  149379      47  149373
  149376      49  149373  149379      49  149388  149391      47  149385  149388
      49  149385  149391      49  149400  149403      47  149397  149400      49
  149397  149403      49  149412  149415      47  149409  149412      49  149409
  149415      49  149424  149427      47  149421  149424      49  149421  149427
      49  149436  149439      47  149433  149436      49  149433  149439      49
  149448  149451      47  149445  149448      49  149445  149451      49  149460
  149463      47  149457  149460      49  149457  149463      49  149472  149475
      47  149469  149472      49  149469  149475      49  149484  149487      47
  149481  149484      49  149481  149487      49  149496  149499      47  149493
  149496      49  149493  149499      49  149508  149511      47  149505  149508
      49  149505  149511      49  149520  149523      47  149517  149520      49
  149517  149523      49  149532  149535      47  149529  149532      49  149529
  149535      49  149544  149547      47  149541  149544      49  149541  149547
      49  149556  149559      47  149553  149556      49  149553  149559      49
  149568  149571      47  149565  149568      49  149565  149571      49  149580
  149583      47  149577  149580      49  149577  149583      49  149592  149595
      47  149589  149592      49  149589  149595      49  149604  149607      47
  149601  149604      49  149601  149607      49  149616  149619      47  149613
  149616      49  149613  149619      49  149628  149631      47  149625  149628
      49  149625  149631      49  149640  149643      47  149637  149640      49
  149637  149643      49  149652  149655      47  149649  149652      49  149649
  149655      49  149664  149667      47  149661  149664      49  149661  149667
      49  149676  149679      47  149673  149676      49  149673  149679      49
  149688  149691      47  149685  149688      49  149685  149691      49  149700
  149703      47  149697  149700      49  149697  149703      49  149712  149715
      47  149709  149712      49  149709  149715      49  149724  149727      47
  149721  149724      49  149721  149727      49  149736  149739      47  149733
  149736      49  149733  149739      49  149748  149751      47  149745  149748
      49  149745  149751      49  149760  149763      47  149757  149760      49
  149757  149763      49  149772  149775      47  149769  149772      49  149769
  149775      49  149784  149787      47  149781  149784      49  149781  149787
      49  149796  149799      47  149793  149796      49  149793  149799      49
  149808  149811      47  149805  149808      49  149805  149811      49  149820
  149823      47  149817  149820      49  149817  149823      49  149832  149835
      47  149829  149832      49  149829  149835      49  149844  149847      47
  149841  149844      49  149841  149847      49  149856  149859      47  149853
  149856      49  149853  149859      49  149868  149871      47  149865  149868
      49  149865  149871      49  149880  149883      47  149877  149880      49
  149877  149883      49  149892  149895      47  149889  149892      49  149889
  149895      49  149904  149907      47  149901  149904      49  149901  149907
      49  149916  149919      47  149913  149916      49  149913  149919      49
  149928  149931      47  149925  149928      49  149925  149931      49  149940
  149943      47  149937  149940      49  149937  149943      49  149952  149955
      47  149949  149952      49  149949  149955      49  149964  149967      47
  149961  149964      49  149961  149967      49  149976  149979      47  149973
  149976      49  149973  149979      49  149988  149991      47  149985  149988
      49  149985  149991      49  150000  150003      47  149997  150000      49
  149997  150003      49  150012  150015      47  150009  150012      49  150009
  150015      49  150024  150027      47  150021  150024      49  150021  150027
      49  150036  150039      47  150033  150036      49  150033  150039      49
  150048  150051      47  150045  150048      49  150045  150051      49  150060
  150063      47  150057  150060      49  150057  150063      49  150072  150075
      47  150069  150072      49  150069  150075      49  150084  150087      47
  150081  150084      49  150081  150087      49  150096  150099      47  150093
  150096      49  150093  150099      49  150108  150111      47  150105  150108
      49  150105  150111      49  150120  150123      47  150117  150120      49
  150117  150123      49  150132  150135      47  150129  150132      49  150129
  150135      49  150144  150147      47  150141  150144      49  150141  150147
      49  150156  150159      47  150153  150156      49  150153  150159      49
  150168  150171      47  150165  150168      49  150165  150171      49  150180
  150183      47  150177  150180      49  150177  150183      49  150192  150195
      47  150189  150192      49  150189  150195      49  150204  150207      47
  150201  150204      49  150201  150207      49  150216  150219      47  150213
  150216      49  150213  150219      49  150228  150231      47  150225  150228
      49  150225  150231      49  150240  150243      47  150237  150240      49
  150237  150243      49  150252  150255      47  150249  150252      49  150249
  150255      49  150264  150267      47  150261  150264      49  150261  150267
      49  150276  150279      47  150273  150276      49  150273  150279      49
  150288  150291      47  150285  150288      49  150285  150291      49  150300
  150303      47  150297  150300      49  150297  150303      49  150312  150315
      47  150309  150312      49  150309  150315      49  150324  150327      47
  150321  150324      49  150321  150327      49  150336  150339      47  150333
  150336      49  150333  150339      49  150348  150351      47  150345  150348
      49  150345  150351      49  150360  150363      47  150357  150360      49
  150357  150363      49  150372  150375      47  150369  150372      49  150369
  150375      49  150384  150387      47  150381  150384      49  150381  150387
      49  150396  150399      47  150393  150396      49  150393  150399      49
  150408  150411      47  150405  150408      49  150405  150411      49  150420
  150423      47  150417  150420      49  150417  150423      49  150432  150435
      47  150429  150432      49  150429  150435      49  150444  150447      47
  150441  150444      49  150441  150447      49  150456  150459      47  150453
  150456      49  150453  150459      49  150468  150471      47  150465  150468
      49  150465  150471      49  150480  150483      47  150477  150480      49
  150477  150483      49  150492  150495      47  150489  150492      49  150489
  150495      49  150504  150507      47  150501  150504      49  150501  150507
      49  150516  150519      47  150513  150516      49  150513  150519      49
  150528  150531      47  150525  150528      49  150525  150531      49  150540
  150543      47  150537  150540      49  150537  150543      49  150552  150555
      47  150549  150552      49  150549  150555      49  150564  150567      47
  150561  150564      49  150561  150567      49  150576  150579      47  150573
  150576      49  150573  150579      49  150588  150591      47  150585  150588
      49  150585  150591      49  150600  150603      47  150597  150600      49
  150597  150603      49  150612  150615      47  150609  150612      49  150609
  150615      49  150624  150627      47  150621  150624      49  150621  150627
      49  150636  150639      47  150633  150636      49  150633  150639      49
  150648  150651      47  150645  150648      49  150645  150651      49  150660
  150663      47  150657  150660      49  150657  150663      49  150672  150675
      47  150669  150672      49  150669  150675      49  150684  150687      47
  150681  150684      49  150681  150687      49  150696  150699      47  150693
  150696      49  150693  150699      49  150708  150711      47  150705  150708
      49  150705  150711      49  150720  150723      47  150717  150720      49
  150717  150723      49  150732  150735      47  150729  150732      49  150729
  150735      49  150744  150747      47  150741  150744      49  150741  150747
      49  150756  150759      47  150753  150756      49  150753  150759      49
  150768  150771      47  150765  150768      49  150765  150771      49  150780
  150783      47  150777  150780      49  150777  150783      49  150792  150795
      47  150789  150792      49  150789  150795      49  150804  150807      47
  150801  150804      49  150801  150807      49  150816  150819      47  150813
  150816      49  150813  150819      49  150828  150831      47  150825  150828
      49  150825  150831      49  150840  150843      47  150837  150840      49
  150837  150843      49  150852  150855      47  150849  150852      49  150849
  150855      49  150864  150867      47  150861  150864      49  150861  150867
      49  150876  150879      47  150873  150876      49  150873  150879      49
  150888  150891      47  150885  150888      49  150885  150891      49  150900
  150903      47  150897  150900      49  150897  150903      49  150912  150915
      47  150909  150912      49  150909  150915      49  150924  150927      47
  150921  150924      49  150921  150927      49  150936  150939      47  150933
  150936      49  150933  150939      49  150948  150951      47  150945  150948
      49  150945  150951      49  150960  150963      47  150957  150960      49
  150957  150963      49  150972  150975      47  150969  150972      49  150969
  150975      49  150984  150987      47  150981  150984      49  150981  150987
      49  150996  150999      47  150993  150996      49  150993  150999      49
  151008  151011      47  151005  151008      49  151005  151011      49  151020
  151023      47  151017  151020      49  151017  151023      49  151032  151035
      47  151029  151032      49  151029  151035      49  151044  151047      47
  151041  151044      49  151041  151047      49  151056  151059      47  151053
  151056      49  151053  151059      49  151068  151071      47  151065  151068
      49  151065  151071      49  151080  151083      47  151077  151080      49
  151077  151083      49  151092  151095      47  151089  151092      49  151089
  151095      49  151104  151107      47  151101  151104      49  151101  151107
      49  151116  151119      47  151113  151116      49  151113  151119      49
  151128  151131      47  151125  151128      49  151125  151131      49  151140
  151143      47  151137  151140      49  151137  151143      49  151152  151155
      47  151149  151152      49  151149  151155      49  151164  151167      47
  151161  151164      49  151161  151167      49  151176  151179      47  151173
  151176      49  151173  151179      49  151188  151191      47  151185  151188
      49  151185  151191      49  151200  151203      47  151197  151200      49
  151197  151203      49  151212  151215      47  151209  151212      49  151209
  151215      49  151224  151227      47  151221  151224      49  151221  151227
      49  151236  151239      47  151233  151236      49  151233  151239      49
  151248  151251      47  151245  151248      49  151245  151251      49  151260
  151263      47  151257  151260      49  151257  151263      49  151272  151275
      47  151269  151272      49  151269  151275      49  151284  151287      47
  151281  151284      49  151281  151287      49  151296  151299      47  151293
  151296      49  151293  151299      49  151308  151311      47  151305  151308
      49  151305  151311      49  151320  151323      47  151317  151320      49
  151317  151323      49  151332  151335      47  151329  151332      49  151329
  151335      49  151344  151347      47  151341  151344      49  151341  151347
      49  151356  151359      47  151353  151356      49  151353  151359      49
  151368  151371      47  151365  151368      49  151365  151371      49  151380
  151383      47  151377  151380      49  151377  151383      49  151392  151395
      47  151389  151392      49  151389  151395      49  151404  151407      47
  151401  151404      49  151401  151407      49  151416  151419      47  151413
  151416      49  151413  151419      49  151428  151431      47  151425  151428
      49  151425  151431      49  151440  151443      47  151437  151440      49
  151437  151443      49  151452  151455      47  151449  151452      49  151449
  151455      49  151464  151467      47  151461  151464      49  151461  151467
      49  151476  151479      47  151473  151476      49  151473  151479      49
  151488  151491      47  151485  151488      49  151485  151491      49  151500
  151503      47  151497  151500      49  151497  151503      49  151512  151515
      47  151509  151512      49  151509  151515      49  151524  151527      47
  151521  151524      49  151521  151527      49  151536  151539      47  151533
  151536      49  151533  151539      49  151548  151551      47  151545  151548
      49  151545  151551      49  151560  151563      47  151557  151560      49
  151557  151563      49  151572  151575      47  151569  151572      49  151569
  151575      49  151584  151587      47  151581  151584      49  151581  151587
      49  151596  151599      47  151593  151596      49  151593  151599      49
  151608  151611      47  151605  151608      49  151605  151611      49  151620
  151623      47  151617  151620      49  151617  151623      49  151632  151635
      47  151629  151632      49  151629  151635      49  151644  151647      47
  151641  151644      49  151641  151647      49  151656  151659      47  151653
  151656      49  151653  151659      49  151668  151671      47  151665  151668
      49  151665  151671      49  151680  151683      47  151677  151680      49
  151677  151683      49  151692  151695      47  151689  151692      49  151689
  151695      49  151704  151707      47  151701  151704      49  151701  151707
      49  151716  151719      47  151713  151716      49  151713  151719      49
  151728  151731      47  151725  151728      49  151725  151731      49  151740
  151743      47  151737  151740      49  151737  151743      49  151752  151755
      47  151749  151752      49  151749  151755      49  151764  151767      47
  151761  151764      49  151761  151767      49  151776  151779      47  151773
  151776      49  151773  151779      49  151788  151791      47  151785  151788
      49  151785  151791      49  151800  151803      47  151797  151800      49
  151797  151803      49  151812  151815      47  151809  151812      49  151809
  151815      49  151824  151827      47  151821  151824      49  151821  151827
      49  151836  151839      47  151833  151836      49  151833  151839      49
  151848  151851      47  151845  151848      49  151845  151851      49  151860
  151863      47  151857  151860      49  151857  151863      49  151872  151875
      47  151869  151872      49  151869  151875      49  151884  151887      47
  151881  151884      49  151881  151887      49  151896  151899      47  151893
  151896      49  151893  151899      49  151908  151911      47  151905  151908
      49  151905  151911      49  151920  151923      47  151917  151920      49
  151917  151923      49  151932  151935      47  151929  151932      49  151929
  151935      49  151944  151947      47  151941  151944      49  151941  151947
      49  151956  151959      47  151953  151956      49  151953  151959      49
  151968  151971      47  151965  151968      49  151965  151971      49  151980
  151983      47  151977  151980      49  151977  151983      49  151992  151995
      47  151989  151992      49  151989  151995      49  152004  152007      47
  152001  152004      49  152001  152007      49  152016  152019      47  152013
  152016      49  152013  152019      49  152028  152031      47  152025  152028
      49  152025  152031      49  152040  152043      47  152037  152040      49
  152037  152043      49  152052  152055      47  152049  152052      49  152049
  152055      49  152064  152067      47  152061  152064      49  152061  152067
      49  152076  152079      47  152073  152076      49  152073  152079      49
  152088  152091      47  152085  152088      49  152085  152091      49  152100
  152103      47  152097  152100      49  152097  152103      49  152112  152115
      47  152109  152112      49  152109  152115      49  152124  152127      47
  152121  152124      49  152121  152127      49  152136  152139      47  152133
  152136      49  152133  152139      49  152148  152151      47  152145  152148
      49  152145  152151      49  152160  152163      47  152157  152160      49
  152157  152163      49  152172  152175      47  152169  152172      49  152169
  152175      49  152184  152187      47  152181  152184      49  152181  152187
      49  152196  152199      47  152193  152196      49  152193  152199      49
  152208  152211      47  152205  152208      49  152205  152211      49  152220
  152223      47  152217  152220      49  152217  152223      49  152232  152235
      47  152229  152232      49  152229  152235      49  152244  152247      47
  152241  152244      49  152241  152247      49  152256  152259      47  152253
  152256      49  152253  152259      49  152268  152271      47  152265  152268
      49  152265  152271      49  152280  152283      47  152277  152280      49
  152277  152283      49  152292  152295      47  152289  152292      49  152289
  152295      49  152304  152307      47  152301  152304      49  152301  152307
      49  152316  152319      47  152313  152316      49  152313  152319      49
  152328  152331      47  152325  152328      49  152325  152331      49  152340
  152343      47  152337  152340      49  152337  152343      49  152352  152355
      47  152349  152352      49  152349  152355      49  152364  152367      47
  152361  152364      49  152361  152367      49  152376  152379      47  152373
  152376      49  152373  152379      49  152388  152391      47  152385  152388
      49  152385  152391      49  152400  152403      47  152397  152400      49
  152397  152403      49  152412  152415      47  152409  152412      49  152409
  152415      49  152424  152427      47  152421  152424      49  152421  152427
      49  152436  152439      47  152433  152436      49  152433  152439      49
  152448  152451      47  152445  152448      49  152445  152451      49  152460
  152463      47  152457  152460      49  152457  152463      49  152472  152475
      47  152469  152472      49  152469  152475      49  152484  152487      47
  152481  152484      49  152481  152487      49  152496  152499      47  152493
  152496      49  152493  152499      49  152508  152511      47  152505  152508
      49  152505  152511      49  152520  152523      47  152517  152520      49
  152517  152523      49  152532  152535      47  152529  152532      49  152529
  152535      49  152544  152547      47  152541  152544      49  152541  152547
      49  152556  152559      47  152553  152556      49  152553  152559      49
  152568  152571      47  152565  152568      49  152565  152571      49  152580
  152583      47  152577  152580      49  152577  152583      49  152592  152595
      47  152589  152592      49  152589  152595      49  152604  152607      47
  152601  152604      49  152601  152607      49  152616  152619      47  152613
  152616      49  152613  152619      49  152628  152631      47  152625  152628
      49  152625  152631      49  152640  152643      47  152637  152640      49
  152637  152643      49  152652  152655      47  152649  152652      49  152649
  152655      49  152664  152667      47  152661  152664      49  152661  152667
      49  152676  152679      47  152673  152676      49  152673  152679      49
  152688  152691      47  152685  152688      49  152685  152691      49  152700
  152703      47  152697  152700      49  152697  152703      49  152712  152715
      47  152709  152712      49  152709  152715      49  152724  152727      47
  152721  152724      49  152721  152727      49  152736  152739      47  152733
  152736      49  152733  152739      49  152748  152751      47  152745  152748
      49  152745  152751      49  152760  152763      47  152757  152760      49
  152757  152763      49  152772  152775      47  152769  152772      49  152769
  152775      49  152784  152787      47  152781  152784      49  152781  152787
      49  152796  152799      47  152793  152796      49  152793  152799      49
  152808  152811      47  152805  152808      49  152805  152811      49  152820
  152823      47  152817  152820      49  152817  152823      49  152832  152835
      47  152829  152832      49  152829  152835      49  152844  152847      47
  152841  152844      49  152841  152847      49  152856  152859      47  152853
  152856      49  152853  152859      49  152868  152871      47  152865  152868
      49  152865  152871      49  152880  152883      47  152877  152880      49
  152877  152883      49  152892  152895      47  152889  152892      49  152889
  152895      49  152904  152907      47  152901  152904      49  152901  152907
      49  152916  152919      47  152913  152916      49  152913  152919      49
  152928  152931      47  152925  152928      49  152925  152931      49  152940
  152943      47  152937  152940      49  152937  152943      49  152952  152955
      47  152949  152952      49  152949  152955      49  152964  152967      47
  152961  152964      49  152961  152967      49  152976  152979      47  152973
  152976      49  152973  152979      49  152988  152991      47  152985  152988
      49  152985  152991      49  153000  153003      47  152997  153000      49
  152997  153003      49  153012  153015      47  153009  153012      49  153009
  153015      49  153024  153027      47  153021  153024      49  153021  153027
      49  153036  153039      47  153033  153036      49  153033  153039      49
  153048  153051      47  153045  153048      49  153045  153051      49  153060
  153063      47  153057  153060      49  153057  153063      49  153072  153075
      47  153069  153072      49  153069  153075      49  153084  153087      47
  153081  153084      49  153081  153087      49  153096  153099      47  153093
  153096      49  153093  153099      49  153108  153111      47  153105  153108
      49  153105  153111      49  153120  153123      47  153117  153120      49
  153117  153123      49  153132  153135      47  153129  153132      49  153129
  153135      49  153144  153147      47  153141  153144      49  153141  153147
      49  153156  153159      47  153153  153156      49  153153  153159      49
  153168  153171      47  153165  153168      49  153165  153171      49  153180
  153183      47  153177  153180      49  153177  153183      49  153192  153195
      47  153189  153192      49  153189  153195      49  153204  153207      47
  153201  153204      49  153201  153207      49  153216  153219      47  153213
  153216      49  153213  153219      49  153228  153231      47  153225  153228
      49  153225  153231      49  153240  153243      47  153237  153240      49
  153237  153243      49  153252  153255      47  153249  153252      49  153249
  153255      49  153264  153267      47  153261  153264      49  153261  153267
      49  153276  153279      47  153273  153276      49  153273  153279      49
  153288  153291      47  153285  153288      49  153285  153291      49  153300
  153303      47  153297  153300      49  153297  153303      49  153312  153315
      47  153309  153312      49  153309  153315      49  153324  153327      47
  153321  153324      49  153321  153327      49  153336  153339      47  153333
  153336      49  153333  153339      49  153348  153351      47  153345  153348
      49  153345  153351      49  153360  153363      47  153357  153360      49
  153357  153363      49  153372  153375      47  153369  153372      49  153369
  153375      49  153384  153387      47  153381  153384      49  153381  153387
      49  153396  153399      47  153393  153396      49  153393  153399      49
  153408  153411      47  153405  153408      49  153405  153411      49  153420
  153423      47  153417  153420      49  153417  153423      49  153432  153435
      47  153429  153432      49  153429  153435      49  153444  153447      47
  153441  153444      49  153441  153447      49  153456  153459      47  153453
  153456      49  153453  153459      49  153468  153471      47  153465  153468
      49  153465  153471      49  153480  153483      47  153477  153480      49
  153477  153483      49  153492  153495      47  153489  153492      49  153489
  153495      49  153504  153507      47  153501  153504      49  153501  153507
      49  153516  153519      47  153513  153516      49  153513  153519      49
  153528  153531      47  153525  153528      49  153525  153531      49  153540
  153543      47  153537  153540      49  153537  153543      49  153552  153555
      47  153549  153552      49  153549  153555      49  153564  153567      47
  153561  153564      49  153561  153567      49  153576  153579      47  153573
  153576      49  153573  153579      49  153588  153591      47  153585  153588
      49  153585  153591      49  153600  153603      47  153597  153600      49
  153597  153603      49  153612  153615      47  153609  153612      49  153609
  153615      49  153624  153627      47  153621  153624      49  153621  153627
      49  153636  153639      47  153633  153636      49  153633  153639      49
  153648  153651      47  153645  153648      49  153645  153651      49  153660
  153663      47  153657  153660      49  153657  153663      49  153672  153675
      47  153669  153672      49  153669  153675      49  153684  153687      47
  153681  153684      49  153681  153687      49  153696  153699      47  153693
  153696      49  153693  153699      49  153708  153711      47  153705  153708
      49  153705  153711      49  153720  153723      47  153717  153720      49
  153717  153723      49  153732  153735      47  153729  153732      49  153729
  153735      49  153744  153747      47  153741  153744      49  153741  153747
      49  153756  153759      47  153753  153756      49  153753  153759      49
  153768  153771      47  153765  153768      49  153765  153771      49  153780
  153783      47  153777  153780      49  153777  153783      49  153792  153795
      47  153789  153792      49  153789  153795      49  153804  153807      47
  153801  153804      49  153801  153807      49  153816  153819      47  153813
  153816      49  153813  153819      49  153828  153831      47  153825  153828
      49  153825  153831      49  153840  153843      47  153837  153840      49
  153837  153843      49  153852  153855      47  153849  153852      49  153849
  153855      49  153864  153867      47  153861  153864      49  153861  153867
      49  153876  153879      47  153873  153876      49  153873  153879      49
  153888  153891      47  153885  153888      49  153885  153891      49  153900
  153903      47  153897  153900      49  153897  153903      49  153912  153915
      47  153909  153912      49  153909  153915      49  153924  153927      47
  153921  153924      49  153921  153927      49  153936  153939      47  153933
  153936      49  153933  153939      49  153948  153951      47  153945  153948
      49  153945  153951      49  153960  153963      47  153957  153960      49
  153957  153963      49  153972  153975      47  153969  153972      49  153969
  153975      49  153984  153987      47  153981  153984      49  153981  153987
      49  153996  153999      47  153993  153996      49  153993  153999      49
  154008  154011      47  154005  154008      49  154005  154011      49  154020
  154023      47  154017  154020      49  154017  154023      49  154032  154035
      47  154029  154032      49  154029  154035      49  154044  154047      47
  154041  154044      49  154041  154047      49  154056  154059      47  154053
  154056      49  154053  154059      49  154068  154071      47  154065  154068
      49  154065  154071      49  154080  154083      47  154077  154080      49
  154077  154083      49  154092  154095      47  154089  154092      49  154089
  154095      49  154104  154107      47  154101  154104      49  154101  154107
      49  154116  154119      47  154113  154116      49  154113  154119      49
  154128  154131      47  154125  154128      49  154125  154131      49  154140
  154143      47  154137  154140      49  154137  154143      49  154152  154155
      47  154149  154152      49  154149  154155      49  154164  154167      47
  154161  154164      49  154161  154167      49  154176  154179      47  154173
  154176      49  154173  154179      49  154188  154191      47  154185  154188
      49  154185  154191      49  154200  154203      47  154197  154200      49
  154197  154203      49  154212  154215      47  154209  154212      49  154209
  154215      49  154224  154227      47  154221  154224      49  154221  154227
      49  154236  154239      47  154233  154236      49  154233  154239      49
  154248  154251      47  154245  154248      49  154245  154251      49  154260
  154263      47  154257  154260      49  154257  154263      49  154272  154275
      47  154269  154272      49  154269  154275      49  154284  154287      47
  154281  154284      49  154281  154287      49  154296  154299      47  154293
  154296      49  154293  154299      49  154308  154311      47  154305  154308
      49  154305  154311      49  154320  154323      47  154317  154320      49
  154317  154323      49  154332  154335      47  154329  154332      49  154329
  154335      49  154344  154347      47  154341  154344      49  154341  154347
      49  154356  154359      47  154353  154356      49  154353  154359      49
  154368  154371      47  154365  154368      49  154365  154371      49  154380
  154383      47  154377  154380      49  154377  154383      49  154392  154395
      47  154389  154392      49  154389  154395      49  154404  154407      47
  154401  154404      49  154401  154407      49  154416  154419      47  154413
  154416      49  154413  154419      49  154428  154431      47  154425  154428
      49  154425  154431      49  154440  154443      47  154437  154440      49
  154437  154443      49  154452  154455      47  154449  154452      49  154449
  154455      49  154464  154467      47  154461  154464      49  154461  154467
      49  154476  154479      47  154473  154476      49  154473  154479      49
  154488  154491      47  154485  154488      49  154485  154491      49  154500
  154503      47  154497  154500      49  154497  154503      49  154512  154515
      47  154509  154512      49  154509  154515      49  154524  154527      47
  154521  154524      49  154521  154527      49  154536  154539      47  154533
  154536      49  154533  154539      49  154548  154551      47  154545  154548
      49  154545  154551      49  154560  154563      47  154557  154560      49
  154557  154563      49  154572  154575      47  154569  154572      49  154569
  154575      49  154584  154587      47  154581  154584      49  154581  154587
      49  154596  154599      47  154593  154596      49  154593  154599      49
  154608  154611      47  154605  154608      49  154605  154611      49  154620
  154623      47  154617  154620      49  154617  154623      49  154632  154635
      47  154629  154632      49  154629  154635      49  154644  154647      47
  154641  154644      49  154641  154647      49  154656  154659      47  154653
  154656      49  154653  154659      49  154668  154671      47  154665  154668
      49  154665  154671      49  154680  154683      47  154677  154680      49
  154677  154683      49  154692  154695      47  154689  154692      49  154689
  154695      49  154704  154707      47  154701  154704      49  154701  154707
      49  154716  154719      47  154713  154716      49  154713  154719      49
  154728  154731      47  154725  154728      49  154725  154731      49  154740
  154743      47  154737  154740      49  154737  154743      49  154752  154755
      47  154749  154752      49  154749  154755      49  154764  154767      47
  154761  154764      49  154761  154767      49  154776  154779      47  154773
  154776      49  154773  154779      49  154788  154791      47  154785  154788
      49  154785  154791      49  154800  154803      47  154797  154800      49
  154797  154803      49  154812  154815      47  154809  154812      49  154809
  154815      49  154824  154827      47  154821  154824      49  154821  154827
      49  154836  154839      47  154833  154836      49  154833  154839      49
  154848  154851      47  154845  154848      49  154845  154851      49  154860
  154863      47  154857  154860      49  154857  154863      49  154872  154875
      47  154869  154872      49  154869  154875      49  154884  154887      47
  154881  154884      49  154881  154887      49  154896  154899      47  154893
  154896      49  154893  154899      49  154908  154911      47  154905  154908
      49  154905  154911      49  154920  154923      47  154917  154920      49
  154917  154923      49  154932  154935      47  154929  154932      49  154929
  154935      49  154944  154947      47  154941  154944      49  154941  154947
      49  154956  154959      47  154953  154956      49  154953  154959      49
  154968  154971      47  154965  154968      49  154965  154971      49  154980
  154983      47  154977  154980      49  154977  154983      49  154992  154995
      47  154989  154992      49  154989  154995      49  155004  155007      47
  155001  155004      49  155001  155007      49  155016  155019      47  155013
  155016      49  155013  155019      49  155028  155031      47  155025  155028
      49  155025  155031      49  155040  155043      47  155037  155040      49
  155037  155043      49  155052  155055      47  155049  155052      49  155049
  155055      49  155064  155067      47  155061  155064      49  155061  155067
      49  155076  155079      47  155073  155076      49  155073  155079      49
  155088  155091      47  155085  155088      49  155085  155091      49  155100
  155103      47  155097  155100      49  155097  155103      49  155112  155115
      47  155109  155112      49  155109  155115      49  155124  155127      47
  155121  155124      49  155121  155127      49  155136  155139      47  155133
  155136      49  155133  155139      49  155148  155151      47  155145  155148
      49  155145  155151      49  155160  155163      47  155157  155160      49
  155157  155163      49  155172  155175      47  155169  155172      49  155169
  155175      49  155184  155187      47  155181  155184      49  155181  155187
      49  155196  155199      47  155193  155196      49  155193  155199      49
  155208  155211      47  155205  155208      49  155205  155211      49  155220
  155223      47  155217  155220      49  155217  155223      49  155232  155235
      47  155229  155232      49  155229  155235      49  155244  155247      47
  155241  155244      49  155241  155247      49  155256  155259      47  155253
  155256      49  155253  155259      49  155268  155271      47  155265  155268
      49  155265  155271      49  155280  155283      47  155277  155280      49
  155277  155283      49  155292  155295      47  155289  155292      49  155289
  155295      49  155304  155307      47  155301  155304      49  155301  155307
      49  155316  155319      47  155313  155316      49  155313  155319      49
  155328  155331      47  155325  155328      49  155325  155331      49  155340
  155343      47  155337  155340      49  155337  155343      49  155352  155355
      47  155349  155352      49  155349  155355      49  155364  155367      47
  155361  155364      49  155361  155367      49  155376  155379      47  155373
  155376      49  155373  155379      49  155388  155391      47  155385  155388
      49  155385  155391      49  155400  155403      47  155397  155400      49
  155397  155403      49  155412  155415      47  155409  155412      49  155409
  155415      49  155424  155427      47  155421  155424      49  155421  155427
      49  155436  155439      47  155433  155436      49  155433  155439      49
  155448  155451      47  155445  155448      49  155445  155451      49  155460
  155463      47  155457  155460      49  155457  155463      49  155472  155475
      47  155469  155472      49  155469  155475      49  155484  155487      47
  155481  155484      49  155481  155487      49  155496  155499      47  155493
  155496      49  155493  155499      49  155508  155511      47  155505  155508
      49  155505  155511      49  155520  155523      47  155517  155520      49
  155517  155523      49  155532  155535      47  155529  155532      49  155529
  155535      49  155544  155547      47  155541  155544      49  155541  155547
      49  155556  155559      47  155553  155556      49  155553  155559      49
  155568  155571      47  155565  155568      49  155565  155571      49  155580
  155583      47  155577  155580      49  155577  155583      49  155592  155595
      47  155589  155592      49  155589  155595      49  155604  155607      47
  155601  155604      49  155601  155607      49  155616  155619      47  155613
  155616      49  155613  155619      49  155628  155631      47  155625  155628
      49  155625  155631      49  155640  155643      47  155637  155640      49
  155637  155643      49  155652  155655      47  155649  155652      49  155649
  155655      49  155664  155667      47  155661  155664      49  155661  155667
      49  155676  155679      47  155673  155676      49  155673  155679      49
  155688  155691      47  155685  155688      49  155685  155691      49  155700
  155703      47  155697  155700      49  155697  155703      49  155712  155715
      47  155709  155712      49  155709  155715      49  155724  155727      47
  155721  155724      49  155721  155727      49  155736  155739      47  155733
  155736      49  155733  155739      49  155748  155751      47  155745  155748
      49  155745  155751      49  155760  155763      47  155757  155760      49
  155757  155763      49  155772  155775      47  155769  155772      49  155769
  155775      49  155784  155787      47  155781  155784      49  155781  155787
      49  155796  155799      47  155793  155796      49  155793  155799      49
  155808  155811      47  155805  155808      49  155805  155811      49  155820
  155823      47  155817  155820      49  155817  155823      49  155832  155835
      47  155829  155832      49  155829  155835      49  155844  155847      47
  155841  155844      49  155841  155847      49  155856  155859      47  155853
  155856      49  155853  155859      49  155868  155871      47  155865  155868
      49  155865  155871      49  155880  155883      47  155877  155880      49
  155877  155883      49  155892  155895      47  155889  155892      49  155889
  155895      49  155904  155907      47  155901  155904      49  155901  155907
      49  155916  155919      47  155913  155916      49  155913  155919      49
  155928  155931      47  155925  155928      49  155925  155931      49  155940
  155943      47  155937  155940      49  155937  155943      49  155952  155955
      47  155949  155952      49  155949  155955      49  155964  155967      47
  155961  155964      49  155961  155967      49  155976  155979      47  155973
  155976      49  155973  155979      49  155988  155991      47  155985  155988
      49  155985  155991      49  156000  156003      47  155997  156000      49
  155997  156003      49  156012  156015      47  156009  156012      49  156009
  156015      49  156024  156027      47  156021  156024      49  156021  156027
      49  156036  156039      47  156033  156036      49  156033  156039      49
  156048  156051      47  156045  156048      49  156045  156051      49  156060
  156063      47  156057  156060      49  156057  156063      49  156072  156075
      47  156069  156072      49  156069  156075      49  156084  156087      47
  156081  156084      49  156081  156087      49  156096  156099      47  156093
  156096      49  156093  156099      49  156108  156111      47  156105  156108
      49  156105  156111      49  156120  156123      47  156117  156120      49
  156117  156123      49  156132  156135      47  156129  156132      49  156129
  156135      49  156144  156147      47  156141  156144      49  156141  156147
      49  156156  156159      47  156153  156156      49  156153  156159      49
  156168  156171      47  156165  156168      49  156165  156171      49  156180
  156183      47  156177  156180      49  156177  156183      49  156192  156195
      47  156189  156192      49  156189  156195      49  156204  156207      47
  156201  156204      49  156201  156207      49  156216  156219      47  156213
  156216      49  156213  156219      49  156228  156231      47  156225  156228
      49  156225  156231      49  156240  156243      47  156237  156240      49
  156237  156243      49  156252  156255      47  156249  156252      49  156249
  156255      49  156264  156267      47  156261  156264      49  156261  156267
      49  156276  156279      47  156273  156276      49  156273  156279      49
  156288  156291      47  156285  156288      49  156285  156291      49  156300
  156303      47  156297  156300      49  156297  156303      49  156312  156315
      47  156309  156312      49  156309  156315      49  156324  156327      47
  156321  156324      49  156321  156327      49  156336  156339      47  156333
  156336      49  156333  156339      49  156348  156351      47  156345  156348
      49  156345  156351      49  156360  156363      47  156357  156360      49
  156357  156363      49  156372  156375      47  156369  156372      49  156369
  156375      49  156384  156387      47  156381  156384      49  156381  156387
      49  156396  156399      47  156393  156396      49  156393  156399      49
  156408  156411      47  156405  156408      49  156405  156411      49  156420
  156423      47  156417  156420      49  156417  156423      49  156432  156435
      47  156429  156432      49  156429  156435      49  156444  156447      47
  156441  156444      49  156441  156447      49  156456  156459      47  156453
  156456      49  156453  156459      49  156468  156471      47  156465  156468
      49  156465  156471      49  156480  156483      47  156477  156480      49
  156477  156483      49  156492  156495      47  156489  156492      49  156489
  156495      49  156504  156507      47  156501  156504      49  156501  156507
      49  156516  156519      47  156513  156516      49  156513  156519      49
  156528  156531      47  156525  156528      49  156525  156531      49  156540
  156543      47  156537  156540      49  156537  156543      49  156552  156555
      47  156549  156552      49  156549  156555      49  156564  156567      47
  156561  156564      49  156561  156567      49  156576  156579      47  156573
  156576      49  156573  156579      49  156588  156591      47  156585  156588
      49  156585  156591      49  156600  156603      47  156597  156600      49
  156597  156603      49  156612  156615      47  156609  156612      49  156609
  156615      49  156624  156627      47  156621  156624      49  156621  156627
      49  156636  156639      47  156633  156636      49  156633  156639      49
  156648  156651      47  156645  156648      49  156645  156651      49  156660
  156663      47  156657  156660      49  156657  156663      49  156672  156675
      47  156669  156672      49  156669  156675      49  156684  156687      47
  156681  156684      49  156681  156687      49  156696  156699      47  156693
  156696      49  156693  156699      49  156708  156711      47  156705  156708
      49  156705  156711      49  156720  156723      47  156717  156720      49
  156717  156723      49  156732  156735      47  156729  156732      49  156729
  156735      49  156744  156747      47  156741  156744      49  156741  156747
      49  156756  156759      47  156753  156756      49  156753  156759      49
  156768  156771      47  156765  156768      49  156765  156771      49  156780
  156783      47  156777  156780      49  156777  156783      49  156792  156795
      47  156789  156792      49  156789  156795      49  156804  156807      47
  156801  156804      49  156801  156807      49  156816  156819      47  156813
  156816      49  156813  156819      49  156828  156831      47  156825  156828
      49  156825  156831      49  156840  156843      47  156837  156840      49
  156837  156843      49  156852  156855      47  156849  156852      49  156849
  156855      49  156864  156867      47  156861  156864      49  156861  156867
      49  156876  156879      47  156873  156876      49  156873  156879      49
  156888  156891      47  156885  156888      49  156885  156891      49  156900
  156903      47  156897  156900      49  156897  156903      49  156912  156915
      47  156909  156912      49  156909  156915      49  156924  156927      47
  156921  156924      49  156921  156927      49  156936  156939      47  156933
  156936      49  156933  156939      49  156948  156951      47  156945  156948
      49  156945  156951      49  156960  156963      47  156957  156960      49
  156957  156963      49  156972  156975      47  156969  156972      49  156969
  156975      49  156984  156987      47  156981  156984      49  156981  156987
      49  156996  156999      47  156993  156996      49  156993  156999      49
  157008  157011      47  157005  157008      49  157005  157011      49  157020
  157023      47  157017  157020      49  157017  157023      49  157032  157035
      47  157029  157032      49  157029  157035      49  157044  157047      47
  157041  157044      49  157041  157047      49  157056  157059      47  157053
  157056      49  157053  157059      49  157068  157071      47  157065  157068
      49  157065  157071      49  157080  157083      47  157077  157080      49
  157077  157083      49  157092  157095      47  157089  157092      49  157089
  157095      49  157104  157107      47  157101  157104      49  157101  157107
      49  157116  157119      47  157113  157116      49  157113  157119      49
  157128  157131      47  157125  157128      49  157125  157131      49  157140
  157143      47  157137  157140      49  157137  157143      49  157152  157155
      47  157149  157152      49  157149  157155      49  157164  157167      47
  157161  157164      49  157161  157167      49  157176  157179      47  157173
  157176      49  157173  157179      49  157188  157191      47  157185  157188
      49  157185  157191      49  157200  157203      47  157197  157200      49
  157197  157203      49  157212  157215      47  157209  157212      49  157209
  157215      49  157224  157227      47  157221  157224      49  157221  157227
      49  157236  157239      47  157233  157236      49  157233  157239      49
  157248  157251      47  157245  157248      49  157245  157251      49  157260
  157263      47  157257  157260      49  157257  157263      49  157272  157275
      47  157269  157272      49  157269  157275      49  157284  157287      47
  157281  157284      49  157281  157287      49  157296  157299      47  157293
  157296      49  157293  157299      49  157308  157311      47  157305  157308
      49  157305  157311      49  157320  157323      47  157317  157320      49
  157317  157323      49  157332  157335      47  157329  157332      49  157329
  157335      49  157344  157347      47  157341  157344      49  157341  157347
      49  157356  157359      47  157353  157356      49  157353  157359      49
  157368  157371      47  157365  157368      49  157365  157371      49  157380
  157383      47  157377  157380      49  157377  157383      49  157392  157395
      47  157389  157392      49  157389  157395      49  157404  157407      47
  157401  157404      49  157401  157407      49  157416  157419      47  157413
  157416      49  157413  157419      49  157428  157431      47  157425  157428
      49  157425  157431      49  157440  157443      47  157437  157440      49
  157437  157443      49  157452  157455      47  157449  157452      49  157449
  157455      49  157464  157467      47  157461  157464      49  157461  157467
      49  157476  157479      47  157473  157476      49  157473  157479      49
  157488  157491      47  157485  157488      49  157485  157491      49  157500
  157503      47  157497  157500      49  157497  157503      49  157512  157515
      47  157509  157512      49  157509  157515      49  157524  157527      47
  157521  157524      49  157521  157527      49  157536  157539      47  157533
  157536      49  157533  157539      49  157548  157551      47  157545  157548
      49  157545  157551      49  157560  157563      47  157557  157560      49
  157557  157563      49  157572  157575      47  157569  157572      49  157569
  157575      49  157584  157587      47  157581  157584      49  157581  157587
      49  157596  157599      47  157593  157596      49  157593  157599      49
  157608  157611      47  157605  157608      49  157605  157611      49  157620
  157623      47  157617  157620      49  157617  157623      49  157632  157635
      47  157629  157632      49  157629  157635      49  157644  157647      47
  157641  157644      49  157641  157647      49  157656  157659      47  157653
  157656      49  157653  157659      49  157668  157671      47  157665  157668
      49  157665  157671      49  157680  157683      47  157677  157680      49
  157677  157683      49  157692  157695      47  157689  157692      49  157689
  157695      49  157704  157707      47  157701  157704      49  157701  157707
      49  157716  157719      47  157713  157716      49  157713  157719      49
  157728  157731      47  157725  157728      49  157725  157731      49  157740
  157743      47  157737  157740      49  157737  157743      49  157752  157755
      47  157749  157752      49  157749  157755      49  157764  157767      47
  157761  157764      49  157761  157767      49  157776  157779      47  157773
  157776      49  157773  157779      49  157788  157791      47  157785  157788
      49  157785  157791      49  157800  157803      47  157797  157800      49
  157797  157803      49  157812  157815      47  157809  157812      49  157809
  157815      49  157824  157827      47  157821  157824      49  157821  157827
      49  157836  157839      47  157833  157836      49  157833  157839      49
  157848  157851      47  157845  157848      49  157845  157851      49  157860
  157863      47  157857  157860      49  157857  157863      49  157872  157875
      47  157869  157872      49  157869  157875      49  157884  157887      47
  157881  157884      49  157881  157887      49  157896  157899      47  157893
  157896      49  157893  157899      49  157908  157911      47  157905  157908
      49  157905  157911      49  157920  157923      47  157917  157920      49
  157917  157923      49  157932  157935      47  157929  157932      49  157929
  157935      49  157944  157947      47  157941  157944      49  157941  157947
      49  157956  157959      47  157953  157956      49  157953  157959      49
  157968  157971      47  157965  157968      49  157965  157971      49  157980
  157983      47  157977  157980      49  157977  157983      49  157992  157995
      47  157989  157992      49  157989  157995      49  158004  158007      47
  158001  158004      49  158001  158007      49  158016  158019      47  158013
  158016      49  158013  158019      49  158028  158031      47  158025  158028
      49  158025  158031      49  158040  158043      47  158037  158040      49
  158037  158043      49  158052  158055      47  158049  158052      49  158049
  158055      49  158064  158067      47  158061  158064      49  158061  158067
      49  158076  158079      47  158073  158076      49  158073  158079      49
  158088  158091      47  158085  158088      49  158085  158091      49  158100
  158103      47  158097  158100      49  158097  158103      49  158112  158115
      47  158109  158112      49  158109  158115      49  158124  158127      47
  158121  158124      49  158121  158127      49  158136  158139      47  158133
  158136      49  158133  158139      49  158148  158151      47  158145  158148
      49  158145  158151      49  158160  158163      47  158157  158160      49
  158157  158163      49  158172  158175      47  158169  158172      49  158169
  158175      49  158184  158187      47  158181  158184      49  158181  158187
      49  158196  158199      47  158193  158196      49  158193  158199      49
  158208  158211      47  158205  158208      49  158205  158211      49  158220
  158223      47  158217  158220      49  158217  158223      49  158232  158235
      47  158229  158232      49  158229  158235      49  158244  158247      47
  158241  158244      49  158241  158247      49  158256  158259      47  158253
  158256      49  158253  158259      49  158268  158271      47  158265  158268
      49  158265  158271      49  158280  158283      47  158277  158280      49
  158277  158283      49  158292  158295      47  158289  158292      49  158289
  158295      49  158304  158307      47  158301  158304      49  158301  158307
      49  158316  158319      47  158313  158316      49  158313  158319      49
  158328  158331      47  158325  158328      49  158325  158331      49  158340
  158343      47  158337  158340      49  158337  158343      49  158352  158355
      47  158349  158352      49  158349  158355      49  158364  158367      47
  158361  158364      49  158361  158367      49  158376  158379      47  158373
  158376      49  158373  158379      49  158388  158391      47  158385  158388
      49  158385  158391      49  158400  158403      47  158397  158400      49
  158397  158403      49  158412  158415      47  158409  158412      49  158409
  158415      49  158424  158427      47  158421  158424      49  158421  158427
      49  158436  158439      47  158433  158436      49  158433  158439      49
  158448  158451      47  158445  158448      49  158445  158451      49  158460
  158463      47  158457  158460      49  158457  158463      49  158472  158475
      47  158469  158472      49  158469  158475      49  158484  158487      47
  158481  158484      49  158481  158487      49  158496  158499      47  158493
  158496      49  158493  158499      49  158508  158511      47  158505  158508
      49  158505  158511      49  158520  158523      47  158517  158520      49
  158517  158523      49  158532  158535      47  158529  158532      49  158529
  158535      49  158544  158547      47  158541  158544      49  158541  158547
      49  158556  158559      47  158553  158556      49  158553  158559      49
  158568  158571      47  158565  158568      49  158565  158571      49  158580
  158583      47  158577  158580      49  158577  158583      49  158592  158595
      47  158589  158592      49  158589  158595      49  158604  158607      47
  158601  158604      49  158601  158607      49  158616  158619      47  158613
  158616      49  158613  158619      49  158628  158631      47  158625  158628
      49  158625  158631      49    6981    7014      50    6978    7011      52
    6963    7008      57    6960    7005      57    6957    7002      57    6954
    6999      57    6951    6996      57    6945    6990      60    6945    6993
      60    6939    6987      63    6933    6984      67
%FLAG BONDS_WITHOUT_HYDROGEN                                                    
%FORMAT(10I8)                                                                   
      93      96       1      81      87       4      75      81       5      75
      93       6      69      72       7      57      60       9      57      69
      10      51      57      12      45      48      13      45      51      14
      42      45      15      42      72      16      39      42      17      33
      39      19      30      33      20      30      72      21      24      30
      23      24      81       5      21      24       6      15      21       6
      15      75       5       6      15      25       3       6      26     195
     198       1     183     189       4     177     183       5     177     195
       6     171     174       7     159     162       9     159     171      10
     153     159      12     147     150      13     147     153      14     144
     147      15     144     174      16     141     144      17     135     141
      19     132     135      20     132     174      21     126     132      23
     126     183       5     123     126       6     117     123       6     117
     177       5     108     117      25     105     108      27      96      99
      28      96     102      28      96     105       1     294     297       1
     282     288       4     276     282       5     276     294       6     270
     273       7     264     270      30     261     264      30     249     252
       9     249     261      10     246     249      31     246     273      16
     243     246      17     237     243      33     234     237      34     234
     273      21     228     234      23     228     282       5     225     228
       6     219     225       6     219     276       5     210     219      25
     207     210      27     198     201      28     198     204      28     198
     207       1     384     387       1     372     378       4     366     372
       5     366     384       6     360     363      13     354     360      14
     348     351      13     348     354      14     342     348      36     336
     342      38     333     336      39     333     360      40     327     333
      23     327     372       5     324     327       6     318     324       6
     318     366       5     309     318      25     306     309      27     297
     300      28     297     303      28     297     306       1     477     480
       1     465     471       4     459     465       5     459     477       6
     453     456      13     450     453      41     438     441       9     438
     450      10     432     438      43     426     432      45     423     426
      46     423     453      40     417     423      23     417     465       5
     414     417       6     408     414       6     408     459       5     399
     408      25     396     399      27     387     390      28     387     393
      28     387     396       1     576     579       1     564     570       4
     558     564       5     558     576       6     552     555       7     546
     552      30     543     546      30     531     534       9     531     543
      10     528     531      31     528     555      16     525     528      17
     519     525      33     516     519      34     516     555      21     510
     516      23     510     564       5     507     510       6     501     507
       6     501     558       5     492     501      25     489     492      27
     480     483      28     480     486      28     480     489       1     666
     669       1     654     660       4     648     654       5     648     666
       6     642     645      13     636     642      14     630     633      13
     630     636      14     624     630      36     618     624      38     615
     618      39     615     642      40     609     615      23     609     654
       5     606     609       6     600     606       6     600     648       5
     591     600      25     588     591      27     579     582      28     579
     585      28     579     588       1     765     768       1     753     759
       4     747     753       5     747     765       6     741     744       7
     735     741      30     732     735      30     720     723       9     720
     732      10     717     720      31     717     744      16     714     717
      17     708     714      33     705     708      34     705     744      21
     699     705      23     699     753       5     696     699       6     690
     696       6     690     747       5     681     690      25     678     681
      27     669     672      28     669     675      28     669     678       1
     855     858       1     843     849       4     837     843       5     837
     855       6     831     834      13     825     831      14     819     822
      13     819     825      14     813     819      36     807     813      38
     804     807      39     804     831      40     798     804      23     798
     843       5     795     798       6     789     795       6     789     837
       5     780     789      25     777     780      27     768     771      28
     768     774      28     768     777       1     954     957       1     942
     948       4     936     942       5     936     954       6     930     933
       7     924     930      30     921     924      30     909     912       9
     909     921      10     906     909      31     906     933      16     903
     906      17     897     903      33     894     897      34     894     933
      21     888     894      23     888     942       5     885     888       6
     879     885       6     879     936       5     870     879      25     867
     870      27     858     861      28     858     864      28     858     867
       1    1053    1056       1    1041    1047       4    1035    1041       5
    1035    1053       6    1029    1032       7    1023    1029      30    1020
    1023      30    1008    1011       9    1008    1020      10    1005    1008
      31    1005    1032      16    1002    1005      17     996    1002      33
     993     996      34     993    1032      21     987     993      23     987
    1041       5     984     987       6     978     984       6     978    1035
       5     969     978      25     966     969      27     957     960      28
     957     963      28     957     966       1    1143    1146       1    1131
    1137       4    1125    1131       5    1125    1143       6    1119    1122
      13    1113    1119      14    1107    1110      13    1107    1113      14
    1101    1107      36    1095    1101      38    1092    1095      39    1092
    1119      40    1086    1092      23    1086    1131       5    1083    1086
       6    1077    1083       6    1077    1125       5    1068    1077      25
    1065    1068      27    1056    1059      28    1056    1062      28    1056
    1065       1    1236    1239       1    1224    1230       4    1218    1224
       5    1218    1236       6    1212    1215      13    1209    1212      41
    1197    1200       9    1197    1209      10    1191    1197      43    1185
    1191      45    1182    1185      46    1182    1212      40    1176    1182
      23    1176    1224       5    1173    1176       6    1167    1173       6
    1167    1218       5    1158    1167      25    1155    1158      27    1146
    1149      28    1146    1152      28    1146    1155       1    1338    1341
       1    1326    1332       4    1320    1326       5    1320    1338       6
    1314    1317       7    1302    1305       9    1302    1314      10    1296
    1302      12    1290    1293      13    1290    1296      14    1287    1290
      15    1287    1317      16    1284    1287      17    1278    1284      19
    1275    1278      20    1275    1317      21    1269    1275      23    1269
    1326       5    1266    1269       6    1260    1266       6    1260    1320
       5    1251    1260      25    1248    1251      27    1239    1242      28
    1239    1245      28    1239    1248       1    1431    1434       1    1419
    1425       4    1413    1419       5    1413    1431       6    1407    1410
      13    1404    1407      41    1392    1395       9    1392    1404      10
    1386    1392      43    1380    1386      45    1377    1380      46    1377
    1407      40    1371    1377      23    1371    1419       5    1368    1371
       6    1362    1368       6    1362    1413       5    1353    1362      25
    1350    1353      27    1341    1344      28    1341    1347      28    1341
    1350       1    1533    1536       1    1521    1527       4    1515    1521
       5    1515    1533       6    1509    1512       7    1497    1500       9
    1497    1509      10    1491    1497      12    1485    1488      13    1485
    1491      14    1482    1485      15    1482    1512      16    1479    1482
      17    1473    1479      19    1470    1473      20    1470    1512      21
    1464    1470      23    1464    1521       5    1461    1464       6    1455
    1461       6    1455    1515       5    1446    1455      25    1443    1446
      27    1434    1437      28    1434    1440      28    1434    1443       1
    1623    1626       1    1611    1617       4    1605    1611       5    1605
    1623       6    1599    1602      13    1593    1599      14    1587    1590
      13    1587    1593      14    1581    1587      36    1575    1581      38
    1572    1575      39    1572    1599      40    1566    1572      23    1566
    1611       5    1563    1566       6    1557    1563       6    1557    1605
       5    1548    1557      25    1545    1548      27    1536    1539      28
    1536    1542      28    1536    1545       1    1725    1728       1    1713
    1719       4    1707    1713       5    1707    1725       6    1701    1704
       7    1689    1692       9    1689    1701      10    1683    1689      12
    1677    1680      13    1677    1683      14    1674    1677      15    1674
    1704      16    1671    1674      17    1665    1671      19    1662    1665
      20    1662    1704      21    1656    1662      23    1656    1713       5
    1653    1656       6    1647    1653       6    1647    1707       5    1638
    1647      25    1635    1638      27    1626    1629      28    1626    1632
      28    1626    1635       1    1827    1830       1    1815    1821       4
    1809    1815       5    1809    1827       6    1803    1806       7    1791
    1794       9    1791    1803      10    1785    1791      12    1779    1782
      13    1779    1785      14    1776    1779      15    1776    1806      16
    1773    1776      17    1767    1773      19    1764    1767      20    1764
    1806      21    1758    1764      23    1758    1815       5    1755    1758
       6    1749    1755       6    1749    1809       5    1740    1749      25
    1737    1740      27    1728    1731      28    1728    1734      28    1728
    1737       1    1926    1929       1    1914    1920       4    1908    1914
       5    1908    1926       6    1902    1905       7    1896    1902      30
    1893    1896      30    1881    1884       9    1881    1893      10    1878
    1881      31    1878    1905      16    1875    1878      17    1869    1875
      33    1866    1869      34    1866    1905      21    1860    1866      23
    1860    1914       5    1857    1860       6    1851    1857       6    1851
    1908       5    1842    1851      25    1839    1842      27    1830    1833
      28    1830    1836      28    1830    1839       1    2016    2019       1
    2004    2010       4    1998    2004       5    1998    2016       6    1992
    1995      13    1986    1992      14    1980    1983      13    1980    1986
      14    1974    1980      36    1968    1974      38    1965    1968      39
    1965    1992      40    1959    1965      23    1959    2004       5    1956
    1959       6    1950    1956       6    1950    1998       5    1941    1950
      25    1938    1941      27    1929    1932      28    1929    1935      28
    1929    1938       1    2115    2118       1    2103    2109       4    2097
    2103       5    2097    2115       6    2091    2094       7    2085    2091
      30    2082    2085      30    2070    2073       9    2070    2082      10
    2067    2070      31    2067    2094      16    2064    2067      17    2058
    2064      33    2055    2058      34    2055    2094      21    2049    2055
      23    2049    2103       5    2046    2049       6    2040    2046       6
    2040    2097       5    2031    2040      25    2028    2031      27    2019
    2022      28    2019    2025      28    2019    2028       1    2205    2208
       1    2193    2199       4    2187    2193       5    2187    2205       6
    2181    2184      13    2175    2181      14    2169    2172      13    2169
    2175      14    2163    2169      36    2157    2163      38    2154    2157
      39    2154    2181      40    2148    2154      23    2148    2193       5
    2145    2148       6    2139    2145       6    2139    2187       5    2130
    2139      25    2127    2130      27    2118    2121      28    2118    2124
      28    2118    2127       1    2307    2310       1    2295    2301       4
    2289    2295       5    2289    2307       6    2283    2286       7    2271
    2274       9    2271    2283      10    2265    2271      12    2259    2262
      13    2259    2265      14    2256    2259      15    2256    2286      16
    2253    2256      17    2247    2253      19    2244    2247      20    2244
    2286      21    2238    2244      23    2238    2295       5    2235    2238
       6    2229    2235       6    2229    2289       5    2220    2229      25
    2217    2220      27    2208    2211      28    2208    2214      28    2208
    2217       1    2409    2412       1    2397    2403       4    2391    2397
       5    2391    2409       6    2385    2388       7    2373    2376       9
    2373    2385      10    2367    2373      12    2361    2364      13    2361
    2367      14    2358    2361      15    2358    2388      16    2355    2358
      17    2349    2355      19    2346    2349      20    2346    2388      21
    2340    2346      23    2340    2397       5    2337    2340       6    2331
    2337       6    2331    2391       5    2322    2331      25    2319    2322
      27    2310    2313      28    2310    2316      28    2310    2319       1
    2502    2505       1    2490    2496       4    2484    2490       5    2484
    2502       6    2478    2481      13    2475    2478      41    2463    2466
       9    2463    2475      10    2457    2463      43    2451    2457      45
    2448    2451      46    2448    2478      40    2442    2448      23    2442
    2490       5    2439    2442       6    2433    2439       6    2433    2484
       5    2424    2433      25    2421    2424      27    2412    2415      28
    2412    2418      28    2412    2421       1    2601    2604       1    2589
    2595       4    2583    2589       5    2583    2601       6    2577    2580
       7    2571    2577      30    2568    2571      30    2556    2559       9
    2556    2568      10    2553    2556      31    2553    2580      16    2550
    2553      17    2544    2550      33    2541    2544      34    2541    2580
      21    2535    2541      23    2535    2589       5    2532    2535       6
    2526    2532       6    2526    2583       5    2517    2526      25    2514
    2517      27    2505    2508      28    2505    2511      28    2505    2514
       1    2694    2697       1    2682    2688       4    2676    2682       5
    2676    2694       6    2670    2673      13    2667    2670      41    2655
    2658       9    2655    2667      10    2649    2655      43    2643    2649
      45    2640    2643      46    2640    2670      40    2634    2640      23
    2634    2682       5    2631    2634       6    2625    2631       6    2625
    2676       5    2616    2625      25    2613    2616      27    2604    2607
      28    2604    2610      28    2604    2613       1    2796    2799       1
    2784    2790       4    2778    2784       5    2778    2796       6    2772
    2775       7    2760    2763       9    2760    2772      10    2754    2760
      12    2748    2751      13    2748    2754      14    2745    2748      15
    2745    2775      16    2742    2745      17    2736    2742      19    2733
    2736      20    2733    2775      21    2727    2733      23    2727    2784
       5    2724    2727       6    2718    2724       6    2718    2778       5
    2709    2718      25    2706    2709      27    2697    2700      28    2697
    2703      28    2697    2706       1    2889    2892       1    2877    2883
       4    2871    2877       5    2871    2889       6    2865    2868      13
    2862    2865      41    2850    2853       9    2850    2862      10    2844
    2850      43    2838    2844      45    2835    2838      46    2835    2865
      40    2829    2835      23    2829    2877       5    2826    2829       6
    2820    2826       6    2820    2871       5    2811    2820      25    2808
    2811      27    2799    2802      28    2799    2805      28    2799    2808
       1    2988    2991       1    2976    2982       4    2970    2976       5
    2970    2988       6    2964    2967       7    2958    2964      30    2955
    2958      30    2943    2946       9    2943    2955      10    2940    2943
      31    2940    2967      16    2937    2940      17    2931    2937      33
    2928    2931      34    2928    2967      21    2922    2928      23    2922
    2976       5    2919    2922       6    2913    2919       6    2913    2970
       5    2904    2913      25    2901    2904      27    2892    2895      28
    2892    2898      28    2892    2901       1    3087    3090       1    3075
    3081       4    3069    3075       5    3069    3087       6    3063    3066
       7    3057    3063      30    3054    3057      30    3042    3045       9
    3042    3054      10    3039    3042      31    3039    3066      16    3036
    3039      17    3030    3036      33    3027    3030      34    3027    3066
      21    3021    3027      23    3021    3075       5    3018    3021       6
    3012    3018       6    3012    3069       5    3003    3012      25    3000
    3003      27    2991    2994      28    2991    2997      28    2991    3000
       1    3189    3192       1    3177    3183       4    3171    3177       5
    3171    3189       6    3165    3168       7    3153    3156       9    3153
    3165      10    3147    3153      12    3141    3144      13    3141    3147
      14    3138    3141      15    3138    3168      16    3135    3138      17
    3129    3135      19    3126    3129      20    3126    3168      21    3120
    3126      23    3120    3177       5    3117    3120       6    3111    3117
       6    3111    3171       5    3102    3111      25    3099    3102      27
    3090    3093      28    3090    3096      28    3090    3099       1    3279
    3282       1    3267    3273       4    3261    3267       5    3261    3279
       6    3255    3258      13    3249    3255      14    3243    3246      13
    3243    3249      14    3237    3243      36    3231    3237      38    3228
    3231      39    3228    3255      40    3222    3228      23    3222    3267
       5    3219    3222       6    3213    3219       6    3213    3261       5
    3204    3213      25    3201    3204      27    3192    3195      28    3192
    3198      28    3192    3201       1    3369    3372       1    3357    3363
       4    3351    3357       5    3351    3369       6    3345    3348      13
    3339    3345      14    3333    3336      13    3333    3339      14    3327
    3333      36    3321    3327      38    3318    3321      39    3318    3345
      40    3312    3318      23    3312    3357       5    3309    3312       6
    3303    3309       6    3303    3351       5    3294    3303      25    3291
    3294      27    3282    3285      28    3282    3288      28    3282    3291
       1    3459    3462       1    3447    3453       4    3441    3447       5
    3441    3459       6    3435    3438      13    3429    3435      14    3423
    3426      13    3423    3429      14    3417    3423      36    3411    3417
      38    3408    3411      39    3408    3435      40    3402    3408      23
    3402    3447       5    3399    3402       6    3393    3399       6    3393
    3441       5    3384    3393      25    3381    3384      27    3372    3375
      28    3372    3378      28    3372    3381       1    3552    3555       1
    3540    3546       4    3534    3540       5    3534    3552       6    3528
    3531      13    3525    3528      41    3513    3516       9    3513    3525
      10    3507    3513      43    3501    3507      45    3498    3501      46
    3498    3528      40    3492    3498      23    3492    3540       5    3489
    3492       6    3483    3489       6    3483    3534       5    3474    3483
      25    3471    3474      27    3462    3465      28    3462    3468      28
    3462    3471       1    3642    3645       1    3630    3636       4    3624
    3630       5    3624    3642       6    3618    3621      13    3612    3618
      14    3606    3609      13    3606    3612      14    3600    3606      36
    3594    3600      38    3591    3594      39    3591    3618      40    3585
    3591      23    3585    3630       5    3582    3585       6    3576    3582
       6    3576    3624       5    3567    3576      25    3564    3567      27
    3555    3558      28    3555    3561      28    3555    3564       1    3741
    3744       1    3729    3735       4    3723    3729       5    3723    3741
       6    3717    3720       7    3711    3717      30    3708    3711      30
    3696    3699       9    3696    3708      10    3693    3696      31    3693
    3720      16    3690    3693      17    3684    3690      33    3681    3684
      34    3681    3720      21    3675    3681      23    3675    3729       5
    3672    3675       6    3666    3672       6    3666    3723       5    3657
    3666      25    3654    3657      27    3645    3648      28    3645    3651
      28    3645    3654       1    3834    3837       1    3822    3828       4
    3816    3822       5    3816    3834       6    3810    3813      13    3807
    3810      41    3795    3798       9    3795    3807      10    3789    3795
      43    3783    3789      45    3780    3783      46    3780    3810      40
    3774    3780      23    3774    3822       5    3771    3774       6    3765
    3771       6    3765    3816       5    3756    3765      25    3753    3756
      27    3744    3747      28    3744    3750      28    3744    3753       1
    3927    3930       1    3915    3921       4    3909    3915       5    3909
    3927       6    3903    3906      13    3900    3903      41    3888    3891
       9    3888    3900      10    3882    3888      43    3876    3882      45
    3873    3876      46    3873    3903      40    3867    3873      23    3867
    3915       5    3864    3867       6    3858    3864       6    3858    3909
       5    3849    3858      25    3846    3849      27    3837    3840      28
    3837    3843      28    3837    3846       1    4029    4032       1    4017
    4023       4    4011    4017       5    4011    4029       6    4005    4008
       7    3993    3996       9    3993    4005      10    3987    3993      12
    3981    3984      13    3981    3987      14    3978    3981      15    3978
    4008      16    3975    3978      17    3969    3975      19    3966    3969
      20    3966    4008      21    3960    3966      23    3960    4017       5
    3957    3960       6    3951    3957       6    3951    4011       5    3942
    3951      25    3939    3942      27    3930    3933      28    3930    3936
      28    3930    3939       1    4131    4134       1    4119    4125       4
    4113    4119       5    4113    4131       6    4107    4110       7    4095
    4098       9    4095    4107      10    4089    4095      12    4083    4086
      13    4083    4089      14    4080    4083      15    4080    4110      16
    4077    4080      17    4071    4077      19    4068    4071      20    4068
    4110      21    4062    4068      23    4062    4119       5    4059    4062
       6    4053    4059       6    4053    4113       5    4044    4053      25
    4041    4044      27    4032    4035      28    4032    4038      28    4032
    4041       1    4233    4236       1    4221    4227       4    4215    4221
       5    4215    4233       6    4209    4212       7    4197    4200       9
    4197    4209      10    4191    4197      12    4185    4188      13    4185
    4191      14    4182    4185      15    4182    4212      16    4179    4182
      17    4173    4179      19    4170    4173      20    4170    4212      21
    4164    4170      23    4164    4221       5    4161    4164       6    4155
    4161       6    4155    4215       5    4146    4155      25    4143    4146
      27    4134    4137      28    4134    4140      28    4134    4143       1
    4326    4329       1    4314    4320       4    4308    4314       5    4308
    4326       6    4302    4305      13    4299    4302      41    4287    4290
       9    4287    4299      10    4281    4287      43    4275    4281      45
    4272    4275      46    4272    4302      40    4266    4272      23    4266
    4314       5    4263    4266       6    4257    4263       6    4257    4308
       5    4248    4257      25    4245    4248      27    4236    4239      28
    4236    4242      28    4236    4245       1    4425    4428       1    4413
    4419       4    4407    4413       5    4407    4425       6    4401    4404
       7    4395    4401      30    4392    4395      30    4380    4383       9
    4380    4392      10    4377    4380      31    4377    4404      16    4374
    4377      17    4368    4374      33    4365    4368      34    4365    4404
      21    4359    4365      23    4359    4413       5    4356    4359       6
    4350    4356       6    4350    4407       5    4341    4350      25    4338
    4341      27    4329    4332      28    4329    4335      28    4329    4338
       1    4518    4521       1    4506    4512       4    4500    4506       5
    4500    4518       6    4494    4497      13    4491    4494      41    4479
    4482       9    4479    4491      10    4473    4479      43    4467    4473
      45    4464    4467      46    4464    4494      40    4458    4464      23
    4458    4506       5    4455    4458       6    4449    4455       6    4449
    4500       5    4440    4449      25    4437    4440      27    4428    4431
      28    4428    4434      28    4428    4437       1    4611    4614       1
    4599    4605       4    4593    4599       5    4593    4611       6    4587
    4590      13    4584    4587      41    4572    4575       9    4572    4584
      10    4566    4572      43    4560    4566      45    4557    4560      46
    4557    4587      40    4551    4557      23    4551    4599       5    4548
    4551       6    4542    4548       6    4542    4593       5    4533    4542
      25    4530    4533      27    4521    4524      28    4521    4527      28
    4521    4530       1    4713    4716       1    4701    4707       4    4695
    4701       5    4695    4713       6    4689    4692       7    4677    4680
       9    4677    4689      10    4671    4677      12    4665    4668      13
    4665    4671      14    4662    4665      15    4662    4692      16    4659
    4662      17    4653    4659      19    4650    4653      20    4650    4692
      21    4644    4650      23    4644    4701       5    4641    4644       6
    4635    4641       6    4635    4695       5    4626    4635      25    4623
    4626      27    4614    4617      28    4614    4620      28    4614    4623
       1    4803    4806       1    4791    4797       4    4785    4791       5
    4785    4803       6    4779    4782      13    4773    4779      14    4767
    4770      13    4767    4773      14    4761    4767      36    4755    4761
      38    4752    4755      39    4752    4779      40    4746    4752      23
    4746    4791       5    4743    4746       6    4737    4743       6    4737
    4785       5    4728    4737      25    4725    4728      27    4716    4719
      28    4716    4722      28    4716    4725       1    4902    4905       1
    4890    4896       4    4884    4890       5    4884    4902       6    4878
    4881       7    4872    4878      30    4869    4872      30    4857    4860
       9    4857    4869      10    4854    4857      31    4854    4881      16
    4851    4854      17    4845    4851      33    4842    4845      34    4842
    4881      21    4836    4842      23    4836    4890       5    4833    4836
       6    4827    4833       6    4827    4884       5    4818    4827      25
    4815    4818      27    4806    4809      28    4806    4812      28    4806
    4815       1    5001    5004       1    4989    4995       4    4983    4989
       5    4983    5001       6    4977    4980       7    4971    4977      30
    4968    4971      30    4956    4959       9    4956    4968      10    4953
    4956      31    4953    4980      16    4950    4953      17    4944    4950
      33    4941    4944      34    4941    4980      21    4935    4941      23
    4935    4989       5    4932    4935       6    4926    4932       6    4926
    4983       5    4917    4926      25    4914    4917      27    4905    4908
      28    4905    4911      28    4905    4914       1    5100    5103       1
    5088    5094       4    5082    5088       5    5082    5100       6    5076
    5079       7    5070    5076      30    5067    5070      30    5055    5058
       9    5055    5067      10    5052    5055      31    5052    5079      16
    5049    5052      17    5043    5049      33    5040    5043      34    5040
    5079      21    5034    5040      23    5034    5088       5    5031    5034
       6    5025    5031       6    5025    5082       5    5016    5025      25
    5013    5016      27    5004    5007      28    5004    5010      28    5004
    5013       1    5190    5193       1    5178    5184       4    5172    5178
       5    5172    5190       6    5166    5169      13    5160    5166      14
    5154    5157      13    5154    5160      14    5148    5154      36    5142
    5148      38    5139    5142      39    5139    5166      40    5133    5139
      23    5133    5178       5    5130    5133       6    5124    5130       6
    5124    5172       5    5115    5124      25    5112    5115      27    5103
    5106      28    5103    5109      28    5103    5112       1    5292    5295
       1    5280    5286       4    5274    5280       5    5274    5292       6
    5268    5271       7    5256    5259       9    5256    5268      10    5250
    5256      12    5244    5247      13    5244    5250      14    5241    5244
      15    5241    5271      16    5238    5241      17    5232    5238      19
    5229    5232      20    5229    5271      21    5223    5229      23    5223
    5280       5    5220    5223       6    5214    5220       6    5214    5274
       5    5205    5214      25    5202    5205      27    5193    5196      28
    5193    5199      28    5193    5202       1    5382    5385       1    5370
    5376       4    5364    5370       5    5364    5382       6    5358    5361
      13    5352    5358      14    5346    5349      13    5346    5352      14
    5340    5346      36    5334    5340      38    5331    5334      39    5331
    5358      40    5325    5331      23    5325    5370       5    5322    5325
       6    5316    5322       6    5316    5364       5    5307    5316      25
    5304    5307      27    5295    5298      28    5295    5301      28    5295
    5304       1    5475    5478       1    5463    5469       4    5457    5463
       5    5457    5475       6    5451    5454      13    5448    5451      41
    5436    5439       9    5436    5448      10    5430    5436      43    5424
    5430      45    5421    5424      46    5421    5451      40    5415    5421
      23    5415    5463       5    5412    5415       6    5406    5412       6
    5406    5457       5    5397    5406      25    5394    5397      27    5385
    5388      28    5385    5391      28    5385    5394       1    5568    5571
       1    5556    5562       4    5550    5556       5    5550    5568       6
    5544    5547      13    5541    5544      41    5529    5532       9    5529
    5541      10    5523    5529      43    5517    5523      45    5514    5517
      46    5514    5544      40    5508    5514      23    5508    5556       5
    5505    5508       6    5499    5505       6    5499    5550       5    5490
    5499      25    5487    5490      27    5478    5481      28    5478    5484
      28    5478    5487       1    5670    5673       1    5658    5664       4
    5652    5658       5    5652    5670       6    5646    5649       7    5634
    5637       9    5634    5646      10    5628    5634      12    5622    5625
      13    5622    5628      14    5619    5622      15    5619    5649      16
    5616    5619      17    5610    5616      19    5607    5610      20    5607
    5649      21    5601    5607      23    5601    5658       5    5598    5601
       6    5592    5598       6    5592    5652       5    5583    5592      25
    5580    5583      27    5571    5574      28    5571    5577      28    5571
    5580       1    5769    5772       1    5757    5763       4    5751    5757
       5    5751    5769       6    5745    5748       7    5739    5745      30
    5736    5739      30    5724    5727       9    5724    5736      10    5721
    5724      31    5721    5748      16    5718    5721      17    5712    5718
      33    5709    5712      34    5709    5748      21    5703    5709      23
    5703    5757       5    5700    5703       6    5694    5700       6    5694
    5751       5    5685    5694      25    5682    5685      27    5673    5676
      28    5673    5679      28    5673    5682       1    5862    5865       1
    5850    5856       4    5844    5850       5    5844    5862       6    5838
    5841      13    5835    5838      41    5823    5826       9    5823    5835
      10    5817    5823      43    5811    5817      45    5808    5811      46
    5808    5838      40    5802    5808      23    5802    5850       5    5799
    5802       6    5793    5799       6    5793    5844       5    5784    5793
      25    5781    5784      27    5772    5775      28    5772    5778      28
    5772    5781       1    5952    5955       1    5940    5946       4    5934
    5940       5    5934    5952       6    5928    5931      13    5922    5928
      14    5916    5919      13    5916    5922      14    5910    5916      36
    5904    5910      38    5901    5904      39    5901    5928      40    5895
    5901      23    5895    5940       5    5892    5895       6    5886    5892
       6    5886    5934       5    5877    5886      25    5874    5877      27
    5865    5868      28    5865    5871      28    5865    5874       1    6051
    6054       1    6039    6045       4    6033    6039       5    6033    6051
       6    6027    6030       7    6021    6027      30    6018    6021      30
    6006    6009       9    6006    6018      10    6003    6006      31    6003
    6030      16    6000    6003      17    5994    6000      33    5991    5994
      34    5991    6030      21    5985    5991      23    5985    6039       5
    5982    5985       6    5976    5982       6    5976    6033       5    5967
    5976      25    5964    5967      27    5955    5958      28    5955    5961
      28    5955    5964       1    6141    6144       1    6129    6135       4
    6123    6129       5    6123    6141       6    6117    6120      13    6111
    6117      14    6105    6108      13    6105    6111      14    6099    6105
      36    6093    6099      38    6090    6093      39    6090    6117      40
    6084    6090      23    6084    6129       5    6081    6084       6    6075
    6081       6    6075    6123       5    6066    6075      25    6063    6066
      27    6054    6057      28    6054    6060      28    6054    6063       1
    6243    6246       1    6231    6237       4    6225    6231       5    6225
    6243       6    6219    6222       7    6207    6210       9    6207    6219
      10    6201    6207      12    6195    6198      13    6195    6201      14
    6192    6195      15    6192    6222      16    6189    6192      17    6183
    6189      19    6180    6183      20    6180    6222      21    6174    6180
      23    6174    6231       5    6171    6174       6    6165    6171       6
    6165    6225       5    6156    6165      25    6153    6156      27    6144
    6147      28    6144    6150      28    6144    6153       1    6345    6348
       1    6333    6339       4    6327    6333       5    6327    6345       6
    6321    6324       7    6309    6312       9    6309    6321      10    6303
    6309      12    6297    6300      13    6297    6303      14    6294    6297
      15    6294    6324      16    6291    6294      17    6285    6291      19
    6282    6285      20    6282    6324      21    6276    6282      23    6276
    6333       5    6273    6276       6    6267    6273       6    6267    6327
       5    6258    6267      25    6255    6258      27    6246    6249      28
    6246    6252      28    6246    6255       1    6435    6438       1    6423
    6429       4    6417    6423       5    6417    6435       6    6411    6414
      13    6405    6411      14    6399    6402      13    6399    6405      14
    6393    6399      36    6387    6393      38    6384    6387      39    6384
    6411      40    6378    6384      23    6378    6423       5    6375    6378
       6    6369    6375       6    6369    6417       5    6360    6369      25
    6357    6360      27    6348    6351      28    6348    6354      28    6348
    6357       1    6516    6522       4    6510    6516       5    6510    6528
       4    6504    6507      13    6501    6504      41    6489    6492       9
    6489    6501      10    6483    6489      43    6477    6483      45    6474
    6477      46    6474    6504      40    6468    6474      23    6468    6516
       5    6465    6468       6    6459    6465       6    6459    6510       5
    6450    6459      25    6447    6450      27    6438    6441      28    6438
    6444      28    6438    6447       1    7017    7026      48    7029    7038
      48    7041    7050      48    7053    7062      48    7065    7074      48
    7077    7086      48    7089    7098      48    7101    7110      48    7113
    7122      48    7125    7134      48    7137    7146      48    7149    7158
      48    7161    7170      48    7173    7182      48    7185    7194      48
    7197    7206      48    7209    7218      48    7221    7230      48    7233
    7242      48    7245    7254      48    7257    7266      48    7269    7278
      48    7281    7290      48    7293    7302      48    7305    7314      48
    7317    7326      48    7329    7338      48    7341    7350      48    7353
    7362      48    7365    7374      48    7377    7386      48    7389    7398
      48    7401    7410      48    7413    7422      48    7425    7434      48
    7437    7446      48    7449    7458      48    7461    7470      48    7473
    7482      48    7485    7494      48    7497    7506      48    7509    7518
      48    7521    7530      48    7533    7542      48    7545    7554      48
    7557    7566      48    7569    7578      48    7581    7590      48    7593
    7602      48    7605    7614      48    7617    7626      48    7629    7638
      48    7641    7650      48    7653    7662      48    7665    7674      48
    7677    7686      48    7689    7698      48    7701    7710      48    7713
    7722      48    7725    7734      48    7737    7746      48    7749    7758
      48    7761    7770      48    7773    7782      48    7785    7794      48
    7797    7806      48    7809    7818      48    7821    7830      48    7833
    7842      48    7845    7854      48    7857    7866      48    7869    7878
      48    7881    7890      48    7893    7902      48    7905    7914      48
    7917    7926      48    7929    7938      48    7941    7950      48    7953
    7962      48    7965    7974      48    7977    7986      48    7989    7998
      48    8001    8010      48    8013    8022      48    8025    8034      48
    8037    8046      48    8049    8058      48    8061    8070      48    8073
    8082      48    8085    8094      48    8097    8106      48    8109    8118
      48    8121    8130      48    8133    8142      48    8145    8154      48
    8157    8166      48    8169    8178      48    8181    8190      48    8193
    8202      48    8205    8214      48    8217    8226      48    8229    8238
      48    8241    8250      48    8253    8262      48    8265    8274      48
    8277    8286      48    8289    8298      48    8301    8310      48    8313
    8322      48    8325    8334      48    8337    8346      48    8349    8358
      48    8361    8370      48    8373    8382      48    8385    8394      48
    8397    8406      48    8409    8418      48    8421    8430      48    8433
    8442      48    8445    8454      48    8457    8466      48    8469    8478
      48    8481    8490      48    8493    8502      48    8505    8514      48
    8517    8526      48    8529    8538      48    8541    8550      48    8553
    8562      48    8565    8574      48    8577    8586      48    8589    8598
      48    8601    8610      48    8613    8622      48    8625    8634      48
    8637    8646      48    8649    8658      48    8661    8670      48    8673
    8682      48    8685    8694      48    8697    8706      48    8709    8718
      48    8721    8730      48    8733    8742      48    8745    8754      48
    8757    8766      48    8769    8778      48    8781    8790      48    8793
    8802      48    8805    8814      48    8817    8826      48    8829    8838
      48    8841    8850      48    8853    8862      48    8865    8874      48
    8877    8886      48    8889    8898      48    8901    8910      48    8913
    8922      48    8925    8934      48    8937    8946      48    8949    8958
      48    8961    8970      48    8973    8982      48    8985    8994      48
    8997    9006      48    9009    9018      48    9021    9030      48    9033
    9042      48    9045    9054      48    9057    9066      48    9069    9078
      48    9081    9090      48    9093    9102      48    9105    9114      48
    9117    9126      48    9129    9138      48    9141    9150      48    9153
    9162      48    9165    9174      48    9177    9186      48    9189    9198
      48    9201    9210      48    9213    9222      48    9225    9234      48
    9237    9246      48    9249    9258      48    9261    9270      48    9273
    9282      48    9285    9294      48    9297    9306      48    9309    9318
      48    9321    9330      48    9333    9342      48    9345    9354      48
    9357    9366      48    9369    9378      48    9381    9390      48    9393
    9402      48    9405    9414      48    9417    9426      48    9429    9438
      48    9441    9450      48    9453    9462      48    9465    9474      48
    9477    9486      48    9489    9498      48    9501    9510      48    9513
    9522      48    9525    9534      48    9537    9546      48    9549    9558
      48    9561    9570      48    9573    9582      48    9585    9594      48
    9597    9606      48    9609    9618      48    9621    9630      48    9633
    9642      48    9645    9654      48    9657    9666      48    9669    9678
      48    9681    9690      48    9693    9702      48    9705    9714      48
    9717    9726      48    9729    9738      48    9741    9750      48    9753
    9762      48    9765    9774      48    9777    9786      48    9789    9798
      48    9801    9810      48    9813    9822      48    9825    9834      48
    9837    9846      48    9849    9858      48    9861    9870      48    9873
    9882      48    9885    9894      48    9897    9906      48    9909    9918
      48    9921    9930      48    9933    9942      48    9945    9954      48
    9957    9966      48    9969    9978      48    9981    9990      48    9993
   10002      48   10005   10014      48   10017   10026      48   10029   10038
      48   10041   10050      48   10053   10062      48   10065   10074      48
   10077   10086      48   10089   10098      48   10101   10110      48   10113
   10122      48   10125   10134      48   10137   10146      48   10149   10158
      48   10161   10170      48   10173   10182      48   10185   10194      48
   10197   10206      48   10209   10218      48   10221   10230      48   10233
   10242      48   10245   10254      48   10257   10266      48   10269   10278
      48   10281   10290      48   10293   10302      48   10305   10314      48
   10317   10326      48   10329   10338      48   10341   10350      48   10353
   10362      48   10365   10374      48   10377   10386      48   10389   10398
      48   10401   10410      48   10413   10422      48   10425   10434      48
   10437   10446      48   10449   10458      48   10461   10470      48   10473
   10482      48   10485   10494      48   10497   10506      48   10509   10518
      48   10521   10530      48   10533   10542      48   10545   10554      48
   10557   10566      48   10569   10578      48   10581   10590      48   10593
   10602      48   10605   10614      48   10617   10626      48   10629   10638
      48   10641   10650      48   10653   10662      48   10665   10674      48
   10677   10686      48   10689   10698      48   10701   10710      48   10713
   10722      48   10725   10734      48   10737   10746      48   10749   10758
      48   10761   10770      48   10773   10782      48   10785   10794      48
   10797   10806      48   10809   10818      48   10821   10830      48   10833
   10842      48   10845   10854      48   10857   10866      48   10869   10878
      48   10881   10890      48   10893   10902      48   10905   10914      48
   10917   10926      48   10929   10938      48   10941   10950      48   10953
   10962      48   10965   10974      48   10977   10986      48   10989   10998
      48   11001   11010      48   11013   11022      48   11025   11034      48
   11037   11046      48   11049   11058      48   11061   11070      48   11073
   11082      48   11085   11094      48   11097   11106      48   11109   11118
      48   11121   11130      48   11133   11142      48   11145   11154      48
   11157   11166      48   11169   11178      48   11181   11190      48   11193
   11202      48   11205   11214      48   11217   11226      48   11229   11238
      48   11241   11250      48   11253   11262      48   11265   11274      48
   11277   11286      48   11289   11298      48   11301   11310      48   11313
   11322      48   11325   11334      48   11337   11346      48   11349   11358
      48   11361   11370      48   11373   11382      48   11385   11394      48
   11397   11406      48   11409   11418      48   11421   11430      48   11433
   11442      48   11445   11454      48   11457   11466      48   11469   11478
      48   11481   11490      48   11493   11502      48   11505   11514      48
   11517   11526      48   11529   11538      48   11541   11550      48   11553
   11562      48   11565   11574      48   11577   11586      48   11589   11598
      48   11601   11610      48   11613   11622      48   11625   11634      48
   11637   11646      48   11649   11658      48   11661   11670      48   11673
   11682      48   11685   11694      48   11697   11706      48   11709   11718
      48   11721   11730      48   11733   11742      48   11745   11754      48
   11757   11766      48   11769   11778      48   11781   11790      48   11793
   11802      48   11805   11814      48   11817   11826      48   11829   11838
      48   11841   11850      48   11853   11862      48   11865   11874      48
   11877   11886      48   11889   11898      48   11901   11910      48   11913
   11922      48   11925   11934      48   11937   11946      48   11949   11958
      48   11961   11970      48   11973   11982      48   11985   11994      48
   11997   12006      48   12009   12018      48   12021   12030      48   12033
   12042      48   12045   12054      48   12057   12066      48   12069   12078
      48   12081   12090      48   12093   12102      48   12105   12114      48
   12117   12126      48   12129   12138      48   12141   12150      48   12153
   12162      48   12165   12174      48   12177   12186      48   12189   12198
      48   12201   12210      48   12213   12222      48   12225   12234      48
   12237   12246      48   12249   12258      48   12261   12270      48   12273
   12282      48   12285   12294      48   12297   12306      48   12309   12318
      48   12321   12330      48   12333   12342      48   12345   12354      48
   12357   12366      48   12369   12378      48   12381   12390      48   12393
   12402      48   12405   12414      48   12417   12426      48   12429   12438
      48   12441   12450      48   12453   12462      48   12465   12474      48
   12477   12486      48   12489   12498      48   12501   12510      48   12513
   12522      48   12525   12534      48   12537   12546      48   12549   12558
      48   12561   12570      48   12573   12582      48   12585   12594      48
   12597   12606      48   12609   12618      48   12621   12630      48   12633
   12642      48   12645   12654      48   12657   12666      48   12669   12678
      48   12681   12690      48   12693   12702      48   12705   12714      48
   12717   12726      48   12729   12738      48   12741   12750      48   12753
   12762      48   12765   12774      48   12777   12786      48   12789   12798
      48   12801   12810      48   12813   12822      48   12825   12834      48
   12837   12846      48   12849   12858      48   12861   12870      48   12873
   12882      48   12885   12894      48   12897   12906      48   12909   12918
      48   12921   12930      48   12933   12942      48   12945   12954      48
   12957   12966      48   12969   12978      48   12981   12990      48   12993
   13002      48   13005   13014      48   13017   13026      48   13029   13038
      48   13041   13050      48   13053   13062      48   13065   13074      48
   13077   13086      48   13089   13098      48   13101   13110      48   13113
   13122      48   13125   13134      48   13137   13146      48   13149   13158
      48   13161   13170      48   13173   13182      48   13185   13194      48
   13197   13206      48   13209   13218      48   13221   13230      48   13233
   13242      48   13245   13254      48   13257   13266      48   13269   13278
      48   13281   13290      48   13293   13302      48   13305   13314      48
   13317   13326      48   13329   13338      48   13341   13350      48   13353
   13362      48   13365   13374      48   13377   13386      48   13389   13398
      48   13401   13410      48   13413   13422      48   13425   13434      48
   13437   13446      48   13449   13458      48   13461   13470      48   13473
   13482      48   13485   13494      48   13497   13506      48   13509   13518
      48   13521   13530      48   13533   13542      48   13545   13554      48
   13557   13566      48   13569   13578      48   13581   13590      48   13593
   13602      48   13605   13614      48   13617   13626      48   13629   13638
      48   13641   13650      48   13653   13662      48   13665   13674      48
   13677   13686      48   13689   13698      48   13701   13710      48   13713
   13722      48   13725   13734      48   13737   13746      48   13749   13758
      48   13761   13770      48   13773   13782      48   13785   13794      48
   13797   13806      48   13809   13818      48   13821   13830      48   13833
   13842      48   13845   13854      48   13857   13866      48   13869   13878
      48   13881   13890      48   13893   13902      48   13905   13914      48
   13917   13926      48   13929   13938      48   13941   13950      48   13953
   13962      48   13965   13974      48   13977   13986      48   13989   13998
      48   14001   14010      48   14013   14022      48   14025   14034      48
   14037   14046      48   14049   14058      48   14061   14070      48   14073
   14082      48   14085   14094      48   14097   14106      48   14109   14118
      48   14121   14130      48   14133   14142      48   14145   14154      48
   14157   14166      48   14169   14178      48   14181   14190      48   14193
   14202      48   14205   14214      48   14217   14226      48   14229   14238
      48   14241   14250      48   14253   14262      48   14265   14274      48
   14277   14286      48   14289   14298      48   14301   14310      48   14313
   14322      48   14325   14334      48   14337   14346      48   14349   14358
      48   14361   14370      48   14373   14382      48   14385   14394      48
   14397   14406      48   14409   14418      48   14421   14430      48   14433
   14442      48   14445   14454      48   14457   14466      48   14469   14478
      48   14481   14490      48   14493   14502      48   14505   14514      48
   14517   14526      48   14529   14538      48   14541   14550      48   14553
   14562      48   14565   14574      48   14577   14586      48   14589   14598
      48   14601   14610      48   14613   14622      48   14625   14634      48
   14637   14646      48   14649   14658      48   14661   14670      48   14673
   14682      48   14685   14694      48   14697   14706      48   14709   14718
      48   14721   14730      48   14733   14742      48   14745   14754      48
   14757   14766      48   14769   14778      48   14781   14790      48   14793
   14802      48   14805   14814      48   14817   14826      48   14829   14838
      48   14841   14850      48   14853   14862      48   14865   14874      48
   14877   14886      48   14889   14898      48   14901   14910      48   14913
   14922      48   14925   14934      48   14937   14946      48   14949   14958
      48   14961   14970      48   14973   14982      48   14985   14994      48
   14997   15006      48   15009   15018      48   15021   15030      48   15033
   15042      48   15045   15054      48   15057   15066      48   15069   15078
      48   15081   15090      48   15093   15102      48   15105   15114      48
   15117   15126      48   15129   15138      48   15141   15150      48   15153
   15162      48   15165   15174      48   15177   15186      48   15189   15198
      48   15201   15210      48   15213   15222      48   15225   15234      48
   15237   15246      48   15249   15258      48   15261   15270      48   15273
   15282      48   15285   15294      48   15297   15306      48   15309   15318
      48   15321   15330      48   15333   15342      48   15345   15354      48
   15357   15366      48   15369   15378      48   15381   15390      48   15393
   15402      48   15405   15414      48   15417   15426      48   15429   15438
      48   15441   15450      48   15453   15462      48   15465   15474      48
   15477   15486      48   15489   15498      48   15501   15510      48   15513
   15522      48   15525   15534      48   15537   15546      48   15549   15558
      48   15561   15570      48   15573   15582      48   15585   15594      48
   15597   15606      48   15609   15618      48   15621   15630      48   15633
   15642      48   15645   15654      48   15657   15666      48   15669   15678
      48   15681   15690      48   15693   15702      48   15705   15714      48
   15717   15726      48   15729   15738      48   15741   15750      48   15753
   15762      48   15765   15774      48   15777   15786      48   15789   15798
      48   15801   15810      48   15813   15822      48   15825   15834      48
   15837   15846      48   15849   15858      48   15861   15870      48   15873
   15882      48   15885   15894      48   15897   15906      48   15909   15918
      48   15921   15930      48   15933   15942      48   15945   15954      48
   15957   15966      48   15969   15978      48   15981   15990      48   15993
   16002      48   16005   16014      48   16017   16026      48   16029   16038
      48   16041   16050      48   16053   16062      48   16065   16074      48
   16077   16086      48   16089   16098      48   16101   16110      48   16113
   16122      48   16125   16134      48   16137   16146      48   16149   16158
      48   16161   16170      48   16173   16182      48   16185   16194      48
   16197   16206      48   16209   16218      48   16221   16230      48   16233
   16242      48   16245   16254      48   16257   16266      48   16269   16278
      48   16281   16290      48   16293   16302      48   16305   16314      48
   16317   16326      48   16329   16338      48   16341   16350      48   16353
   16362      48   16365   16374      48   16377   16386      48   16389   16398
      48   16401   16410      48   16413   16422      48   16425   16434      48
   16437   16446      48   16449   16458      48   16461   16470      48   16473
   16482      48   16485   16494      48   16497   16506      48   16509   16518
      48   16521   16530      48   16533   16542      48   16545   16554      48
   16557   16566      48   16569   16578      48   16581   16590      48   16593
   16602      48   16605   16614      48   16617   16626      48   16629   16638
      48   16641   16650      48   16653   16662      48   16665   16674      48
   16677   16686      48   16689   16698      48   16701   16710      48   16713
   16722      48   16725   16734      48   16737   16746      48   16749   16758
      48   16761   16770      48   16773   16782      48   16785   16794      48
   16797   16806      48   16809   16818      48   16821   16830      48   16833
   16842      48   16845   16854      48   16857   16866      48   16869   16878
      48   16881   16890      48   16893   16902      48   16905   16914      48
   16917   16926      48   16929   16938      48   16941   16950      48   16953
   16962      48   16965   16974      48   16977   16986      48   16989   16998
      48   17001   17010      48   17013   17022      48   17025   17034      48
   17037   17046      48   17049   17058      48   17061   17070      48   17073
   17082      48   17085   17094      48   17097   17106      48   17109   17118
      48   17121   17130      48   17133   17142      48   17145   17154      48
   17157   17166      48   17169   17178      48   17181   17190      48   17193
   17202      48   17205   17214      48   17217   17226      48   17229   17238
      48   17241   17250      48   17253   17262      48   17265   17274      48
   17277   17286      48   17289   17298      48   17301   17310      48   17313
   17322      48   17325   17334      48   17337   17346      48   17349   17358
      48   17361   17370      48   17373   17382      48   17385   17394      48
   17397   17406      48   17409   17418      48   17421   17430      48   17433
   17442      48   17445   17454      48   17457   17466      48   17469   17478
      48   17481   17490      48   17493   17502      48   17505   17514      48
   17517   17526      48   17529   17538      48   17541   17550      48   17553
   17562      48   17565   17574      48   17577   17586      48   17589   17598
      48   17601   17610      48   17613   17622      48   17625   17634      48
   17637   17646      48   17649   17658      48   17661   17670      48   17673
   17682      48   17685   17694      48   17697   17706      48   17709   17718
      48   17721   17730      48   17733   17742      48   17745   17754      48
   17757   17766      48   17769   17778      48   17781   17790      48   17793
   17802      48   17805   17814      48   17817   17826      48   17829   17838
      48   17841   17850      48   17853   17862      48   17865   17874      48
   17877   17886      48   17889   17898      48   17901   17910      48   17913
   17922      48   17925   17934      48   17937   17946      48   17949   17958
      48   17961   17970      48   17973   17982      48   17985   17994      48
   17997   18006      48   18009   18018      48   18021   18030      48   18033
   18042      48   18045   18054      48   18057   18066      48   18069   18078
      48   18081   18090      48   18093   18102      48   18105   18114      48
   18117   18126      48   18129   18138      48   18141   18150      48   18153
   18162      48   18165   18174      48   18177   18186      48   18189   18198
      48   18201   18210      48   18213   18222      48   18225   18234      48
   18237   18246      48   18249   18258      48   18261   18270      48   18273
   18282      48   18285   18294      48   18297   18306      48   18309   18318
      48   18321   18330      48   18333   18342      48   18345   18354      48
   18357   18366      48   18369   18378      48   18381   18390      48   18393
   18402      48   18405   18414      48   18417   18426      48   18429   18438
      48   18441   18450      48   18453   18462      48   18465   18474      48
   18477   18486      48   18489   18498      48   18501   18510      48   18513
   18522      48   18525   18534      48   18537   18546      48   18549   18558
      48   18561   18570      48   18573   18582      48   18585   18594      48
   18597   18606      48   18609   18618      48   18621   18630      48   18633
   18642      48   18645   18654      48   18657   18666      48   18669   18678
      48   18681   18690      48   18693   18702      48   18705   18714      48
   18717   18726      48   18729   18738      48   18741   18750      48   18753
   18762      48   18765   18774      48   18777   18786      48   18789   18798
      48   18801   18810      48   18813   18822      48   18825   18834      48
   18837   18846      48   18849   18858      48   18861   18870      48   18873
   18882      48   18885   18894      48   18897   18906      48   18909   18918
      48   18921   18930      48   18933   18942      48   18945   18954      48
   18957   18966      48   18969   18978      48   18981   18990      48   18993
   19002      48   19005   19014      48   19017   19026      48   19029   19038
      48   19041   19050      48   19053   19062      48   19065   19074      48
   19077   19086      48   19089   19098      48   19101   19110      48   19113
   19122      48   19125   19134      48   19137   19146      48   19149   19158
      48   19161   19170      48   19173   19182      48   19185   19194      48
   19197   19206      48   19209   19218      48   19221   19230      48   19233
   19242      48   19245   19254      48   19257   19266      48   19269   19278
      48   19281   19290      48   19293   19302      48   19305   19314      48
   19317   19326      48   19329   19338      48   19341   19350      48   19353
   19362      48   19365   19374      48   19377   19386      48   19389   19398
      48   19401   19410      48   19413   19422      48   19425   19434      48
   19437   19446      48   19449   19458      48   19461   19470      48   19473
   19482      48   19485   19494      48   19497   19506      48   19509   19518
      48   19521   19530      48   19533   19542      48   19545   19554      48
   19557   19566      48   19569   19578      48   19581   19590      48   19593
   19602      48   19605   19614      48   19617   19626      48   19629   19638
      48   19641   19650      48   19653   19662      48   19665   19674      48
   19677   19686      48   19689   19698      48   19701   19710      48   19713
   19722      48   19725   19734      48   19737   19746      48   19749   19758
      48   19761   19770      48   19773   19782      48   19785   19794      48
   19797   19806      48   19809   19818      48   19821   19830      48   19833
   19842      48   19845   19854      48   19857   19866      48   19869   19878
      48   19881   19890      48   19893   19902      48   19905   19914      48
   19917   19926      48   19929   19938      48   19941   19950      48   19953
   19962      48   19965   19974      48   19977   19986      48   19989   19998
      48   20001   20010      48   20013   20022      48   20025   20034      48
   20037   20046      48   20049   20058      48   20061   20070      48   20073
   20082      48   20085   20094      48   20097   20106      48   20109   20118
      48   20121   20130      48   20133   20142      48   20145   20154      48
   20157   20166      48   20169   20178      48   20181   20190      48   20193
   20202      48   20205   20214      48   20217   20226      48   20229   20238
      48   20241   20250      48   20253   20262      48   20265   20274      48
   20277   20286      48   20289   20298      48   20301   20310      48   20313
   20322      48   20325   20334      48   20337   20346      48   20349   20358
      48   20361   20370      48   20373   20382      48   20385   20394      48
   20397   20406      48   20409   20418      48   20421   20430      48   20433
   20442      48   20445   20454      48   20457   20466      48   20469   20478
      48   20481   20490      48   20493   20502      48   20505   20514      48
   20517   20526      48   20529   20538      48   20541   20550      48   20553
   20562      48   20565   20574      48   20577   20586      48   20589   20598
      48   20601   20610      48   20613   20622      48   20625   20634      48
   20637   20646      48   20649   20658      48   20661   20670      48   20673
   20682      48   20685   20694      48   20697   20706      48   20709   20718
      48   20721   20730      48   20733   20742      48   20745   20754      48
   20757   20766      48   20769   20778      48   20781   20790      48   20793
   20802      48   20805   20814      48   20817   20826      48   20829   20838
      48   20841   20850      48   20853   20862      48   20865   20874      48
   20877   20886      48   20889   20898      48   20901   20910      48   20913
   20922      48   20925   20934      48   20937   20946      48   20949   20958
      48   20961   20970      48   20973   20982      48   20985   20994      48
   20997   21006      48   21009   21018      48   21021   21030      48   21033
   21042      48   21045   21054      48   21057   21066      48   21069   21078
      48   21081   21090      48   21093   21102      48   21105   21114      48
   21117   21126      48   21129   21138      48   21141   21150      48   21153
   21162      48   21165   21174      48   21177   21186      48   21189   21198
      48   21201   21210      48   21213   21222      48   21225   21234      48
   21237   21246      48   21249   21258      48   21261   21270      48   21273
   21282      48   21285   21294      48   21297   21306      48   21309   21318
      48   21321   21330      48   21333   21342      48   21345   21354      48
   21357   21366      48   21369   21378      48   21381   21390      48   21393
   21402      48   21405   21414      48   21417   21426      48   21429   21438
      48   21441   21450      48   21453   21462      48   21465   21474      48
   21477   21486      48   21489   21498      48   21501   21510      48   21513
   21522      48   21525   21534      48   21537   21546      48   21549   21558
      48   21561   21570      48   21573   21582      48   21585   21594      48
   21597   21606      48   21609   21618      48   21621   21630      48   21633
   21642      48   21645   21654      48   21657   21666      48   21669   21678
      48   21681   21690      48   21693   21702      48   21705   21714      48
   21717   21726      48   21729   21738      48   21741   21750      48   21753
   21762      48   21765   21774      48   21777   21786      48   21789   21798
      48   21801   21810      48   21813   21822      48   21825   21834      48
   21837   21846      48   21849   21858      48   21861   21870      48   21873
   21882      48   21885   21894      48   21897   21906      48   21909   21918
      48   21921   21930      48   21933   21942      48   21945   21954      48
   21957   21966      48   21969   21978      48   21981   21990      48   21993
   22002      48   22005   22014      48   22017   22026      48   22029   22038
      48   22041   22050      48   22053   22062      48   22065   22074      48
   22077   22086      48   22089   22098      48   22101   22110      48   22113
   22122      48   22125   22134      48   22137   22146      48   22149   22158
      48   22161   22170      48   22173   22182      48   22185   22194      48
   22197   22206      48   22209   22218      48   22221   22230      48   22233
   22242      48   22245   22254      48   22257   22266      48   22269   22278
      48   22281   22290      48   22293   22302      48   22305   22314      48
   22317   22326      48   22329   22338      48   22341   22350      48   22353
   22362      48   22365   22374      48   22377   22386      48   22389   22398
      48   22401   22410      48   22413   22422      48   22425   22434      48
   22437   22446      48   22449   22458      48   22461   22470      48   22473
   22482      48   22485   22494      48   22497   22506      48   22509   22518
      48   22521   22530      48   22533   22542      48   22545   22554      48
   22557   22566      48   22569   22578      48   22581   22590      48   22593
   22602      48   22605   22614      48   22617   22626      48   22629   22638
      48   22641   22650      48   22653   22662      48   22665   22674      48
   22677   22686      48   22689   22698      48   22701   22710      48   22713
   22722      48   22725   22734      48   22737   22746      48   22749   22758
      48   22761   22770      48   22773   22782      48   22785   22794      48
   22797   22806      48   22809   22818      48   22821   22830      48   22833
   22842      48   22845   22854      48   22857   22866      48   22869   22878
      48   22881   22890      48   22893   22902      48   22905   22914      48
   22917   22926      48   22929   22938      48   22941   22950      48   22953
   22962      48   22965   22974      48   22977   22986      48   22989   22998
      48   23001   23010      48   23013   23022      48   23025   23034      48
   23037   23046      48   23049   23058      48   23061   23070      48   23073
   23082      48   23085   23094      48   23097   23106      48   23109   23118
      48   23121   23130      48   23133   23142      48   23145   23154      48
   23157   23166      48   23169   23178      48   23181   23190      48   23193
   23202      48   23205   23214      48   23217   23226      48   23229   23238
      48   23241   23250      48   23253   23262      48   23265   23274      48
   23277   23286      48   23289   23298      48   23301   23310      48   23313
   23322      48   23325   23334      48   23337   23346      48   23349   23358
      48   23361   23370      48   23373   23382      48   23385   23394      48
   23397   23406      48   23409   23418      48   23421   23430      48   23433
   23442      48   23445   23454      48   23457   23466      48   23469   23478
      48   23481   23490      48   23493   23502      48   23505   23514      48
   23517   23526      48   23529   23538      48   23541   23550      48   23553
   23562      48   23565   23574      48   23577   23586      48   23589   23598
      48   23601   23610      48   23613   23622      48   23625   23634      48
   23637   23646      48   23649   23658      48   23661   23670      48   23673
   23682      48   23685   23694      48   23697   23706      48   23709   23718
      48   23721   23730      48   23733   23742      48   23745   23754      48
   23757   23766      48   23769   23778      48   23781   23790      48   23793
   23802      48   23805   23814      48   23817   23826      48   23829   23838
      48   23841   23850      48   23853   23862      48   23865   23874      48
   23877   23886      48   23889   23898      48   23901   23910      48   23913
   23922      48   23925   23934      48   23937   23946      48   23949   23958
      48   23961   23970      48   23973   23982      48   23985   23994      48
   23997   24006      48   24009   24018      48   24021   24030      48   24033
   24042      48   24045   24054      48   24057   24066      48   24069   24078
      48   24081   24090      48   24093   24102      48   24105   24114      48
   24117   24126      48   24129   24138      48   24141   24150      48   24153
   24162      48   24165   24174      48   24177   24186      48   24189   24198
      48   24201   24210      48   24213   24222      48   24225   24234      48
   24237   24246      48   24249   24258      48   24261   24270      48   24273
   24282      48   24285   24294      48   24297   24306      48   24309   24318
      48   24321   24330      48   24333   24342      48   24345   24354      48
   24357   24366      48   24369   24378      48   24381   24390      48   24393
   24402      48   24405   24414      48   24417   24426      48   24429   24438
      48   24441   24450      48   24453   24462      48   24465   24474      48
   24477   24486      48   24489   24498      48   24501   24510      48   24513
   24522      48   24525   24534      48   24537   24546      48   24549   24558
      48   24561   24570      48   24573   24582      48   24585   24594      48
   24597   24606      48   24609   24618      48   24621   24630      48   24633
   24642      48   24645   24654      48   24657   24666      48   24669   24678
      48   24681   24690      48   24693   24702      48   24705   24714      48
   24717   24726      48   24729   24738      48   24741   24750      48   24753
   24762      48   24765   24774      48   24777   24786      48   24789   24798
      48   24801   24810      48   24813   24822      48   24825   24834      48
   24837   24846      48   24849   24858      48   24861   24870      48   24873
   24882      48   24885   24894      48   24897   24906      48   24909   24918
      48   24921   24930      48   24933   24942      48   24945   24954      48
   24957   24966      48   24969   24978      48   24981   24990      48   24993
   25002      48   25005   25014      48   25017   25026      48   25029   25038
      48   25041   25050      48   25053   25062      48   25065   25074      48
   25077   25086      48   25089   25098      48   25101   25110      48   25113
   25122      48   25125   25134      48   25137   25146      48   25149   25158
      48   25161   25170      48   25173   25182      48   25185   25194      48
   25197   25206      48   25209   25218      48   25221   25230      48   25233
   25242      48   25245   25254      48   25257   25266      48   25269   25278
      48   25281   25290      48   25293   25302      48   25305   25314      48
   25317   25326      48   25329   25338      48   25341   25350      48   25353
   25362      48   25365   25374      48   25377   25386      48   25389   25398
      48   25401   25410      48   25413   25422      48   25425   25434      48
   25437   25446      48   25449   25458      48   25461   25470      48   25473
   25482      48   25485   25494      48   25497   25506      48   25509   25518
      48   25521   25530      48   25533   25542      48   25545   25554      48
   25557   25566      48   25569   25578      48   25581   25590      48   25593
   25602      48   25605   25614      48   25617   25626      48   25629   25638
      48   25641   25650      48   25653   25662      48   25665   25674      48
   25677   25686      48   25689   25698      48   25701   25710      48   25713
   25722      48   25725   25734      48   25737   25746      48   25749   25758
      48   25761   25770      48   25773   25782      48   25785   25794      48
   25797   25806      48   25809   25818      48   25821   25830      48   25833
   25842      48   25845   25854      48   25857   25866      48   25869   25878
      48   25881   25890      48   25893   25902      48   25905   25914      48
   25917   25926      48   25929   25938      48   25941   25950      48   25953
   25962      48   25965   25974      48   25977   25986      48   25989   25998
      48   26001   26010      48   26013   26022      48   26025   26034      48
   26037   26046      48   26049   26058      48   26061   26070      48   26073
   26082      48   26085   26094      48   26097   26106      48   26109   26118
      48   26121   26130      48   26133   26142      48   26145   26154      48
   26157   26166      48   26169   26178      48   26181   26190      48   26193
   26202      48   26205   26214      48   26217   26226      48   26229   26238
      48   26241   26250      48   26253   26262      48   26265   26274      48
   26277   26286      48   26289   26298      48   26301   26310      48   26313
   26322      48   26325   26334      48   26337   26346      48   26349   26358
      48   26361   26370      48   26373   26382      48   26385   26394      48
   26397   26406      48   26409   26418      48   26421   26430      48   26433
   26442      48   26445   26454      48   26457   26466      48   26469   26478
      48   26481   26490      48   26493   26502      48   26505   26514      48
   26517   26526      48   26529   26538      48   26541   26550      48   26553
   26562      48   26565   26574      48   26577   26586      48   26589   26598
      48   26601   26610      48   26613   26622      48   26625   26634      48
   26637   26646      48   26649   26658      48   26661   26670      48   26673
   26682      48   26685   26694      48   26697   26706      48   26709   26718
      48   26721   26730      48   26733   26742      48   26745   26754      48
   26757   26766      48   26769   26778      48   26781   26790      48   26793
   26802      48   26805   26814      48   26817   26826      48   26829   26838
      48   26841   26850      48   26853   26862      48   26865   26874      48
   26877   26886      48   26889   26898      48   26901   26910      48   26913
   26922      48   26925   26934      48   26937   26946      48   26949   26958
      48   26961   26970      48   26973   26982      48   26985   26994      48
   26997   27006      48   27009   27018      48   27021   27030      48   27033
   27042      48   27045   27054      48   27057   27066      48   27069   27078
      48   27081   27090      48   27093   27102      48   27105   27114      48
   27117   27126      48   27129   27138      48   27141   27150      48   27153
   27162      48   27165   27174      48   27177   27186      48   27189   27198
      48   27201   27210      48   27213   27222      48   27225   27234      48
   27237   27246      48   27249   27258      48   27261   27270      48   27273
   27282      48   27285   27294      48   27297   27306      48   27309   27318
      48   27321   27330      48   27333   27342      48   27345   27354      48
   27357   27366      48   27369   27378      48   27381   27390      48   27393
   27402      48   27405   27414      48   27417   27426      48   27429   27438
      48   27441   27450      48   27453   27462      48   27465   27474      48
   27477   27486      48   27489   27498      48   27501   27510      48   27513
   27522      48   27525   27534      48   27537   27546      48   27549   27558
      48   27561   27570      48   27573   27582      48   27585   27594      48
   27597   27606      48   27609   27618      48   27621   27630      48   27633
   27642      48   27645   27654      48   27657   27666      48   27669   27678
      48   27681   27690      48   27693   27702      48   27705   27714      48
   27717   27726      48   27729   27738      48   27741   27750      48   27753
   27762      48   27765   27774      48   27777   27786      48   27789   27798
      48   27801   27810      48   27813   27822      48   27825   27834      48
   27837   27846      48   27849   27858      48   27861   27870      48   27873
   27882      48   27885   27894      48   27897   27906      48   27909   27918
      48   27921   27930      48   27933   27942      48   27945   27954      48
   27957   27966      48   27969   27978      48   27981   27990      48   27993
   28002      48   28005   28014      48   28017   28026      48   28029   28038
      48   28041   28050      48   28053   28062      48   28065   28074      48
   28077   28086      48   28089   28098      48   28101   28110      48   28113
   28122      48   28125   28134      48   28137   28146      48   28149   28158
      48   28161   28170      48   28173   28182      48   28185   28194      48
   28197   28206      48   28209   28218      48   28221   28230      48   28233
   28242      48   28245   28254      48   28257   28266      48   28269   28278
      48   28281   28290      48   28293   28302      48   28305   28314      48
   28317   28326      48   28329   28338      48   28341   28350      48   28353
   28362      48   28365   28374      48   28377   28386      48   28389   28398
      48   28401   28410      48   28413   28422      48   28425   28434      48
   28437   28446      48   28449   28458      48   28461   28470      48   28473
   28482      48   28485   28494      48   28497   28506      48   28509   28518
      48   28521   28530      48   28533   28542      48   28545   28554      48
   28557   28566      48   28569   28578      48   28581   28590      48   28593
   28602      48   28605   28614      48   28617   28626      48   28629   28638
      48   28641   28650      48   28653   28662      48   28665   28674      48
   28677   28686      48   28689   28698      48   28701   28710      48   28713
   28722      48   28725   28734      48   28737   28746      48   28749   28758
      48   28761   28770      48   28773   28782      48   28785   28794      48
   28797   28806      48   28809   28818      48   28821   28830      48   28833
   28842      48   28845   28854      48   28857   28866      48   28869   28878
      48   28881   28890      48   28893   28902      48   28905   28914      48
   28917   28926      48   28929   28938      48   28941   28950      48   28953
   28962      48   28965   28974      48   28977   28986      48   28989   28998
      48   29001   29010      48   29013   29022      48   29025   29034      48
   29037   29046      48   29049   29058      48   29061   29070      48   29073
   29082      48   29085   29094      48   29097   29106      48   29109   29118
      48   29121   29130      48   29133   29142      48   29145   29154      48
   29157   29166      48   29169   29178      48   29181   29190      48   29193
   29202      48   29205   29214      48   29217   29226      48   29229   29238
      48   29241   29250      48   29253   29262      48   29265   29274      48
   29277   29286      48   29289   29298      48   29301   29310      48   29313
   29322      48   29325   29334      48   29337   29346      48   29349   29358
      48   29361   29370      48   29373   29382      48   29385   29394      48
   29397   29406      48   29409   29418      48   29421   29430      48   29433
   29442      48   29445   29454      48   29457   29466      48   29469   29478
      48   29481   29490      48   29493   29502      48   29505   29514      48
   29517   29526      48   29529   29538      48   29541   29550      48   29553
   29562      48   29565   29574      48   29577   29586      48   29589   29598
      48   29601   29610      48   29613   29622      48   29625   29634      48
   29637   29646      48   29649   29658      48   29661   29670      48   29673
   29682      48   29685   29694      48   29697   29706      48   29709   29718
      48   29721   29730      48   29733   29742      48   29745   29754      48
   29757   29766      48   29769   29778      48   29781   29790      48   29793
   29802      48   29805   29814      48   29817   29826      48   29829   29838
      48   29841   29850      48   29853   29862      48   29865   29874      48
   29877   29886      48   29889   29898      48   29901   29910      48   29913
   29922      48   29925   29934      48   29937   29946      48   29949   29958
      48   29961   29970      48   29973   29982      48   29985   29994      48
   29997   30006      48   30009   30018      48   30021   30030      48   30033
   30042      48   30045   30054      48   30057   30066      48   30069   30078
      48   30081   30090      48   30093   30102      48   30105   30114      48
   30117   30126      48   30129   30138      48   30141   30150      48   30153
   30162      48   30165   30174      48   30177   30186      48   30189   30198
      48   30201   30210      48   30213   30222      48   30225   30234      48
   30237   30246      48   30249   30258      48   30261   30270      48   30273
   30282      48   30285   30294      48   30297   30306      48   30309   30318
      48   30321   30330      48   30333   30342      48   30345   30354      48
   30357   30366      48   30369   30378      48   30381   30390      48   30393
   30402      48   30405   30414      48   30417   30426      48   30429   30438
      48   30441   30450      48   30453   30462      48   30465   30474      48
   30477   30486      48   30489   30498      48   30501   30510      48   30513
   30522      48   30525   30534      48   30537   30546      48   30549   30558
      48   30561   30570      48   30573   30582      48   30585   30594      48
   30597   30606      48   30609   30618      48   30621   30630      48   30633
   30642      48   30645   30654      48   30657   30666      48   30669   30678
      48   30681   30690      48   30693   30702      48   30705   30714      48
   30717   30726      48   30729   30738      48   30741   30750      48   30753
   30762      48   30765   30774      48   30777   30786      48   30789   30798
      48   30801   30810      48   30813   30822      48   30825   30834      48
   30837   30846      48   30849   30858      48   30861   30870      48   30873
   30882      48   30885   30894      48   30897   30906      48   30909   30918
      48   30921   30930      48   30933   30942      48   30945   30954      48
   30957   30966      48   30969   30978      48   30981   30990      48   30993
   31002      48   31005   31014      48   31017   31026      48   31029   31038
      48   31041   31050      48   31053   31062      48   31065   31074      48
   31077   31086      48   31089   31098      48   31101   31110      48   31113
   31122      48   31125   31134      48   31137   31146      48   31149   31158
      48   31161   31170      48   31173   31182      48   31185   31194      48
   31197   31206      48   31209   31218      48   31221   31230      48   31233
   31242      48   31245   31254      48   31257   31266      48   31269   31278
      48   31281   31290      48   31293   31302      48   31305   31314      48
   31317   31326      48   31329   31338      48   31341   31350      48   31353
   31362      48   31365   31374      48   31377   31386      48   31389   31398
      48   31401   31410      48   31413   31422      48   31425   31434      48
   31437   31446      48   31449   31458      48   31461   31470      48   31473
   31482      48   31485   31494      48   31497   31506      48   31509   31518
      48   31521   31530      48   31533   31542      48   31545   31554      48
   31557   31566      48   31569   31578      48   31581   31590      48   31593
   31602      48   31605   31614      48   31617   31626      48   31629   31638
      48   31641   31650      48   31653   31662      48   31665   31674      48
   31677   31686      48   31689   31698      48   31701   31710      48   31713
   31722      48   31725   31734      48   31737   31746      48   31749   31758
      48   31761   31770      48   31773   31782      48   31785   31794      48
   31797   31806      48   31809   31818      48   31821   31830      48   31833
   31842      48   31845   31854      48   31857   31866      48   31869   31878
      48   31881   31890      48   31893   31902      48   31905   31914      48
   31917   31926      48   31929   31938      48   31941   31950      48   31953
   31962      48   31965   31974      48   31977   31986      48   31989   31998
      48   32001   32010      48   32013   32022      48   32025   32034      48
   32037   32046      48   32049   32058      48   32061   32070      48   32073
   32082      48   32085   32094      48   32097   32106      48   32109   32118
      48   32121   32130      48   32133   32142      48   32145   32154      48
   32157   32166      48   32169   32178      48   32181   32190      48   32193
   32202      48   32205   32214      48   32217   32226      48   32229   32238
      48   32241   32250      48   32253   32262      48   32265   32274      48
   32277   32286      48   32289   32298      48   32301   32310      48   32313
   32322      48   32325   32334      48   32337   32346      48   32349   32358
      48   32361   32370      48   32373   32382      48   32385   32394      48
   32397   32406      48   32409   32418      48   32421   32430      48   32433
   32442      48   32445   32454      48   32457   32466      48   32469   32478
      48   32481   32490      48   32493   32502      48   32505   32514      48
   32517   32526      48   32529   32538      48   32541   32550      48   32553
   32562      48   32565   32574      48   32577   32586      48   32589   32598
      48   32601   32610      48   32613   32622      48   32625   32634      48
   32637   32646      48   32649   32658      48   32661   32670      48   32673
   32682      48   32685   32694      48   32697   32706      48   32709   32718
      48   32721   32730      48   32733   32742      48   32745   32754      48
   32757   32766      48   32769   32778      48   32781   32790      48   32793
   32802      48   32805   32814      48   32817   32826      48   32829   32838
      48   32841   32850      48   32853   32862      48   32865   32874      48
   32877   32886      48   32889   32898      48   32901   32910      48   32913
   32922      48   32925   32934      48   32937   32946      48   32949   32958
      48   32961   32970      48   32973   32982      48   32985   32994      48
   32997   33006      48   33009   33018      48   33021   33030      48   33033
   33042      48   33045   33054      48   33057   33066      48   33069   33078
      48   33081   33090      48   33093   33102      48   33105   33114      48
   33117   33126      48   33129   33138      48   33141   33150      48   33153
   33162      48   33165   33174      48   33177   33186      48   33189   33198
      48   33201   33210      48   33213   33222      48   33225   33234      48
   33237   33246      48   33249   33258      48   33261   33270      48   33273
   33282      48   33285   33294      48   33297   33306      48   33309   33318
      48   33321   33330      48   33333   33342      48   33345   33354      48
   33357   33366      48   33369   33378      48   33381   33390      48   33393
   33402      48   33405   33414      48   33417   33426      48   33429   33438
      48   33441   33450      48   33453   33462      48   33465   33474      48
   33477   33486      48   33489   33498      48   33501   33510      48   33513
   33522      48   33525   33534      48   33537   33546      48   33549   33558
      48   33561   33570      48   33573   33582      48   33585   33594      48
   33597   33606      48   33609   33618      48   33621   33630      48   33633
   33642      48   33645   33654      48   33657   33666      48   33669   33678
      48   33681   33690      48   33693   33702      48   33705   33714      48
   33717   33726      48   33729   33738      48   33741   33750      48   33753
   33762      48   33765   33774      48   33777   33786      48   33789   33798
      48   33801   33810      48   33813   33822      48   33825   33834      48
   33837   33846      48   33849   33858      48   33861   33870      48   33873
   33882      48   33885   33894      48   33897   33906      48   33909   33918
      48   33921   33930      48   33933   33942      48   33945   33954      48
   33957   33966      48   33969   33978      48   33981   33990      48   33993
   34002      48   34005   34014      48   34017   34026      48   34029   34038
      48   34041   34050      48   34053   34062      48   34065   34074      48
   34077   34086      48   34089   34098      48   34101   34110      48   34113
   34122      48   34125   34134      48   34137   34146      48   34149   34158
      48   34161   34170      48   34173   34182      48   34185   34194      48
   34197   34206      48   34209   34218      48   34221   34230      48   34233
   34242      48   34245   34254      48   34257   34266      48   34269   34278
      48   34281   34290      48   34293   34302      48   34305   34314      48
   34317   34326      48   34329   34338      48   34341   34350      48   34353
   34362      48   34365   34374      48   34377   34386      48   34389   34398
      48   34401   34410      48   34413   34422      48   34425   34434      48
   34437   34446      48   34449   34458      48   34461   34470      48   34473
   34482      48   34485   34494      48   34497   34506      48   34509   34518
      48   34521   34530      48   34533   34542      48   34545   34554      48
   34557   34566      48   34569   34578      48   34581   34590      48   34593
   34602      48   34605   34614      48   34617   34626      48   34629   34638
      48   34641   34650      48   34653   34662      48   34665   34674      48
   34677   34686      48   34689   34698      48   34701   34710      48   34713
   34722      48   34725   34734      48   34737   34746      48   34749   34758
      48   34761   34770      48   34773   34782      48   34785   34794      48
   34797   34806      48   34809   34818      48   34821   34830      48   34833
   34842      48   34845   34854      48   34857   34866      48   34869   34878
      48   34881   34890      48   34893   34902      48   34905   34914      48
   34917   34926      48   34929   34938      48   34941   34950      48   34953
   34962      48   34965   34974      48   34977   34986      48   34989   34998
      48   35001   35010      48   35013   35022      48   35025   35034      48
   35037   35046      48   35049   35058      48   35061   35070      48   35073
   35082      48   35085   35094      48   35097   35106      48   35109   35118
      48   35121   35130      48   35133   35142      48   35145   35154      48
   35157   35166      48   35169   35178      48   35181   35190      48   35193
   35202      48   35205   35214      48   35217   35226      48   35229   35238
      48   35241   35250      48   35253   35262      48   35265   35274      48
   35277   35286      48   35289   35298      48   35301   35310      48   35313
   35322      48   35325   35334      48   35337   35346      48   35349   35358
      48   35361   35370      48   35373   35382      48   35385   35394      48
   35397   35406      48   35409   35418      48   35421   35430      48   35433
   35442      48   35445   35454      48   35457   35466      48   35469   35478
      48   35481   35490      48   35493   35502      48   35505   35514      48
   35517   35526      48   35529   35538      48   35541   35550      48   35553
   35562      48   35565   35574      48   35577   35586      48   35589   35598
      48   35601   35610      48   35613   35622      48   35625   35634      48
   35637   35646      48   35649   35658      48   35661   35670      48   35673
   35682      48   35685   35694      48   35697   35706      48   35709   35718
      48   35721   35730      48   35733   35742      48   35745   35754      48
   35757   35766      48   35769   35778      48   35781   35790      48   35793
   35802      48   35805   35814      48   35817   35826      48   35829   35838
      48   35841   35850      48   35853   35862      48   35865   35874      48
   35877   35886      48   35889   35898      48   35901   35910      48   35913
   35922      48   35925   35934      48   35937   35946      48   35949   35958
      48   35961   35970      48   35973   35982      48   35985   35994      48
   35997   36006      48   36009   36018      48   36021   36030      48   36033
   36042      48   36045   36054      48   36057   36066      48   36069   36078
      48   36081   36090      48   36093   36102      48   36105   36114      48
   36117   36126      48   36129   36138      48   36141   36150      48   36153
   36162      48   36165   36174      48   36177   36186      48   36189   36198
      48   36201   36210      48   36213   36222      48   36225   36234      48
   36237   36246      48   36249   36258      48   36261   36270      48   36273
   36282      48   36285   36294      48   36297   36306      48   36309   36318
      48   36321   36330      48   36333   36342      48   36345   36354      48
   36357   36366      48   36369   36378      48   36381   36390      48   36393
   36402      48   36405   36414      48   36417   36426      48   36429   36438
      48   36441   36450      48   36453   36462      48   36465   36474      48
   36477   36486      48   36489   36498      48   36501   36510      48   36513
   36522      48   36525   36534      48   36537   36546      48   36549   36558
      48   36561   36570      48   36573   36582      48   36585   36594      48
   36597   36606      48   36609   36618      48   36621   36630      48   36633
   36642      48   36645   36654      48   36657   36666      48   36669   36678
      48   36681   36690      48   36693   36702      48   36705   36714      48
   36717   36726      48   36729   36738      48   36741   36750      48   36753
   36762      48   36765   36774      48   36777   36786      48   36789   36798
      48   36801   36810      48   36813   36822      48   36825   36834      48
   36837   36846      48   36849   36858      48   36861   36870      48   36873
   36882      48   36885   36894      48   36897   36906      48   36909   36918
      48   36921   36930      48   36933   36942      48   36945   36954      48
   36957   36966      48   36969   36978      48   36981   36990      48   36993
   37002      48   37005   37014      48   37017   37026      48   37029   37038
      48   37041   37050      48   37053   37062      48   37065   37074      48
   37077   37086      48   37089   37098      48   37101   37110      48   37113
   37122      48   37125   37134      48   37137   37146      48   37149   37158
      48   37161   37170      48   37173   37182      48   37185   37194      48
   37197   37206      48   37209   37218      48   37221   37230      48   37233
   37242      48   37245   37254      48   37257   37266      48   37269   37278
      48   37281   37290      48   37293   37302      48   37305   37314      48
   37317   37326      48   37329   37338      48   37341   37350      48   37353
   37362      48   37365   37374      48   37377   37386      48   37389   37398
      48   37401   37410      48   37413   37422      48   37425   37434      48
   37437   37446      48   37449   37458      48   37461   37470      48   37473
   37482      48   37485   37494      48   37497   37506      48   37509   37518
      48   37521   37530      48   37533   37542      48   37545   37554      48
   37557   37566      48   37569   37578      48   37581   37590      48   37593
   37602      48   37605   37614      48   37617   37626      48   37629   37638
      48   37641   37650      48   37653   37662      48   37665   37674      48
   37677   37686      48   37689   37698      48   37701   37710      48   37713
   37722      48   37725   37734      48   37737   37746      48   37749   37758
      48   37761   37770      48   37773   37782      48   37785   37794      48
   37797   37806      48   37809   37818      48   37821   37830      48   37833
   37842      48   37845   37854      48   37857   37866      48   37869   37878
      48   37881   37890      48   37893   37902      48   37905   37914      48
   37917   37926      48   37929   37938      48   37941   37950      48   37953
   37962      48   37965   37974      48   37977   37986      48   37989   37998
      48   38001   38010      48   38013   38022      48   38025   38034      48
   38037   38046      48   38049   38058      48   38061   38070      48   38073
   38082      48   38085   38094      48   38097   38106      48   38109   38118
      48   38121   38130      48   38133   38142      48   38145   38154      48
   38157   38166      48   38169   38178      48   38181   38190      48   38193
   38202      48   38205   38214      48   38217   38226      48   38229   38238
      48   38241   38250      48   38253   38262      48   38265   38274      48
   38277   38286      48   38289   38298      48   38301   38310      48   38313
   38322      48   38325   38334      48   38337   38346      48   38349   38358
      48   38361   38370      48   38373   38382      48   38385   38394      48
   38397   38406      48   38409   38418      48   38421   38430      48   38433
   38442      48   38445   38454      48   38457   38466      48   38469   38478
      48   38481   38490      48   38493   38502      48   38505   38514      48
   38517   38526      48   38529   38538      48   38541   38550      48   38553
   38562      48   38565   38574      48   38577   38586      48   38589   38598
      48   38601   38610      48   38613   38622      48   38625   38634      48
   38637   38646      48   38649   38658      48   38661   38670      48   38673
   38682      48   38685   38694      48   38697   38706      48   38709   38718
      48   38721   38730      48   38733   38742      48   38745   38754      48
   38757   38766      48   38769   38778      48   38781   38790      48   38793
   38802      48   38805   38814      48   38817   38826      48   38829   38838
      48   38841   38850      48   38853   38862      48   38865   38874      48
   38877   38886      48   38889   38898      48   38901   38910      48   38913
   38922      48   38925   38934      48   38937   38946      48   38949   38958
      48   38961   38970      48   38973   38982      48   38985   38994      48
   38997   39006      48   39009   39018      48   39021   39030      48   39033
   39042      48   39045   39054      48   39057   39066      48   39069   39078
      48   39081   39090      48   39093   39102      48   39105   39114      48
   39117   39126      48   39129   39138      48   39141   39150      48   39153
   39162      48   39165   39174      48   39177   39186      48   39189   39198
      48   39201   39210      48   39213   39222      48   39225   39234      48
   39237   39246      48   39249   39258      48   39261   39270      48   39273
   39282      48   39285   39294      48   39297   39306      48   39309   39318
      48   39321   39330      48   39333   39342      48   39345   39354      48
   39357   39366      48   39369   39378      48   39381   39390      48   39393
   39402      48   39405   39414      48   39417   39426      48   39429   39438
      48   39441   39450      48   39453   39462      48   39465   39474      48
   39477   39486      48   39489   39498      48   39501   39510      48   39513
   39522      48   39525   39534      48   39537   39546      48   39549   39558
      48   39561   39570      48   39573   39582      48   39585   39594      48
   39597   39606      48   39609   39618      48   39621   39630      48   39633
   39642      48   39645   39654      48   39657   39666      48   39669   39678
      48   39681   39690      48   39693   39702      48   39705   39714      48
   39717   39726      48   39729   39738      48   39741   39750      48   39753
   39762      48   39765   39774      48   39777   39786      48   39789   39798
      48   39801   39810      48   39813   39822      48   39825   39834      48
   39837   39846      48   39849   39858      48   39861   39870      48   39873
   39882      48   39885   39894      48   39897   39906      48   39909   39918
      48   39921   39930      48   39933   39942      48   39945   39954      48
   39957   39966      48   39969   39978      48   39981   39990      48   39993
   40002      48   40005   40014      48   40017   40026      48   40029   40038
      48   40041   40050      48   40053   40062      48   40065   40074      48
   40077   40086      48   40089   40098      48   40101   40110      48   40113
   40122      48   40125   40134      48   40137   40146      48   40149   40158
      48   40161   40170      48   40173   40182      48   40185   40194      48
   40197   40206      48   40209   40218      48   40221   40230      48   40233
   40242      48   40245   40254      48   40257   40266      48   40269   40278
      48   40281   40290      48   40293   40302      48   40305   40314      48
   40317   40326      48   40329   40338      48   40341   40350      48   40353
   40362      48   40365   40374      48   40377   40386      48   40389   40398
      48   40401   40410      48   40413   40422      48   40425   40434      48
   40437   40446      48   40449   40458      48   40461   40470      48   40473
   40482      48   40485   40494      48   40497   40506      48   40509   40518
      48   40521   40530      48   40533   40542      48   40545   40554      48
   40557   40566      48   40569   40578      48   40581   40590      48   40593
   40602      48   40605   40614      48   40617   40626      48   40629   40638
      48   40641   40650      48   40653   40662      48   40665   40674      48
   40677   40686      48   40689   40698      48   40701   40710      48   40713
   40722      48   40725   40734      48   40737   40746      48   40749   40758
      48   40761   40770      48   40773   40782      48   40785   40794      48
   40797   40806      48   40809   40818      48   40821   40830      48   40833
   40842      48   40845   40854      48   40857   40866      48   40869   40878
      48   40881   40890      48   40893   40902      48   40905   40914      48
   40917   40926      48   40929   40938      48   40941   40950      48   40953
   40962      48   40965   40974      48   40977   40986      48   40989   40998
      48   41001   41010      48   41013   41022      48   41025   41034      48
   41037   41046      48   41049   41058      48   41061   41070      48   41073
   41082      48   41085   41094      48   41097   41106      48   41109   41118
      48   41121   41130      48   41133   41142      48   41145   41154      48
   41157   41166      48   41169   41178      48   41181   41190      48   41193
   41202      48   41205   41214      48   41217   41226      48   41229   41238
      48   41241   41250      48   41253   41262      48   41265   41274      48
   41277   41286      48   41289   41298      48   41301   41310      48   41313
   41322      48   41325   41334      48   41337   41346      48   41349   41358
      48   41361   41370      48   41373   41382      48   41385   41394      48
   41397   41406      48   41409   41418      48   41421   41430      48   41433
   41442      48   41445   41454      48   41457   41466      48   41469   41478
      48   41481   41490      48   41493   41502      48   41505   41514      48
   41517   41526      48   41529   41538      48   41541   41550      48   41553
   41562      48   41565   41574      48   41577   41586      48   41589   41598
      48   41601   41610      48   41613   41622      48   41625   41634      48
   41637   41646      48   41649   41658      48   41661   41670      48   41673
   41682      48   41685   41694      48   41697   41706      48   41709   41718
      48   41721   41730      48   41733   41742      48   41745   41754      48
   41757   41766      48   41769   41778      48   41781   41790      48   41793
   41802      48   41805   41814      48   41817   41826      48   41829   41838
      48   41841   41850      48   41853   41862      48   41865   41874      48
   41877   41886      48   41889   41898      48   41901   41910      48   41913
   41922      48   41925   41934      48   41937   41946      48   41949   41958
      48   41961   41970      48   41973   41982      48   41985   41994      48
   41997   42006      48   42009   42018      48   42021   42030      48   42033
   42042      48   42045   42054      48   42057   42066      48   42069   42078
      48   42081   42090      48   42093   42102      48   42105   42114      48
   42117   42126      48   42129   42138      48   42141   42150      48   42153
   42162      48   42165   42174      48   42177   42186      48   42189   42198
      48   42201   42210      48   42213   42222      48   42225   42234      48
   42237   42246      48   42249   42258      48   42261   42270      48   42273
   42282      48   42285   42294      48   42297   42306      48   42309   42318
      48   42321   42330      48   42333   42342      48   42345   42354      48
   42357   42366      48   42369   42378      48   42381   42390      48   42393
   42402      48   42405   42414      48   42417   42426      48   42429   42438
      48   42441   42450      48   42453   42462      48   42465   42474      48
   42477   42486      48   42489   42498      48   42501   42510      48   42513
   42522      48   42525   42534      48   42537   42546      48   42549   42558
      48   42561   42570      48   42573   42582      48   42585   42594      48
   42597   42606      48   42609   42618      48   42621   42630      48   42633
   42642      48   42645   42654      48   42657   42666      48   42669   42678
      48   42681   42690      48   42693   42702      48   42705   42714      48
   42717   42726      48   42729   42738      48   42741   42750      48   42753
   42762      48   42765   42774      48   42777   42786      48   42789   42798
      48   42801   42810      48   42813   42822      48   42825   42834      48
   42837   42846      48   42849   42858      48   42861   42870      48   42873
   42882      48   42885   42894      48   42897   42906      48   42909   42918
      48   42921   42930      48   42933   42942      48   42945   42954      48
   42957   42966      48   42969   42978      48   42981   42990      48   42993
   43002      48   43005   43014      48   43017   43026      48   43029   43038
      48   43041   43050      48   43053   43062      48   43065   43074      48
   43077   43086      48   43089   43098      48   43101   43110      48   43113
   43122      48   43125   43134      48   43137   43146      48   43149   43158
      48   43161   43170      48   43173   43182      48   43185   43194      48
   43197   43206      48   43209   43218      48   43221   43230      48   43233
   43242      48   43245   43254      48   43257   43266      48   43269   43278
      48   43281   43290      48   43293   43302      48   43305   43314      48
   43317   43326      48   43329   43338      48   43341   43350      48   43353
   43362      48   43365   43374      48   43377   43386      48   43389   43398
      48   43401   43410      48   43413   43422      48   43425   43434      48
   43437   43446      48   43449   43458      48   43461   43470      48   43473
   43482      48   43485   43494      48   43497   43506      48   43509   43518
      48   43521   43530      48   43533   43542      48   43545   43554      48
   43557   43566      48   43569   43578      48   43581   43590      48   43593
   43602      48   43605   43614      48   43617   43626      48   43629   43638
      48   43641   43650      48   43653   43662      48   43665   43674      48
   43677   43686      48   43689   43698      48   43701   43710      48   43713
   43722      48   43725   43734      48   43737   43746      48   43749   43758
      48   43761   43770      48   43773   43782      48   43785   43794      48
   43797   43806      48   43809   43818      48   43821   43830      48   43833
   43842      48   43845   43854      48   43857   43866      48   43869   43878
      48   43881   43890      48   43893   43902      48   43905   43914      48
   43917   43926      48   43929   43938      48   43941   43950      48   43953
   43962      48   43965   43974      48   43977   43986      48   43989   43998
      48   44001   44010      48   44013   44022      48   44025   44034      48
   44037   44046      48   44049   44058      48   44061   44070      48   44073
   44082      48   44085   44094      48   44097   44106      48   44109   44118
      48   44121   44130      48   44133   44142      48   44145   44154      48
   44157   44166      48   44169   44178      48   44181   44190      48   44193
   44202      48   44205   44214      48   44217   44226      48   44229   44238
      48   44241   44250      48   44253   44262      48   44265   44274      48
   44277   44286      48   44289   44298      48   44301   44310      48   44313
   44322      48   44325   44334      48   44337   44346      48   44349   44358
      48   44361   44370      48   44373   44382      48   44385   44394      48
   44397   44406      48   44409   44418      48   44421   44430      48   44433
   44442      48   44445   44454      48   44457   44466      48   44469   44478
      48   44481   44490      48   44493   44502      48   44505   44514      48
   44517   44526      48   44529   44538      48   44541   44550      48   44553
   44562      48   44565   44574      48   44577   44586      48   44589   44598
      48   44601   44610      48   44613   44622      48   44625   44634      48
   44637   44646      48   44649   44658      48   44661   44670      48   44673
   44682      48   44685   44694      48   44697   44706      48   44709   44718
      48   44721   44730      48   44733   44742      48   44745   44754      48
   44757   44766      48   44769   44778      48   44781   44790      48   44793
   44802      48   44805   44814      48   44817   44826      48   44829   44838
      48   44841   44850      48   44853   44862      48   44865   44874      48
   44877   44886      48   44889   44898      48   44901   44910      48   44913
   44922      48   44925   44934      48   44937   44946      48   44949   44958
      48   44961   44970      48   44973   44982      48   44985   44994      48
   44997   45006      48   45009   45018      48   45021   45030      48   45033
   45042      48   45045   45054      48   45057   45066      48   45069   45078
      48   45081   45090      48   45093   45102      48   45105   45114      48
   45117   45126      48   45129   45138      48   45141   45150      48   45153
   45162      48   45165   45174      48   45177   45186      48   45189   45198
      48   45201   45210      48   45213   45222      48   45225   45234      48
   45237   45246      48   45249   45258      48   45261   45270      48   45273
   45282      48   45285   45294      48   45297   45306      48   45309   45318
      48   45321   45330      48   45333   45342      48   45345   45354      48
   45357   45366      48   45369   45378      48   45381   45390      48   45393
   45402      48   45405   45414      48   45417   45426      48   45429   45438
      48   45441   45450      48   45453   45462      48   45465   45474      48
   45477   45486      48   45489   45498      48   45501   45510      48   45513
   45522      48   45525   45534      48   45537   45546      48   45549   45558
      48   45561   45570      48   45573   45582      48   45585   45594      48
   45597   45606      48   45609   45618      48   45621   45630      48   45633
   45642      48   45645   45654      48   45657   45666      48   45669   45678
      48   45681   45690      48   45693   45702      48   45705   45714      48
   45717   45726      48   45729   45738      48   45741   45750      48   45753
   45762      48   45765   45774      48   45777   45786      48   45789   45798
      48   45801   45810      48   45813   45822      48   45825   45834      48
   45837   45846      48   45849   45858      48   45861   45870      48   45873
   45882      48   45885   45894      48   45897   45906      48   45909   45918
      48   45921   45930      48   45933   45942      48   45945   45954      48
   45957   45966      48   45969   45978      48   45981   45990      48   45993
   46002      48   46005   46014      48   46017   46026      48   46029   46038
      48   46041   46050      48   46053   46062      48   46065   46074      48
   46077   46086      48   46089   46098      48   46101   46110      48   46113
   46122      48   46125   46134      48   46137   46146      48   46149   46158
      48   46161   46170      48   46173   46182      48   46185   46194      48
   46197   46206      48   46209   46218      48   46221   46230      48   46233
   46242      48   46245   46254      48   46257   46266      48   46269   46278
      48   46281   46290      48   46293   46302      48   46305   46314      48
   46317   46326      48   46329   46338      48   46341   46350      48   46353
   46362      48   46365   46374      48   46377   46386      48   46389   46398
      48   46401   46410      48   46413   46422      48   46425   46434      48
   46437   46446      48   46449   46458      48   46461   46470      48   46473
   46482      48   46485   46494      48   46497   46506      48   46509   46518
      48   46521   46530      48   46533   46542      48   46545   46554      48
   46557   46566      48   46569   46578      48   46581   46590      48   46593
   46602      48   46605   46614      48   46617   46626      48   46629   46638
      48   46641   46650      48   46653   46662      48   46665   46674      48
   46677   46686      48   46689   46698      48   46701   46710      48   46713
   46722      48   46725   46734      48   46737   46746      48   46749   46758
      48   46761   46770      48   46773   46782      48   46785   46794      48
   46797   46806      48   46809   46818      48   46821   46830      48   46833
   46842      48   46845   46854      48   46857   46866      48   46869   46878
      48   46881   46890      48   46893   46902      48   46905   46914      48
   46917   46926      48   46929   46938      48   46941   46950      48   46953
   46962      48   46965   46974      48   46977   46986      48   46989   46998
      48   47001   47010      48   47013   47022      48   47025   47034      48
   47037   47046      48   47049   47058      48   47061   47070      48   47073
   47082      48   47085   47094      48   47097   47106      48   47109   47118
      48   47121   47130      48   47133   47142      48   47145   47154      48
   47157   47166      48   47169   47178      48   47181   47190      48   47193
   47202      48   47205   47214      48   47217   47226      48   47229   47238
      48   47241   47250      48   47253   47262      48   47265   47274      48
   47277   47286      48   47289   47298      48   47301   47310      48   47313
   47322      48   47325   47334      48   47337   47346      48   47349   47358
      48   47361   47370      48   47373   47382      48   47385   47394      48
   47397   47406      48   47409   47418      48   47421   47430      48   47433
   47442      48   47445   47454      48   47457   47466      48   47469   47478
      48   47481   47490      48   47493   47502      48   47505   47514      48
   47517   47526      48   47529   47538      48   47541   47550      48   47553
   47562      48   47565   47574      48   47577   47586      48   47589   47598
      48   47601   47610      48   47613   47622      48   47625   47634      48
   47637   47646      48   47649   47658      48   47661   47670      48   47673
   47682      48   47685   47694      48   47697   47706      48   47709   47718
      48   47721   47730      48   47733   47742      48   47745   47754      48
   47757   47766      48   47769   47778      48   47781   47790      48   47793
   47802      48   47805   47814      48   47817   47826      48   47829   47838
      48   47841   47850      48   47853   47862      48   47865   47874      48
   47877   47886      48   47889   47898      48   47901   47910      48   47913
   47922      48   47925   47934      48   47937   47946      48   47949   47958
      48   47961   47970      48   47973   47982      48   47985   47994      48
   47997   48006      48   48009   48018      48   48021   48030      48   48033
   48042      48   48045   48054      48   48057   48066      48   48069   48078
      48   48081   48090      48   48093   48102      48   48105   48114      48
   48117   48126      48   48129   48138      48   48141   48150      48   48153
   48162      48   48165   48174      48   48177   48186      48   48189   48198
      48   48201   48210      48   48213   48222      48   48225   48234      48
   48237   48246      48   48249   48258      48   48261   48270      48   48273
   48282      48   48285   48294      48   48297   48306      48   48309   48318
      48   48321   48330      48   48333   48342      48   48345   48354      48
   48357   48366      48   48369   48378      48   48381   48390      48   48393
   48402      48   48405   48414      48   48417   48426      48   48429   48438
      48   48441   48450      48   48453   48462      48   48465   48474      48
   48477   48486      48   48489   48498      48   48501   48510      48   48513
   48522      48   48525   48534      48   48537   48546      48   48549   48558
      48   48561   48570      48   48573   48582      48   48585   48594      48
   48597   48606      48   48609   48618      48   48621   48630      48   48633
   48642      48   48645   48654      48   48657   48666      48   48669   48678
      48   48681   48690      48   48693   48702      48   48705   48714      48
   48717   48726      48   48729   48738      48   48741   48750      48   48753
   48762      48   48765   48774      48   48777   48786      48   48789   48798
      48   48801   48810      48   48813   48822      48   48825   48834      48
   48837   48846      48   48849   48858      48   48861   48870      48   48873
   48882      48   48885   48894      48   48897   48906      48   48909   48918
      48   48921   48930      48   48933   48942      48   48945   48954      48
   48957   48966      48   48969   48978      48   48981   48990      48   48993
   49002      48   49005   49014      48   49017   49026      48   49029   49038
      48   49041   49050      48   49053   49062      48   49065   49074      48
   49077   49086      48   49089   49098      48   49101   49110      48   49113
   49122      48   49125   49134      48   49137   49146      48   49149   49158
      48   49161   49170      48   49173   49182      48   49185   49194      48
   49197   49206      48   49209   49218      48   49221   49230      48   49233
   49242      48   49245   49254      48   49257   49266      48   49269   49278
      48   49281   49290      48   49293   49302      48   49305   49314      48
   49317   49326      48   49329   49338      48   49341   49350      48   49353
   49362      48   49365   49374      48   49377   49386      48   49389   49398
      48   49401   49410      48   49413   49422      48   49425   49434      48
   49437   49446      48   49449   49458      48   49461   49470      48   49473
   49482      48   49485   49494      48   49497   49506      48   49509   49518
      48   49521   49530      48   49533   49542      48   49545   49554      48
   49557   49566      48   49569   49578      48   49581   49590      48   49593
   49602      48   49605   49614      48   49617   49626      48   49629   49638
      48   49641   49650      48   49653   49662      48   49665   49674      48
   49677   49686      48   49689   49698      48   49701   49710      48   49713
   49722      48   49725   49734      48   49737   49746      48   49749   49758
      48   49761   49770      48   49773   49782      48   49785   49794      48
   49797   49806      48   49809   49818      48   49821   49830      48   49833
   49842      48   49845   49854      48   49857   49866      48   49869   49878
      48   49881   49890      48   49893   49902      48   49905   49914      48
   49917   49926      48   49929   49938      48   49941   49950      48   49953
   49962      48   49965   49974      48   49977   49986      48   49989   49998
      48   50001   50010      48   50013   50022      48   50025   50034      48
   50037   50046      48   50049   50058      48   50061   50070      48   50073
   50082      48   50085   50094      48   50097   50106      48   50109   50118
      48   50121   50130      48   50133   50142      48   50145   50154      48
   50157   50166      48   50169   50178      48   50181   50190      48   50193
   50202      48   50205   50214      48   50217   50226      48   50229   50238
      48   50241   50250      48   50253   50262      48   50265   50274      48
   50277   50286      48   50289   50298      48   50301   50310      48   50313
   50322      48   50325   50334      48   50337   50346      48   50349   50358
      48   50361   50370      48   50373   50382      48   50385   50394      48
   50397   50406      48   50409   50418      48   50421   50430      48   50433
   50442      48   50445   50454      48   50457   50466      48   50469   50478
      48   50481   50490      48   50493   50502      48   50505   50514      48
   50517   50526      48   50529   50538      48   50541   50550      48   50553
   50562      48   50565   50574      48   50577   50586      48   50589   50598
      48   50601   50610      48   50613   50622      48   50625   50634      48
   50637   50646      48   50649   50658      48   50661   50670      48   50673
   50682      48   50685   50694      48   50697   50706      48   50709   50718
      48   50721   50730      48   50733   50742      48   50745   50754      48
   50757   50766      48   50769   50778      48   50781   50790      48   50793
   50802      48   50805   50814      48   50817   50826      48   50829   50838
      48   50841   50850      48   50853   50862      48   50865   50874      48
   50877   50886      48   50889   50898      48   50901   50910      48   50913
   50922      48   50925   50934      48   50937   50946      48   50949   50958
      48   50961   50970      48   50973   50982      48   50985   50994      48
   50997   51006      48   51009   51018      48   51021   51030      48   51033
   51042      48   51045   51054      48   51057   51066      48   51069   51078
      48   51081   51090      48   51093   51102      48   51105   51114      48
   51117   51126      48   51129   51138      48   51141   51150      48   51153
   51162      48   51165   51174      48   51177   51186      48   51189   51198
      48   51201   51210      48   51213   51222      48   51225   51234      48
   51237   51246      48   51249   51258      48   51261   51270      48   51273
   51282      48   51285   51294      48   51297   51306      48   51309   51318
      48   51321   51330      48   51333   51342      48   51345   51354      48
   51357   51366      48   51369   51378      48   51381   51390      48   51393
   51402      48   51405   51414      48   51417   51426      48   51429   51438
      48   51441   51450      48   51453   51462      48   51465   51474      48
   51477   51486      48   51489   51498      48   51501   51510      48   51513
   51522      48   51525   51534      48   51537   51546      48   51549   51558
      48   51561   51570      48   51573   51582      48   51585   51594      48
   51597   51606      48   51609   51618      48   51621   51630      48   51633
   51642      48   51645   51654      48   51657   51666      48   51669   51678
      48   51681   51690      48   51693   51702      48   51705   51714      48
   51717   51726      48   51729   51738      48   51741   51750      48   51753
   51762      48   51765   51774      48   51777   51786      48   51789   51798
      48   51801   51810      48   51813   51822      48   51825   51834      48
   51837   51846      48   51849   51858      48   51861   51870      48   51873
   51882      48   51885   51894      48   51897   51906      48   51909   51918
      48   51921   51930      48   51933   51942      48   51945   51954      48
   51957   51966      48   51969   51978      48   51981   51990      48   51993
   52002      48   52005   52014      48   52017   52026      48   52029   52038
      48   52041   52050      48   52053   52062      48   52065   52074      48
   52077   52086      48   52089   52098      48   52101   52110      48   52113
   52122      48   52125   52134      48   52137   52146      48   52149   52158
      48   52161   52170      48   52173   52182      48   52185   52194      48
   52197   52206      48   52209   52218      48   52221   52230      48   52233
   52242      48   52245   52254      48   52257   52266      48   52269   52278
      48   52281   52290      48   52293   52302      48   52305   52314      48
   52317   52326      48   52329   52338      48   52341   52350      48   52353
   52362      48   52365   52374      48   52377   52386      48   52389   52398
      48   52401   52410      48   52413   52422      48   52425   52434      48
   52437   52446      48   52449   52458      48   52461   52470      48   52473
   52482      48   52485   52494      48   52497   52506      48   52509   52518
      48   52521   52530      48   52533   52542      48   52545   52554      48
   52557   52566      48   52569   52578      48   52581   52590      48   52593
   52602      48   52605   52614      48   52617   52626      48   52629   52638
      48   52641   52650      48   52653   52662      48   52665   52674      48
   52677   52686      48   52689   52698      48   52701   52710      48   52713
   52722      48   52725   52734      48   52737   52746      48   52749   52758
      48   52761   52770      48   52773   52782      48   52785   52794      48
   52797   52806      48   52809   52818      48   52821   52830      48   52833
   52842      48   52845   52854      48   52857   52866      48   52869   52878
      48   52881   52890      48   52893   52902      48   52905   52914      48
   52917   52926      48   52929   52938      48   52941   52950      48   52953
   52962      48   52965   52974      48   52977   52986      48   52989   52998
      48   53001   53010      48   53013   53022      48   53025   53034      48
   53037   53046      48   53049   53058      48   53061   53070      48   53073
   53082      48   53085   53094      48   53097   53106      48   53109   53118
      48   53121   53130      48   53133   53142      48   53145   53154      48
   53157   53166      48   53169   53178      48   53181   53190      48   53193
   53202      48   53205   53214      48   53217   53226      48   53229   53238
      48   53241   53250      48   53253   53262      48   53265   53274      48
   53277   53286      48   53289   53298      48   53301   53310      48   53313
   53322      48   53325   53334      48   53337   53346      48   53349   53358
      48   53361   53370      48   53373   53382      48   53385   53394      48
   53397   53406      48   53409   53418      48   53421   53430      48   53433
   53442      48   53445   53454      48   53457   53466      48   53469   53478
      48   53481   53490      48   53493   53502      48   53505   53514      48
   53517   53526      48   53529   53538      48   53541   53550      48   53553
   53562      48   53565   53574      48   53577   53586      48   53589   53598
      48   53601   53610      48   53613   53622      48   53625   53634      48
   53637   53646      48   53649   53658      48   53661   53670      48   53673
   53682      48   53685   53694      48   53697   53706      48   53709   53718
      48   53721   53730      48   53733   53742      48   53745   53754      48
   53757   53766      48   53769   53778      48   53781   53790      48   53793
   53802      48   53805   53814      48   53817   53826      48   53829   53838
      48   53841   53850      48   53853   53862      48   53865   53874      48
   53877   53886      48   53889   53898      48   53901   53910      48   53913
   53922      48   53925   53934      48   53937   53946      48   53949   53958
      48   53961   53970      48   53973   53982      48   53985   53994      48
   53997   54006      48   54009   54018      48   54021   54030      48   54033
   54042      48   54045   54054      48   54057   54066      48   54069   54078
      48   54081   54090      48   54093   54102      48   54105   54114      48
   54117   54126      48   54129   54138      48   54141   54150      48   54153
   54162      48   54165   54174      48   54177   54186      48   54189   54198
      48   54201   54210      48   54213   54222      48   54225   54234      48
   54237   54246      48   54249   54258      48   54261   54270      48   54273
   54282      48   54285   54294      48   54297   54306      48   54309   54318
      48   54321   54330      48   54333   54342      48   54345   54354      48
   54357   54366      48   54369   54378      48   54381   54390      48   54393
   54402      48   54405   54414      48   54417   54426      48   54429   54438
      48   54441   54450      48   54453   54462      48   54465   54474      48
   54477   54486      48   54489   54498      48   54501   54510      48   54513
   54522      48   54525   54534      48   54537   54546      48   54549   54558
      48   54561   54570      48   54573   54582      48   54585   54594      48
   54597   54606      48   54609   54618      48   54621   54630      48   54633
   54642      48   54645   54654      48   54657   54666      48   54669   54678
      48   54681   54690      48   54693   54702      48   54705   54714      48
   54717   54726      48   54729   54738      48   54741   54750      48   54753
   54762      48   54765   54774      48   54777   54786      48   54789   54798
      48   54801   54810      48   54813   54822      48   54825   54834      48
   54837   54846      48   54849   54858      48   54861   54870      48   54873
   54882      48   54885   54894      48   54897   54906      48   54909   54918
      48   54921   54930      48   54933   54942      48   54945   54954      48
   54957   54966      48   54969   54978      48   54981   54990      48   54993
   55002      48   55005   55014      48   55017   55026      48   55029   55038
      48   55041   55050      48   55053   55062      48   55065   55074      48
   55077   55086      48   55089   55098      48   55101   55110      48   55113
   55122      48   55125   55134      48   55137   55146      48   55149   55158
      48   55161   55170      48   55173   55182      48   55185   55194      48
   55197   55206      48   55209   55218      48   55221   55230      48   55233
   55242      48   55245   55254      48   55257   55266      48   55269   55278
      48   55281   55290      48   55293   55302      48   55305   55314      48
   55317   55326      48   55329   55338      48   55341   55350      48   55353
   55362      48   55365   55374      48   55377   55386      48   55389   55398
      48   55401   55410      48   55413   55422      48   55425   55434      48
   55437   55446      48   55449   55458      48   55461   55470      48   55473
   55482      48   55485   55494      48   55497   55506      48   55509   55518
      48   55521   55530      48   55533   55542      48   55545   55554      48
   55557   55566      48   55569   55578      48   55581   55590      48   55593
   55602      48   55605   55614      48   55617   55626      48   55629   55638
      48   55641   55650      48   55653   55662      48   55665   55674      48
   55677   55686      48   55689   55698      48   55701   55710      48   55713
   55722      48   55725   55734      48   55737   55746      48   55749   55758
      48   55761   55770      48   55773   55782      48   55785   55794      48
   55797   55806      48   55809   55818      48   55821   55830      48   55833
   55842      48   55845   55854      48   55857   55866      48   55869   55878
      48   55881   55890      48   55893   55902      48   55905   55914      48
   55917   55926      48   55929   55938      48   55941   55950      48   55953
   55962      48   55965   55974      48   55977   55986      48   55989   55998
      48   56001   56010      48   56013   56022      48   56025   56034      48
   56037   56046      48   56049   56058      48   56061   56070      48   56073
   56082      48   56085   56094      48   56097   56106      48   56109   56118
      48   56121   56130      48   56133   56142      48   56145   56154      48
   56157   56166      48   56169   56178      48   56181   56190      48   56193
   56202      48   56205   56214      48   56217   56226      48   56229   56238
      48   56241   56250      48   56253   56262      48   56265   56274      48
   56277   56286      48   56289   56298      48   56301   56310      48   56313
   56322      48   56325   56334      48   56337   56346      48   56349   56358
      48   56361   56370      48   56373   56382      48   56385   56394      48
   56397   56406      48   56409   56418      48   56421   56430      48   56433
   56442      48   56445   56454      48   56457   56466      48   56469   56478
      48   56481   56490      48   56493   56502      48   56505   56514      48
   56517   56526      48   56529   56538      48   56541   56550      48   56553
   56562      48   56565   56574      48   56577   56586      48   56589   56598
      48   56601   56610      48   56613   56622      48   56625   56634      48
   56637   56646      48   56649   56658      48   56661   56670      48   56673
   56682      48   56685   56694      48   56697   56706      48   56709   56718
      48   56721   56730      48   56733   56742      48   56745   56754      48
   56757   56766      48   56769   56778      48   56781   56790      48   56793
   56802      48   56805   56814      48   56817   56826      48   56829   56838
      48   56841   56850      48   56853   56862      48   56865   56874      48
   56877   56886      48   56889   56898      48   56901   56910      48   56913
   56922      48   56925   56934      48   56937   56946      48   56949   56958
      48   56961   56970      48   56973   56982      48   56985   56994      48
   56997   57006      48   57009   57018      48   57021   57030      48   57033
   57042      48   57045   57054      48   57057   57066      48   57069   57078
      48   57081   57090      48   57093   57102      48   57105   57114      48
   57117   57126      48   57129   57138      48   57141   57150      48   57153
   57162      48   57165   57174      48   57177   57186      48   57189   57198
      48   57201   57210      48   57213   57222      48   57225   57234      48
   57237   57246      48   57249   57258      48   57261   57270      48   57273
   57282      48   57285   57294      48   57297   57306      48   57309   57318
      48   57321   57330      48   57333   57342      48   57345   57354      48
   57357   57366      48   57369   57378      48   57381   57390      48   57393
   57402      48   57405   57414      48   57417   57426      48   57429   57438
      48   57441   57450      48   57453   57462      48   57465   57474      48
   57477   57486      48   57489   57498      48   57501   57510      48   57513
   57522      48   57525   57534      48   57537   57546      48   57549   57558
      48   57561   57570      48   57573   57582      48   57585   57594      48
   57597   57606      48   57609   57618      48   57621   57630      48   57633
   57642      48   57645   57654      48   57657   57666      48   57669   57678
      48   57681   57690      48   57693   57702      48   57705   57714      48
   57717   57726      48   57729   57738      48   57741   57750      48   57753
   57762      48   57765   57774      48   57777   57786      48   57789   57798
      48   57801   57810      48   57813   57822      48   57825   57834      48
   57837   57846      48   57849   57858      48   57861   57870      48   57873
   57882      48   57885   57894      48   57897   57906      48   57909   57918
      48   57921   57930      48   57933   57942      48   57945   57954      48
   57957   57966      48   57969   57978      48   57981   57990      48   57993
   58002      48   58005   58014      48   58017   58026      48   58029   58038
      48   58041   58050      48   58053   58062      48   58065   58074      48
   58077   58086      48   58089   58098      48   58101   58110      48   58113
   58122      48   58125   58134      48   58137   58146      48   58149   58158
      48   58161   58170      48   58173   58182      48   58185   58194      48
   58197   58206      48   58209   58218      48   58221   58230      48   58233
   58242      48   58245   58254      48   58257   58266      48   58269   58278
      48   58281   58290      48   58293   58302      48   58305   58314      48
   58317   58326      48   58329   58338      48   58341   58350      48   58353
   58362      48   58365   58374      48   58377   58386      48   58389   58398
      48   58401   58410      48   58413   58422      48   58425   58434      48
   58437   58446      48   58449   58458      48   58461   58470      48   58473
   58482      48   58485   58494      48   58497   58506      48   58509   58518
      48   58521   58530      48   58533   58542      48   58545   58554      48
   58557   58566      48   58569   58578      48   58581   58590      48   58593
   58602      48   58605   58614      48   58617   58626      48   58629   58638
      48   58641   58650      48   58653   58662      48   58665   58674      48
   58677   58686      48   58689   58698      48   58701   58710      48   58713
   58722      48   58725   58734      48   58737   58746      48   58749   58758
      48   58761   58770      48   58773   58782      48   58785   58794      48
   58797   58806      48   58809   58818      48   58821   58830      48   58833
   58842      48   58845   58854      48   58857   58866      48   58869   58878
      48   58881   58890      48   58893   58902      48   58905   58914      48
   58917   58926      48   58929   58938      48   58941   58950      48   58953
   58962      48   58965   58974      48   58977   58986      48   58989   58998
      48   59001   59010      48   59013   59022      48   59025   59034      48
   59037   59046      48   59049   59058      48   59061   59070      48   59073
   59082      48   59085   59094      48   59097   59106      48   59109   59118
      48   59121   59130      48   59133   59142      48   59145   59154      48
   59157   59166      48   59169   59178      48   59181   59190      48   59193
   59202      48   59205   59214      48   59217   59226      48   59229   59238
      48   59241   59250      48   59253   59262      48   59265   59274      48
   59277   59286      48   59289   59298      48   59301   59310      48   59313
   59322      48   59325   59334      48   59337   59346      48   59349   59358
      48   59361   59370      48   59373   59382      48   59385   59394      48
   59397   59406      48   59409   59418      48   59421   59430      48   59433
   59442      48   59445   59454      48   59457   59466      48   59469   59478
      48   59481   59490      48   59493   59502      48   59505   59514      48
   59517   59526      48   59529   59538      48   59541   59550      48   59553
   59562      48   59565   59574      48   59577   59586      48   59589   59598
      48   59601   59610      48   59613   59622      48   59625   59634      48
   59637   59646      48   59649   59658      48   59661   59670      48   59673
   59682      48   59685   59694      48   59697   59706      48   59709   59718
      48   59721   59730      48   59733   59742      48   59745   59754      48
   59757   59766      48   59769   59778      48   59781   59790      48   59793
   59802      48   59805   59814      48   59817   59826      48   59829   59838
      48   59841   59850      48   59853   59862      48   59865   59874      48
   59877   59886      48   59889   59898      48   59901   59910      48   59913
   59922      48   59925   59934      48   59937   59946      48   59949   59958
      48   59961   59970      48   59973   59982      48   59985   59994      48
   59997   60006      48   60009   60018      48   60021   60030      48   60033
   60042      48   60045   60054      48   60057   60066      48   60069   60078
      48   60081   60090      48   60093   60102      48   60105   60114      48
   60117   60126      48   60129   60138      48   60141   60150      48   60153
   60162      48   60165   60174      48   60177   60186      48   60189   60198
      48   60201   60210      48   60213   60222      48   60225   60234      48
   60237   60246      48   60249   60258      48   60261   60270      48   60273
   60282      48   60285   60294      48   60297   60306      48   60309   60318
      48   60321   60330      48   60333   60342      48   60345   60354      48
   60357   60366      48   60369   60378      48   60381   60390      48   60393
   60402      48   60405   60414      48   60417   60426      48   60429   60438
      48   60441   60450      48   60453   60462      48   60465   60474      48
   60477   60486      48   60489   60498      48   60501   60510      48   60513
   60522      48   60525   60534      48   60537   60546      48   60549   60558
      48   60561   60570      48   60573   60582      48   60585   60594      48
   60597   60606      48   60609   60618      48   60621   60630      48   60633
   60642      48   60645   60654      48   60657   60666      48   60669   60678
      48   60681   60690      48   60693   60702      48   60705   60714      48
   60717   60726      48   60729   60738      48   60741   60750      48   60753
   60762      48   60765   60774      48   60777   60786      48   60789   60798
      48   60801   60810      48   60813   60822      48   60825   60834      48
   60837   60846      48   60849   60858      48   60861   60870      48   60873
   60882      48   60885   60894      48   60897   60906      48   60909   60918
      48   60921   60930      48   60933   60942      48   60945   60954      48
   60957   60966      48   60969   60978      48   60981   60990      48   60993
   61002      48   61005   61014      48   61017   61026      48   61029   61038
      48   61041   61050      48   61053   61062      48   61065   61074      48
   61077   61086      48   61089   61098      48   61101   61110      48   61113
   61122      48   61125   61134      48   61137   61146      48   61149   61158
      48   61161   61170      48   61173   61182      48   61185   61194      48
   61197   61206      48   61209   61218      48   61221   61230      48   61233
   61242      48   61245   61254      48   61257   61266      48   61269   61278
      48   61281   61290      48   61293   61302      48   61305   61314      48
   61317   61326      48   61329   61338      48   61341   61350      48   61353
   61362      48   61365   61374      48   61377   61386      48   61389   61398
      48   61401   61410      48   61413   61422      48   61425   61434      48
   61437   61446      48   61449   61458      48   61461   61470      48   61473
   61482      48   61485   61494      48   61497   61506      48   61509   61518
      48   61521   61530      48   61533   61542      48   61545   61554      48
   61557   61566      48   61569   61578      48   61581   61590      48   61593
   61602      48   61605   61614      48   61617   61626      48   61629   61638
      48   61641   61650      48   61653   61662      48   61665   61674      48
   61677   61686      48   61689   61698      48   61701   61710      48   61713
   61722      48   61725   61734      48   61737   61746      48   61749   61758
      48   61761   61770      48   61773   61782      48   61785   61794      48
   61797   61806      48   61809   61818      48   61821   61830      48   61833
   61842      48   61845   61854      48   61857   61866      48   61869   61878
      48   61881   61890      48   61893   61902      48   61905   61914      48
   61917   61926      48   61929   61938      48   61941   61950      48   61953
   61962      48   61965   61974      48   61977   61986      48   61989   61998
      48   62001   62010      48   62013   62022      48   62025   62034      48
   62037   62046      48   62049   62058      48   62061   62070      48   62073
   62082      48   62085   62094      48   62097   62106      48   62109   62118
      48   62121   62130      48   62133   62142      48   62145   62154      48
   62157   62166      48   62169   62178      48   62181   62190      48   62193
   62202      48   62205   62214      48   62217   62226      48   62229   62238
      48   62241   62250      48   62253   62262      48   62265   62274      48
   62277   62286      48   62289   62298      48   62301   62310      48   62313
   62322      48   62325   62334      48   62337   62346      48   62349   62358
      48   62361   62370      48   62373   62382      48   62385   62394      48
   62397   62406      48   62409   62418      48   62421   62430      48   62433
   62442      48   62445   62454      48   62457   62466      48   62469   62478
      48   62481   62490      48   62493   62502      48   62505   62514      48
   62517   62526      48   62529   62538      48   62541   62550      48   62553
   62562      48   62565   62574      48   62577   62586      48   62589   62598
      48   62601   62610      48   62613   62622      48   62625   62634      48
   62637   62646      48   62649   62658      48   62661   62670      48   62673
   62682      48   62685   62694      48   62697   62706      48   62709   62718
      48   62721   62730      48   62733   62742      48   62745   62754      48
   62757   62766      48   62769   62778      48   62781   62790      48   62793
   62802      48   62805   62814      48   62817   62826      48   62829   62838
      48   62841   62850      48   62853   62862      48   62865   62874      48
   62877   62886      48   62889   62898      48   62901   62910      48   62913
   62922      48   62925   62934      48   62937   62946      48   62949   62958
      48   62961   62970      48   62973   62982      48   62985   62994      48
   62997   63006      48   63009   63018      48   63021   63030      48   63033
   63042      48   63045   63054      48   63057   63066      48   63069   63078
      48   63081   63090      48   63093   63102      48   63105   63114      48
   63117   63126      48   63129   63138      48   63141   63150      48   63153
   63162      48   63165   63174      48   63177   63186      48   63189   63198
      48   63201   63210      48   63213   63222      48   63225   63234      48
   63237   63246      48   63249   63258      48   63261   63270      48   63273
   63282      48   63285   63294      48   63297   63306      48   63309   63318
      48   63321   63330      48   63333   63342      48   63345   63354      48
   63357   63366      48   63369   63378      48   63381   63390      48   63393
   63402      48   63405   63414      48   63417   63426      48   63429   63438
      48   63441   63450      48   63453   63462      48   63465   63474      48
   63477   63486      48   63489   63498      48   63501   63510      48   63513
   63522      48   63525   63534      48   63537   63546      48   63549   63558
      48   63561   63570      48   63573   63582      48   63585   63594      48
   63597   63606      48   63609   63618      48   63621   63630      48   63633
   63642      48   63645   63654      48   63657   63666      48   63669   63678
      48   63681   63690      48   63693   63702      48   63705   63714      48
   63717   63726      48   63729   63738      48   63741   63750      48   63753
   63762      48   63765   63774      48   63777   63786      48   63789   63798
      48   63801   63810      48   63813   63822      48   63825   63834      48
   63837   63846      48   63849   63858      48   63861   63870      48   63873
   63882      48   63885   63894      48   63897   63906      48   63909   63918
      48   63921   63930      48   63933   63942      48   63945   63954      48
   63957   63966      48   63969   63978      48   63981   63990      48   63993
   64002      48   64005   64014      48   64017   64026      48   64029   64038
      48   64041   64050      48   64053   64062      48   64065   64074      48
   64077   64086      48   64089   64098      48   64101   64110      48   64113
   64122      48   64125   64134      48   64137   64146      48   64149   64158
      48   64161   64170      48   64173   64182      48   64185   64194      48
   64197   64206      48   64209   64218      48   64221   64230      48   64233
   64242      48   64245   64254      48   64257   64266      48   64269   64278
      48   64281   64290      48   64293   64302      48   64305   64314      48
   64317   64326      48   64329   64338      48   64341   64350      48   64353
   64362      48   64365   64374      48   64377   64386      48   64389   64398
      48   64401   64410      48   64413   64422      48   64425   64434      48
   64437   64446      48   64449   64458      48   64461   64470      48   64473
   64482      48   64485   64494      48   64497   64506      48   64509   64518
      48   64521   64530      48   64533   64542      48   64545   64554      48
   64557   64566      48   64569   64578      48   64581   64590      48   64593
   64602      48   64605   64614      48   64617   64626      48   64629   64638
      48   64641   64650      48   64653   64662      48   64665   64674      48
   64677   64686      48   64689   64698      48   64701   64710      48   64713
   64722      48   64725   64734      48   64737   64746      48   64749   64758
      48   64761   64770      48   64773   64782      48   64785   64794      48
   64797   64806      48   64809   64818      48   64821   64830      48   64833
   64842      48   64845   64854      48   64857   64866      48   64869   64878
      48   64881   64890      48   64893   64902      48   64905   64914      48
   64917   64926      48   64929   64938      48   64941   64950      48   64953
   64962      48   64965   64974      48   64977   64986      48   64989   64998
      48   65001   65010      48   65013   65022      48   65025   65034      48
   65037   65046      48   65049   65058      48   65061   65070      48   65073
   65082      48   65085   65094      48   65097   65106      48   65109   65118
      48   65121   65130      48   65133   65142      48   65145   65154      48
   65157   65166      48   65169   65178      48   65181   65190      48   65193
   65202      48   65205   65214      48   65217   65226      48   65229   65238
      48   65241   65250      48   65253   65262      48   65265   65274      48
   65277   65286      48   65289   65298      48   65301   65310      48   65313
   65322      48   65325   65334      48   65337   65346      48   65349   65358
      48   65361   65370      48   65373   65382      48   65385   65394      48
   65397   65406      48   65409   65418      48   65421   65430      48   65433
   65442      48   65445   65454      48   65457   65466      48   65469   65478
      48   65481   65490      48   65493   65502      48   65505   65514      48
   65517   65526      48   65529   65538      48   65541   65550      48   65553
   65562      48   65565   65574      48   65577   65586      48   65589   65598
      48   65601   65610      48   65613   65622      48   65625   65634      48
   65637   65646      48   65649   65658      48   65661   65670      48   65673
   65682      48   65685   65694      48   65697   65706      48   65709   65718
      48   65721   65730      48   65733   65742      48   65745   65754      48
   65757   65766      48   65769   65778      48   65781   65790      48   65793
   65802      48   65805   65814      48   65817   65826      48   65829   65838
      48   65841   65850      48   65853   65862      48   65865   65874      48
   65877   65886      48   65889   65898      48   65901   65910      48   65913
   65922      48   65925   65934      48   65937   65946      48   65949   65958
      48   65961   65970      48   65973   65982      48   65985   65994      48
   65997   66006      48   66009   66018      48   66021   66030      48   66033
   66042      48   66045   66054      48   66057   66066      48   66069   66078
      48   66081   66090      48   66093   66102      48   66105   66114      48
   66117   66126      48   66129   66138      48   66141   66150      48   66153
   66162      48   66165   66174      48   66177   66186      48   66189   66198
      48   66201   66210      48   66213   66222      48   66225   66234      48
   66237   66246      48   66249   66258      48   66261   66270      48   66273
   66282      48   66285   66294      48   66297   66306      48   66309   66318
      48   66321   66330      48   66333   66342      48   66345   66354      48
   66357   66366      48   66369   66378      48   66381   66390      48   66393
   66402      48   66405   66414      48   66417   66426      48   66429   66438
      48   66441   66450      48   66453   66462      48   66465   66474      48
   66477   66486      48   66489   66498      48   66501   66510      48   66513
   66522      48   66525   66534      48   66537   66546      48   66549   66558
      48   66561   66570      48   66573   66582      48   66585   66594      48
   66597   66606      48   66609   66618      48   66621   66630      48   66633
   66642      48   66645   66654      48   66657   66666      48   66669   66678
      48   66681   66690      48   66693   66702      48   66705   66714      48
   66717   66726      48   66729   66738      48   66741   66750      48   66753
   66762      48   66765   66774      48   66777   66786      48   66789   66798
      48   66801   66810      48   66813   66822      48   66825   66834      48
   66837   66846      48   66849   66858      48   66861   66870      48   66873
   66882      48   66885   66894      48   66897   66906      48   66909   66918
      48   66921   66930      48   66933   66942      48   66945   66954      48
   66957   66966      48   66969   66978      48   66981   66990      48   66993
   67002      48   67005   67014      48   67017   67026      48   67029   67038
      48   67041   67050      48   67053   67062      48   67065   67074      48
   67077   67086      48   67089   67098      48   67101   67110      48   67113
   67122      48   67125   67134      48   67137   67146      48   67149   67158
      48   67161   67170      48   67173   67182      48   67185   67194      48
   67197   67206      48   67209   67218      48   67221   67230      48   67233
   67242      48   67245   67254      48   67257   67266      48   67269   67278
      48   67281   67290      48   67293   67302      48   67305   67314      48
   67317   67326      48   67329   67338      48   67341   67350      48   67353
   67362      48   67365   67374      48   67377   67386      48   67389   67398
      48   67401   67410      48   67413   67422      48   67425   67434      48
   67437   67446      48   67449   67458      48   67461   67470      48   67473
   67482      48   67485   67494      48   67497   67506      48   67509   67518
      48   67521   67530      48   67533   67542      48   67545   67554      48
   67557   67566      48   67569   67578      48   67581   67590      48   67593
   67602      48   67605   67614      48   67617   67626      48   67629   67638
      48   67641   67650      48   67653   67662      48   67665   67674      48
   67677   67686      48   67689   67698      48   67701   67710      48   67713
   67722      48   67725   67734      48   67737   67746      48   67749   67758
      48   67761   67770      48   67773   67782      48   67785   67794      48
   67797   67806      48   67809   67818      48   67821   67830      48   67833
   67842      48   67845   67854      48   67857   67866      48   67869   67878
      48   67881   67890      48   67893   67902      48   67905   67914      48
   67917   67926      48   67929   67938      48   67941   67950      48   67953
   67962      48   67965   67974      48   67977   67986      48   67989   67998
      48   68001   68010      48   68013   68022      48   68025   68034      48
   68037   68046      48   68049   68058      48   68061   68070      48   68073
   68082      48   68085   68094      48   68097   68106      48   68109   68118
      48   68121   68130      48   68133   68142      48   68145   68154      48
   68157   68166      48   68169   68178      48   68181   68190      48   68193
   68202      48   68205   68214      48   68217   68226      48   68229   68238
      48   68241   68250      48   68253   68262      48   68265   68274      48
   68277   68286      48   68289   68298      48   68301   68310      48   68313
   68322      48   68325   68334      48   68337   68346      48   68349   68358
      48   68361   68370      48   68373   68382      48   68385   68394      48
   68397   68406      48   68409   68418      48   68421   68430      48   68433
   68442      48   68445   68454      48   68457   68466      48   68469   68478
      48   68481   68490      48   68493   68502      48   68505   68514      48
   68517   68526      48   68529   68538      48   68541   68550      48   68553
   68562      48   68565   68574      48   68577   68586      48   68589   68598
      48   68601   68610      48   68613   68622      48   68625   68634      48
   68637   68646      48   68649   68658      48   68661   68670      48   68673
   68682      48   68685   68694      48   68697   68706      48   68709   68718
      48   68721   68730      48   68733   68742      48   68745   68754      48
   68757   68766      48   68769   68778      48   68781   68790      48   68793
   68802      48   68805   68814      48   68817   68826      48   68829   68838
      48   68841   68850      48   68853   68862      48   68865   68874      48
   68877   68886      48   68889   68898      48   68901   68910      48   68913
   68922      48   68925   68934      48   68937   68946      48   68949   68958
      48   68961   68970      48   68973   68982      48   68985   68994      48
   68997   69006      48   69009   69018      48   69021   69030      48   69033
   69042      48   69045   69054      48   69057   69066      48   69069   69078
      48   69081   69090      48   69093   69102      48   69105   69114      48
   69117   69126      48   69129   69138      48   69141   69150      48   69153
   69162      48   69165   69174      48   69177   69186      48   69189   69198
      48   69201   69210      48   69213   69222      48   69225   69234      48
   69237   69246      48   69249   69258      48   69261   69270      48   69273
   69282      48   69285   69294      48   69297   69306      48   69309   69318
      48   69321   69330      48   69333   69342      48   69345   69354      48
   69357   69366      48   69369   69378      48   69381   69390      48   69393
   69402      48   69405   69414      48   69417   69426      48   69429   69438
      48   69441   69450      48   69453   69462      48   69465   69474      48
   69477   69486      48   69489   69498      48   69501   69510      48   69513
   69522      48   69525   69534      48   69537   69546      48   69549   69558
      48   69561   69570      48   69573   69582      48   69585   69594      48
   69597   69606      48   69609   69618      48   69621   69630      48   69633
   69642      48   69645   69654      48   69657   69666      48   69669   69678
      48   69681   69690      48   69693   69702      48   69705   69714      48
   69717   69726      48   69729   69738      48   69741   69750      48   69753
   69762      48   69765   69774      48   69777   69786      48   69789   69798
      48   69801   69810      48   69813   69822      48   69825   69834      48
   69837   69846      48   69849   69858      48   69861   69870      48   69873
   69882      48   69885   69894      48   69897   69906      48   69909   69918
      48   69921   69930      48   69933   69942      48   69945   69954      48
   69957   69966      48   69969   69978      48   69981   69990      48   69993
   70002      48   70005   70014      48   70017   70026      48   70029   70038
      48   70041   70050      48   70053   70062      48   70065   70074      48
   70077   70086      48   70089   70098      48   70101   70110      48   70113
   70122      48   70125   70134      48   70137   70146      48   70149   70158
      48   70161   70170      48   70173   70182      48   70185   70194      48
   70197   70206      48   70209   70218      48   70221   70230      48   70233
   70242      48   70245   70254      48   70257   70266      48   70269   70278
      48   70281   70290      48   70293   70302      48   70305   70314      48
   70317   70326      48   70329   70338      48   70341   70350      48   70353
   70362      48   70365   70374      48   70377   70386      48   70389   70398
      48   70401   70410      48   70413   70422      48   70425   70434      48
   70437   70446      48   70449   70458      48   70461   70470      48   70473
   70482      48   70485   70494      48   70497   70506      48   70509   70518
      48   70521   70530      48   70533   70542      48   70545   70554      48
   70557   70566      48   70569   70578      48   70581   70590      48   70593
   70602      48   70605   70614      48   70617   70626      48   70629   70638
      48   70641   70650      48   70653   70662      48   70665   70674      48
   70677   70686      48   70689   70698      48   70701   70710      48   70713
   70722      48   70725   70734      48   70737   70746      48   70749   70758
      48   70761   70770      48   70773   70782      48   70785   70794      48
   70797   70806      48   70809   70818      48   70821   70830      48   70833
   70842      48   70845   70854      48   70857   70866      48   70869   70878
      48   70881   70890      48   70893   70902      48   70905   70914      48
   70917   70926      48   70929   70938      48   70941   70950      48   70953
   70962      48   70965   70974      48   70977   70986      48   70989   70998
      48   71001   71010      48   71013   71022      48   71025   71034      48
   71037   71046      48   71049   71058      48   71061   71070      48   71073
   71082      48   71085   71094      48   71097   71106      48   71109   71118
      48   71121   71130      48   71133   71142      48   71145   71154      48
   71157   71166      48   71169   71178      48   71181   71190      48   71193
   71202      48   71205   71214      48   71217   71226      48   71229   71238
      48   71241   71250      48   71253   71262      48   71265   71274      48
   71277   71286      48   71289   71298      48   71301   71310      48   71313
   71322      48   71325   71334      48   71337   71346      48   71349   71358
      48   71361   71370      48   71373   71382      48   71385   71394      48
   71397   71406      48   71409   71418      48   71421   71430      48   71433
   71442      48   71445   71454      48   71457   71466      48   71469   71478
      48   71481   71490      48   71493   71502      48   71505   71514      48
   71517   71526      48   71529   71538      48   71541   71550      48   71553
   71562      48   71565   71574      48   71577   71586      48   71589   71598
      48   71601   71610      48   71613   71622      48   71625   71634      48
   71637   71646      48   71649   71658      48   71661   71670      48   71673
   71682      48   71685   71694      48   71697   71706      48   71709   71718
      48   71721   71730      48   71733   71742      48   71745   71754      48
   71757   71766      48   71769   71778      48   71781   71790      48   71793
   71802      48   71805   71814      48   71817   71826      48   71829   71838
      48   71841   71850      48   71853   71862      48   71865   71874      48
   71877   71886      48   71889   71898      48   71901   71910      48   71913
   71922      48   71925   71934      48   71937   71946      48   71949   71958
      48   71961   71970      48   71973   71982      48   71985   71994      48
   71997   72006      48   72009   72018      48   72021   72030      48   72033
   72042      48   72045   72054      48   72057   72066      48   72069   72078
      48   72081   72090      48   72093   72102      48   72105   72114      48
   72117   72126      48   72129   72138      48   72141   72150      48   72153
   72162      48   72165   72174      48   72177   72186      48   72189   72198
      48   72201   72210      48   72213   72222      48   72225   72234      48
   72237   72246      48   72249   72258      48   72261   72270      48   72273
   72282      48   72285   72294      48   72297   72306      48   72309   72318
      48   72321   72330      48   72333   72342      48   72345   72354      48
   72357   72366      48   72369   72378      48   72381   72390      48   72393
   72402      48   72405   72414      48   72417   72426      48   72429   72438
      48   72441   72450      48   72453   72462      48   72465   72474      48
   72477   72486      48   72489   72498      48   72501   72510      48   72513
   72522      48   72525   72534      48   72537   72546      48   72549   72558
      48   72561   72570      48   72573   72582      48   72585   72594      48
   72597   72606      48   72609   72618      48   72621   72630      48   72633
   72642      48   72645   72654      48   72657   72666      48   72669   72678
      48   72681   72690      48   72693   72702      48   72705   72714      48
   72717   72726      48   72729   72738      48   72741   72750      48   72753
   72762      48   72765   72774      48   72777   72786      48   72789   72798
      48   72801   72810      48   72813   72822      48   72825   72834      48
   72837   72846      48   72849   72858      48   72861   72870      48   72873
   72882      48   72885   72894      48   72897   72906      48   72909   72918
      48   72921   72930      48   72933   72942      48   72945   72954      48
   72957   72966      48   72969   72978      48   72981   72990      48   72993
   73002      48   73005   73014      48   73017   73026      48   73029   73038
      48   73041   73050      48   73053   73062      48   73065   73074      48
   73077   73086      48   73089   73098      48   73101   73110      48   73113
   73122      48   73125   73134      48   73137   73146      48   73149   73158
      48   73161   73170      48   73173   73182      48   73185   73194      48
   73197   73206      48   73209   73218      48   73221   73230      48   73233
   73242      48   73245   73254      48   73257   73266      48   73269   73278
      48   73281   73290      48   73293   73302      48   73305   73314      48
   73317   73326      48   73329   73338      48   73341   73350      48   73353
   73362      48   73365   73374      48   73377   73386      48   73389   73398
      48   73401   73410      48   73413   73422      48   73425   73434      48
   73437   73446      48   73449   73458      48   73461   73470      48   73473
   73482      48   73485   73494      48   73497   73506      48   73509   73518
      48   73521   73530      48   73533   73542      48   73545   73554      48
   73557   73566      48   73569   73578      48   73581   73590      48   73593
   73602      48   73605   73614      48   73617   73626      48   73629   73638
      48   73641   73650      48   73653   73662      48   73665   73674      48
   73677   73686      48   73689   73698      48   73701   73710      48   73713
   73722      48   73725   73734      48   73737   73746      48   73749   73758
      48   73761   73770      48   73773   73782      48   73785   73794      48
   73797   73806      48   73809   73818      48   73821   73830      48   73833
   73842      48   73845   73854      48   73857   73866      48   73869   73878
      48   73881   73890      48   73893   73902      48   73905   73914      48
   73917   73926      48   73929   73938      48   73941   73950      48   73953
   73962      48   73965   73974      48   73977   73986      48   73989   73998
      48   74001   74010      48   74013   74022      48   74025   74034      48
   74037   74046      48   74049   74058      48   74061   74070      48   74073
   74082      48   74085   74094      48   74097   74106      48   74109   74118
      48   74121   74130      48   74133   74142      48   74145   74154      48
   74157   74166      48   74169   74178      48   74181   74190      48   74193
   74202      48   74205   74214      48   74217   74226      48   74229   74238
      48   74241   74250      48   74253   74262      48   74265   74274      48
   74277   74286      48   74289   74298      48   74301   74310      48   74313
   74322      48   74325   74334      48   74337   74346      48   74349   74358
      48   74361   74370      48   74373   74382      48   74385   74394      48
   74397   74406      48   74409   74418      48   74421   74430      48   74433
   74442      48   74445   74454      48   74457   74466      48   74469   74478
      48   74481   74490      48   74493   74502      48   74505   74514      48
   74517   74526      48   74529   74538      48   74541   74550      48   74553
   74562      48   74565   74574      48   74577   74586      48   74589   74598
      48   74601   74610      48   74613   74622      48   74625   74634      48
   74637   74646      48   74649   74658      48   74661   74670      48   74673
   74682      48   74685   74694      48   74697   74706      48   74709   74718
      48   74721   74730      48   74733   74742      48   74745   74754      48
   74757   74766      48   74769   74778      48   74781   74790      48   74793
   74802      48   74805   74814      48   74817   74826      48   74829   74838
      48   74841   74850      48   74853   74862      48   74865   74874      48
   74877   74886      48   74889   74898      48   74901   74910      48   74913
   74922      48   74925   74934      48   74937   74946      48   74949   74958
      48   74961   74970      48   74973   74982      48   74985   74994      48
   74997   75006      48   75009   75018      48   75021   75030      48   75033
   75042      48   75045   75054      48   75057   75066      48   75069   75078
      48   75081   75090      48   75093   75102      48   75105   75114      48
   75117   75126      48   75129   75138      48   75141   75150      48   75153
   75162      48   75165   75174      48   75177   75186      48   75189   75198
      48   75201   75210      48   75213   75222      48   75225   75234      48
   75237   75246      48   75249   75258      48   75261   75270      48   75273
   75282      48   75285   75294      48   75297   75306      48   75309   75318
      48   75321   75330      48   75333   75342      48   75345   75354      48
   75357   75366      48   75369   75378      48   75381   75390      48   75393
   75402      48   75405   75414      48   75417   75426      48   75429   75438
      48   75441   75450      48   75453   75462      48   75465   75474      48
   75477   75486      48   75489   75498      48   75501   75510      48   75513
   75522      48   75525   75534      48   75537   75546      48   75549   75558
      48   75561   75570      48   75573   75582      48   75585   75594      48
   75597   75606      48   75609   75618      48   75621   75630      48   75633
   75642      48   75645   75654      48   75657   75666      48   75669   75678
      48   75681   75690      48   75693   75702      48   75705   75714      48
   75717   75726      48   75729   75738      48   75741   75750      48   75753
   75762      48   75765   75774      48   75777   75786      48   75789   75798
      48   75801   75810      48   75813   75822      48   75825   75834      48
   75837   75846      48   75849   75858      48   75861   75870      48   75873
   75882      48   75885   75894      48   75897   75906      48   75909   75918
      48   75921   75930      48   75933   75942      48   75945   75954      48
   75957   75966      48   75969   75978      48   75981   75990      48   75993
   76002      48   76005   76014      48   76017   76026      48   76029   76038
      48   76041   76050      48   76053   76062      48   76065   76074      48
   76077   76086      48   76089   76098      48   76101   76110      48   76113
   76122      48   76125   76134      48   76137   76146      48   76149   76158
      48   76161   76170      48   76173   76182      48   76185   76194      48
   76197   76206      48   76209   76218      48   76221   76230      48   76233
   76242      48   76245   76254      48   76257   76266      48   76269   76278
      48   76281   76290      48   76293   76302      48   76305   76314      48
   76317   76326      48   76329   76338      48   76341   76350      48   76353
   76362      48   76365   76374      48   76377   76386      48   76389   76398
      48   76401   76410      48   76413   76422      48   76425   76434      48
   76437   76446      48   76449   76458      48   76461   76470      48   76473
   76482      48   76485   76494      48   76497   76506      48   76509   76518
      48   76521   76530      48   76533   76542      48   76545   76554      48
   76557   76566      48   76569   76578      48   76581   76590      48   76593
   76602      48   76605   76614      48   76617   76626      48   76629   76638
      48   76641   76650      48   76653   76662      48   76665   76674      48
   76677   76686      48   76689   76698      48   76701   76710      48   76713
   76722      48   76725   76734      48   76737   76746      48   76749   76758
      48   76761   76770      48   76773   76782      48   76785   76794      48
   76797   76806      48   76809   76818      48   76821   76830      48   76833
   76842      48   76845   76854      48   76857   76866      48   76869   76878
      48   76881   76890      48   76893   76902      48   76905   76914      48
   76917   76926      48   76929   76938      48   76941   76950      48   76953
   76962      48   76965   76974      48   76977   76986      48   76989   76998
      48   77001   77010      48   77013   77022      48   77025   77034      48
   77037   77046      48   77049   77058      48   77061   77070      48   77073
   77082      48   77085   77094      48   77097   77106      48   77109   77118
      48   77121   77130      48   77133   77142      48   77145   77154      48
   77157   77166      48   77169   77178      48   77181   77190      48   77193
   77202      48   77205   77214      48   77217   77226      48   77229   77238
      48   77241   77250      48   77253   77262      48   77265   77274      48
   77277   77286      48   77289   77298      48   77301   77310      48   77313
   77322      48   77325   77334      48   77337   77346      48   77349   77358
      48   77361   77370      48   77373   77382      48   77385   77394      48
   77397   77406      48   77409   77418      48   77421   77430      48   77433
   77442      48   77445   77454      48   77457   77466      48   77469   77478
      48   77481   77490      48   77493   77502      48   77505   77514      48
   77517   77526      48   77529   77538      48   77541   77550      48   77553
   77562      48   77565   77574      48   77577   77586      48   77589   77598
      48   77601   77610      48   77613   77622      48   77625   77634      48
   77637   77646      48   77649   77658      48   77661   77670      48   77673
   77682      48   77685   77694      48   77697   77706      48   77709   77718
      48   77721   77730      48   77733   77742      48   77745   77754      48
   77757   77766      48   77769   77778      48   77781   77790      48   77793
   77802      48   77805   77814      48   77817   77826      48   77829   77838
      48   77841   77850      48   77853   77862      48   77865   77874      48
   77877   77886      48   77889   77898      48   77901   77910      48   77913
   77922      48   77925   77934      48   77937   77946      48   77949   77958
      48   77961   77970      48   77973   77982      48   77985   77994      48
   77997   78006      48   78009   78018      48   78021   78030      48   78033
   78042      48   78045   78054      48   78057   78066      48   78069   78078
      48   78081   78090      48   78093   78102      48   78105   78114      48
   78117   78126      48   78129   78138      48   78141   78150      48   78153
   78162      48   78165   78174      48   78177   78186      48   78189   78198
      48   78201   78210      48   78213   78222      48   78225   78234      48
   78237   78246      48   78249   78258      48   78261   78270      48   78273
   78282      48   78285   78294      48   78297   78306      48   78309   78318
      48   78321   78330      48   78333   78342      48   78345   78354      48
   78357   78366      48   78369   78378      48   78381   78390      48   78393
   78402      48   78405   78414      48   78417   78426      48   78429   78438
      48   78441   78450      48   78453   78462      48   78465   78474      48
   78477   78486      48   78489   78498      48   78501   78510      48   78513
   78522      48   78525   78534      48   78537   78546      48   78549   78558
      48   78561   78570      48   78573   78582      48   78585   78594      48
   78597   78606      48   78609   78618      48   78621   78630      48   78633
   78642      48   78645   78654      48   78657   78666      48   78669   78678
      48   78681   78690      48   78693   78702      48   78705   78714      48
   78717   78726      48   78729   78738      48   78741   78750      48   78753
   78762      48   78765   78774      48   78777   78786      48   78789   78798
      48   78801   78810      48   78813   78822      48   78825   78834      48
   78837   78846      48   78849   78858      48   78861   78870      48   78873
   78882      48   78885   78894      48   78897   78906      48   78909   78918
      48   78921   78930      48   78933   78942      48   78945   78954      48
   78957   78966      48   78969   78978      48   78981   78990      48   78993
   79002      48   79005   79014      48   79017   79026      48   79029   79038
      48   79041   79050      48   79053   79062      48   79065   79074      48
   79077   79086      48   79089   79098      48   79101   79110      48   79113
   79122      48   79125   79134      48   79137   79146      48   79149   79158
      48   79161   79170      48   79173   79182      48   79185   79194      48
   79197   79206      48   79209   79218      48   79221   79230      48   79233
   79242      48   79245   79254      48   79257   79266      48   79269   79278
      48   79281   79290      48   79293   79302      48   79305   79314      48
   79317   79326      48   79329   79338      48   79341   79350      48   79353
   79362      48   79365   79374      48   79377   79386      48   79389   79398
      48   79401   79410      48   79413   79422      48   79425   79434      48
   79437   79446      48   79449   79458      48   79461   79470      48   79473
   79482      48   79485   79494      48   79497   79506      48   79509   79518
      48   79521   79530      48   79533   79542      48   79545   79554      48
   79557   79566      48   79569   79578      48   79581   79590      48   79593
   79602      48   79605   79614      48   79617   79626      48   79629   79638
      48   79641   79650      48   79653   79662      48   79665   79674      48
   79677   79686      48   79689   79698      48   79701   79710      48   79713
   79722      48   79725   79734      48   79737   79746      48   79749   79758
      48   79761   79770      48   79773   79782      48   79785   79794      48
   79797   79806      48   79809   79818      48   79821   79830      48   79833
   79842      48   79845   79854      48   79857   79866      48   79869   79878
      48   79881   79890      48   79893   79902      48   79905   79914      48
   79917   79926      48   79929   79938      48   79941   79950      48   79953
   79962      48   79965   79974      48   79977   79986      48   79989   79998
      48   80001   80010      48   80013   80022      48   80025   80034      48
   80037   80046      48   80049   80058      48   80061   80070      48   80073
   80082      48   80085   80094      48   80097   80106      48   80109   80118
      48   80121   80130      48   80133   80142      48   80145   80154      48
   80157   80166      48   80169   80178      48   80181   80190      48   80193
   80202      48   80205   80214      48   80217   80226      48   80229   80238
      48   80241   80250      48   80253   80262      48   80265   80274      48
   80277   80286      48   80289   80298      48   80301   80310      48   80313
   80322      48   80325   80334      48   80337   80346      48   80349   80358
      48   80361   80370      48   80373   80382      48   80385   80394      48
   80397   80406      48   80409   80418      48   80421   80430      48   80433
   80442      48   80445   80454      48   80457   80466      48   80469   80478
      48   80481   80490      48   80493   80502      48   80505   80514      48
   80517   80526      48   80529   80538      48   80541   80550      48   80553
   80562      48   80565   80574      48   80577   80586      48   80589   80598
      48   80601   80610      48   80613   80622      48   80625   80634      48
   80637   80646      48   80649   80658      48   80661   80670      48   80673
   80682      48   80685   80694      48   80697   80706      48   80709   80718
      48   80721   80730      48   80733   80742      48   80745   80754      48
   80757   80766      48   80769   80778      48   80781   80790      48   80793
   80802      48   80805   80814      48   80817   80826      48   80829   80838
      48   80841   80850      48   80853   80862      48   80865   80874      48
   80877   80886      48   80889   80898      48   80901   80910      48   80913
   80922      48   80925   80934      48   80937   80946      48   80949   80958
      48   80961   80970      48   80973   80982      48   80985   80994      48
   80997   81006      48   81009   81018      48   81021   81030      48   81033
   81042      48   81045   81054      48   81057   81066      48   81069   81078
      48   81081   81090      48   81093   81102      48   81105   81114      48
   81117   81126      48   81129   81138      48   81141   81150      48   81153
   81162      48   81165   81174      48   81177   81186      48   81189   81198
      48   81201   81210      48   81213   81222      48   81225   81234      48
   81237   81246      48   81249   81258      48   81261   81270      48   81273
   81282      48   81285   81294      48   81297   81306      48   81309   81318
      48   81321   81330      48   81333   81342      48   81345   81354      48
   81357   81366      48   81369   81378      48   81381   81390      48   81393
   81402      48   81405   81414      48   81417   81426      48   81429   81438
      48   81441   81450      48   81453   81462      48   81465   81474      48
   81477   81486      48   81489   81498      48   81501   81510      48   81513
   81522      48   81525   81534      48   81537   81546      48   81549   81558
      48   81561   81570      48   81573   81582      48   81585   81594      48
   81597   81606      48   81609   81618      48   81621   81630      48   81633
   81642      48   81645   81654      48   81657   81666      48   81669   81678
      48   81681   81690      48   81693   81702      48   81705   81714      48
   81717   81726      48   81729   81738      48   81741   81750      48   81753
   81762      48   81765   81774      48   81777   81786      48   81789   81798
      48   81801   81810      48   81813   81822      48   81825   81834      48
   81837   81846      48   81849   81858      48   81861   81870      48   81873
   81882      48   81885   81894      48   81897   81906      48   81909   81918
      48   81921   81930      48   81933   81942      48   81945   81954      48
   81957   81966      48   81969   81978      48   81981   81990      48   81993
   82002      48   82005   82014      48   82017   82026      48   82029   82038
      48   82041   82050      48   82053   82062      48   82065   82074      48
   82077   82086      48   82089   82098      48   82101   82110      48   82113
   82122      48   82125   82134      48   82137   82146      48   82149   82158
      48   82161   82170      48   82173   82182      48   82185   82194      48
   82197   82206      48   82209   82218      48   82221   82230      48   82233
   82242      48   82245   82254      48   82257   82266      48   82269   82278
      48   82281   82290      48   82293   82302      48   82305   82314      48
   82317   82326      48   82329   82338      48   82341   82350      48   82353
   82362      48   82365   82374      48   82377   82386      48   82389   82398
      48   82401   82410      48   82413   82422      48   82425   82434      48
   82437   82446      48   82449   82458      48   82461   82470      48   82473
   82482      48   82485   82494      48   82497   82506      48   82509   82518
      48   82521   82530      48   82533   82542      48   82545   82554      48
   82557   82566      48   82569   82578      48   82581   82590      48   82593
   82602      48   82605   82614      48   82617   82626      48   82629   82638
      48   82641   82650      48   82653   82662      48   82665   82674      48
   82677   82686      48   82689   82698      48   82701   82710      48   82713
   82722      48   82725   82734      48   82737   82746      48   82749   82758
      48   82761   82770      48   82773   82782      48   82785   82794      48
   82797   82806      48   82809   82818      48   82821   82830      48   82833
   82842      48   82845   82854      48   82857   82866      48   82869   82878
      48   82881   82890      48   82893   82902      48   82905   82914      48
   82917   82926      48   82929   82938      48   82941   82950      48   82953
   82962      48   82965   82974      48   82977   82986      48   82989   82998
      48   83001   83010      48   83013   83022      48   83025   83034      48
   83037   83046      48   83049   83058      48   83061   83070      48   83073
   83082      48   83085   83094      48   83097   83106      48   83109   83118
      48   83121   83130      48   83133   83142      48   83145   83154      48
   83157   83166      48   83169   83178      48   83181   83190      48   83193
   83202      48   83205   83214      48   83217   83226      48   83229   83238
      48   83241   83250      48   83253   83262      48   83265   83274      48
   83277   83286      48   83289   83298      48   83301   83310      48   83313
   83322      48   83325   83334      48   83337   83346      48   83349   83358
      48   83361   83370      48   83373   83382      48   83385   83394      48
   83397   83406      48   83409   83418      48   83421   83430      48   83433
   83442      48   83445   83454      48   83457   83466      48   83469   83478
      48   83481   83490      48   83493   83502      48   83505   83514      48
   83517   83526      48   83529   83538      48   83541   83550      48   83553
   83562      48   83565   83574      48   83577   83586      48   83589   83598
      48   83601   83610      48   83613   83622      48   83625   83634      48
   83637   83646      48   83649   83658      48   83661   83670      48   83673
   83682      48   83685   83694      48   83697   83706      48   83709   83718
      48   83721   83730      48   83733   83742      48   83745   83754      48
   83757   83766      48   83769   83778      48   83781   83790      48   83793
   83802      48   83805   83814      48   83817   83826      48   83829   83838
      48   83841   83850      48   83853   83862      48   83865   83874      48
   83877   83886      48   83889   83898      48   83901   83910      48   83913
   83922      48   83925   83934      48   83937   83946      48   83949   83958
      48   83961   83970      48   83973   83982      48   83985   83994      48
   83997   84006      48   84009   84018      48   84021   84030      48   84033
   84042      48   84045   84054      48   84057   84066      48   84069   84078
      48   84081   84090      48   84093   84102      48   84105   84114      48
   84117   84126      48   84129   84138      48   84141   84150      48   84153
   84162      48   84165   84174      48   84177   84186      48   84189   84198
      48   84201   84210      48   84213   84222      48   84225   84234      48
   84237   84246      48   84249   84258      48   84261   84270      48   84273
   84282      48   84285   84294      48   84297   84306      48   84309   84318
      48   84321   84330      48   84333   84342      48   84345   84354      48
   84357   84366      48   84369   84378      48   84381   84390      48   84393
   84402      48   84405   84414      48   84417   84426      48   84429   84438
      48   84441   84450      48   84453   84462      48   84465   84474      48
   84477   84486      48   84489   84498      48   84501   84510      48   84513
   84522      48   84525   84534      48   84537   84546      48   84549   84558
      48   84561   84570      48   84573   84582      48   84585   84594      48
   84597   84606      48   84609   84618      48   84621   84630      48   84633
   84642      48   84645   84654      48   84657   84666      48   84669   84678
      48   84681   84690      48   84693   84702      48   84705   84714      48
   84717   84726      48   84729   84738      48   84741   84750      48   84753
   84762      48   84765   84774      48   84777   84786      48   84789   84798
      48   84801   84810      48   84813   84822      48   84825   84834      48
   84837   84846      48   84849   84858      48   84861   84870      48   84873
   84882      48   84885   84894      48   84897   84906      48   84909   84918
      48   84921   84930      48   84933   84942      48   84945   84954      48
   84957   84966      48   84969   84978      48   84981   84990      48   84993
   85002      48   85005   85014      48   85017   85026      48   85029   85038
      48   85041   85050      48   85053   85062      48   85065   85074      48
   85077   85086      48   85089   85098      48   85101   85110      48   85113
   85122      48   85125   85134      48   85137   85146      48   85149   85158
      48   85161   85170      48   85173   85182      48   85185   85194      48
   85197   85206      48   85209   85218      48   85221   85230      48   85233
   85242      48   85245   85254      48   85257   85266      48   85269   85278
      48   85281   85290      48   85293   85302      48   85305   85314      48
   85317   85326      48   85329   85338      48   85341   85350      48   85353
   85362      48   85365   85374      48   85377   85386      48   85389   85398
      48   85401   85410      48   85413   85422      48   85425   85434      48
   85437   85446      48   85449   85458      48   85461   85470      48   85473
   85482      48   85485   85494      48   85497   85506      48   85509   85518
      48   85521   85530      48   85533   85542      48   85545   85554      48
   85557   85566      48   85569   85578      48   85581   85590      48   85593
   85602      48   85605   85614      48   85617   85626      48   85629   85638
      48   85641   85650      48   85653   85662      48   85665   85674      48
   85677   85686      48   85689   85698      48   85701   85710      48   85713
   85722      48   85725   85734      48   85737   85746      48   85749   85758
      48   85761   85770      48   85773   85782      48   85785   85794      48
   85797   85806      48   85809   85818      48   85821   85830      48   85833
   85842      48   85845   85854      48   85857   85866      48   85869   85878
      48   85881   85890      48   85893   85902      48   85905   85914      48
   85917   85926      48   85929   85938      48   85941   85950      48   85953
   85962      48   85965   85974      48   85977   85986      48   85989   85998
      48   86001   86010      48   86013   86022      48   86025   86034      48
   86037   86046      48   86049   86058      48   86061   86070      48   86073
   86082      48   86085   86094      48   86097   86106      48   86109   86118
      48   86121   86130      48   86133   86142      48   86145   86154      48
   86157   86166      48   86169   86178      48   86181   86190      48   86193
   86202      48   86205   86214      48   86217   86226      48   86229   86238
      48   86241   86250      48   86253   86262      48   86265   86274      48
   86277   86286      48   86289   86298      48   86301   86310      48   86313
   86322      48   86325   86334      48   86337   86346      48   86349   86358
      48   86361   86370      48   86373   86382      48   86385   86394      48
   86397   86406      48   86409   86418      48   86421   86430      48   86433
   86442      48   86445   86454      48   86457   86466      48   86469   86478
      48   86481   86490      48   86493   86502      48   86505   86514      48
   86517   86526      48   86529   86538      48   86541   86550      48   86553
   86562      48   86565   86574      48   86577   86586      48   86589   86598
      48   86601   86610      48   86613   86622      48   86625   86634      48
   86637   86646      48   86649   86658      48   86661   86670      48   86673
   86682      48   86685   86694      48   86697   86706      48   86709   86718
      48   86721   86730      48   86733   86742      48   86745   86754      48
   86757   86766      48   86769   86778      48   86781   86790      48   86793
   86802      48   86805   86814      48   86817   86826      48   86829   86838
      48   86841   86850      48   86853   86862      48   86865   86874      48
   86877   86886      48   86889   86898      48   86901   86910      48   86913
   86922      48   86925   86934      48   86937   86946      48   86949   86958
      48   86961   86970      48   86973   86982      48   86985   86994      48
   86997   87006      48   87009   87018      48   87021   87030      48   87033
   87042      48   87045   87054      48   87057   87066      48   87069   87078
      48   87081   87090      48   87093   87102      48   87105   87114      48
   87117   87126      48   87129   87138      48   87141   87150      48   87153
   87162      48   87165   87174      48   87177   87186      48   87189   87198
      48   87201   87210      48   87213   87222      48   87225   87234      48
   87237   87246      48   87249   87258      48   87261   87270      48   87273
   87282      48   87285   87294      48   87297   87306      48   87309   87318
      48   87321   87330      48   87333   87342      48   87345   87354      48
   87357   87366      48   87369   87378      48   87381   87390      48   87393
   87402      48   87405   87414      48   87417   87426      48   87429   87438
      48   87441   87450      48   87453   87462      48   87465   87474      48
   87477   87486      48   87489   87498      48   87501   87510      48   87513
   87522      48   87525   87534      48   87537   87546      48   87549   87558
      48   87561   87570      48   87573   87582      48   87585   87594      48
   87597   87606      48   87609   87618      48   87621   87630      48   87633
   87642      48   87645   87654      48   87657   87666      48   87669   87678
      48   87681   87690      48   87693   87702      48   87705   87714      48
   87717   87726      48   87729   87738      48   87741   87750      48   87753
   87762      48   87765   87774      48   87777   87786      48   87789   87798
      48   87801   87810      48   87813   87822      48   87825   87834      48
   87837   87846      48   87849   87858      48   87861   87870      48   87873
   87882      48   87885   87894      48   87897   87906      48   87909   87918
      48   87921   87930      48   87933   87942      48   87945   87954      48
   87957   87966      48   87969   87978      48   87981   87990      48   87993
   88002      48   88005   88014      48   88017   88026      48   88029   88038
      48   88041   88050      48   88053   88062      48   88065   88074      48
   88077   88086      48   88089   88098      48   88101   88110      48   88113
   88122      48   88125   88134      48   88137   88146      48   88149   88158
      48   88161   88170      48   88173   88182      48   88185   88194      48
   88197   88206      48   88209   88218      48   88221   88230      48   88233
   88242      48   88245   88254      48   88257   88266      48   88269   88278
      48   88281   88290      48   88293   88302      48   88305   88314      48
   88317   88326      48   88329   88338      48   88341   88350      48   88353
   88362      48   88365   88374      48   88377   88386      48   88389   88398
      48   88401   88410      48   88413   88422      48   88425   88434      48
   88437   88446      48   88449   88458      48   88461   88470      48   88473
   88482      48   88485   88494      48   88497   88506      48   88509   88518
      48   88521   88530      48   88533   88542      48   88545   88554      48
   88557   88566      48   88569   88578      48   88581   88590      48   88593
   88602      48   88605   88614      48   88617   88626      48   88629   88638
      48   88641   88650      48   88653   88662      48   88665   88674      48
   88677   88686      48   88689   88698      48   88701   88710      48   88713
   88722      48   88725   88734      48   88737   88746      48   88749   88758
      48   88761   88770      48   88773   88782      48   88785   88794      48
   88797   88806      48   88809   88818      48   88821   88830      48   88833
   88842      48   88845   88854      48   88857   88866      48   88869   88878
      48   88881   88890      48   88893   88902      48   88905   88914      48
   88917   88926      48   88929   88938      48   88941   88950      48   88953
   88962      48   88965   88974      48   88977   88986      48   88989   88998
      48   89001   89010      48   89013   89022      48   89025   89034      48
   89037   89046      48   89049   89058      48   89061   89070      48   89073
   89082      48   89085   89094      48   89097   89106      48   89109   89118
      48   89121   89130      48   89133   89142      48   89145   89154      48
   89157   89166      48   89169   89178      48   89181   89190      48   89193
   89202      48   89205   89214      48   89217   89226      48   89229   89238
      48   89241   89250      48   89253   89262      48   89265   89274      48
   89277   89286      48   89289   89298      48   89301   89310      48   89313
   89322      48   89325   89334      48   89337   89346      48   89349   89358
      48   89361   89370      48   89373   89382      48   89385   89394      48
   89397   89406      48   89409   89418      48   89421   89430      48   89433
   89442      48   89445   89454      48   89457   89466      48   89469   89478
      48   89481   89490      48   89493   89502      48   89505   89514      48
   89517   89526      48   89529   89538      48   89541   89550      48   89553
   89562      48   89565   89574      48   89577   89586      48   89589   89598
      48   89601   89610      48   89613   89622      48   89625   89634      48
   89637   89646      48   89649   89658      48   89661   89670      48   89673
   89682      48   89685   89694      48   89697   89706      48   89709   89718
      48   89721   89730      48   89733   89742      48   89745   89754      48
   89757   89766      48   89769   89778      48   89781   89790      48   89793
   89802      48   89805   89814      48   89817   89826      48   89829   89838
      48   89841   89850      48   89853   89862      48   89865   89874      48
   89877   89886      48   89889   89898      48   89901   89910      48   89913
   89922      48   89925   89934      48   89937   89946      48   89949   89958
      48   89961   89970      48   89973   89982      48   89985   89994      48
   89997   90006      48   90009   90018      48   90021   90030      48   90033
   90042      48   90045   90054      48   90057   90066      48   90069   90078
      48   90081   90090      48   90093   90102      48   90105   90114      48
   90117   90126      48   90129   90138      48   90141   90150      48   90153
   90162      48   90165   90174      48   90177   90186      48   90189   90198
      48   90201   90210      48   90213   90222      48   90225   90234      48
   90237   90246      48   90249   90258      48   90261   90270      48   90273
   90282      48   90285   90294      48   90297   90306      48   90309   90318
      48   90321   90330      48   90333   90342      48   90345   90354      48
   90357   90366      48   90369   90378      48   90381   90390      48   90393
   90402      48   90405   90414      48   90417   90426      48   90429   90438
      48   90441   90450      48   90453   90462      48   90465   90474      48
   90477   90486      48   90489   90498      48   90501   90510      48   90513
   90522      48   90525   90534      48   90537   90546      48   90549   90558
      48   90561   90570      48   90573   90582      48   90585   90594      48
   90597   90606      48   90609   90618      48   90621   90630      48   90633
   90642      48   90645   90654      48   90657   90666      48   90669   90678
      48   90681   90690      48   90693   90702      48   90705   90714      48
   90717   90726      48   90729   90738      48   90741   90750      48   90753
   90762      48   90765   90774      48   90777   90786      48   90789   90798
      48   90801   90810      48   90813   90822      48   90825   90834      48
   90837   90846      48   90849   90858      48   90861   90870      48   90873
   90882      48   90885   90894      48   90897   90906      48   90909   90918
      48   90921   90930      48   90933   90942      48   90945   90954      48
   90957   90966      48   90969   90978      48   90981   90990      48   90993
   91002      48   91005   91014      48   91017   91026      48   91029   91038
      48   91041   91050      48   91053   91062      48   91065   91074      48
   91077   91086      48   91089   91098      48   91101   91110      48   91113
   91122      48   91125   91134      48   91137   91146      48   91149   91158
      48   91161   91170      48   91173   91182      48   91185   91194      48
   91197   91206      48   91209   91218      48   91221   91230      48   91233
   91242      48   91245   91254      48   91257   91266      48   91269   91278
      48   91281   91290      48   91293   91302      48   91305   91314      48
   91317   91326      48   91329   91338      48   91341   91350      48   91353
   91362      48   91365   91374      48   91377   91386      48   91389   91398
      48   91401   91410      48   91413   91422      48   91425   91434      48
   91437   91446      48   91449   91458      48   91461   91470      48   91473
   91482      48   91485   91494      48   91497   91506      48   91509   91518
      48   91521   91530      48   91533   91542      48   91545   91554      48
   91557   91566      48   91569   91578      48   91581   91590      48   91593
   91602      48   91605   91614      48   91617   91626      48   91629   91638
      48   91641   91650      48   91653   91662      48   91665   91674      48
   91677   91686      48   91689   91698      48   91701   91710      48   91713
   91722      48   91725   91734      48   91737   91746      48   91749   91758
      48   91761   91770      48   91773   91782      48   91785   91794      48
   91797   91806      48   91809   91818      48   91821   91830      48   91833
   91842      48   91845   91854      48   91857   91866      48   91869   91878
      48   91881   91890      48   91893   91902      48   91905   91914      48
   91917   91926      48   91929   91938      48   91941   91950      48   91953
   91962      48   91965   91974      48   91977   91986      48   91989   91998
      48   92001   92010      48   92013   92022      48   92025   92034      48
   92037   92046      48   92049   92058      48   92061   92070      48   92073
   92082      48   92085   92094      48   92097   92106      48   92109   92118
      48   92121   92130      48   92133   92142      48   92145   92154      48
   92157   92166      48   92169   92178      48   92181   92190      48   92193
   92202      48   92205   92214      48   92217   92226      48   92229   92238
      48   92241   92250      48   92253   92262      48   92265   92274      48
   92277   92286      48   92289   92298      48   92301   92310      48   92313
   92322      48   92325   92334      48   92337   92346      48   92349   92358
      48   92361   92370      48   92373   92382      48   92385   92394      48
   92397   92406      48   92409   92418      48   92421   92430      48   92433
   92442      48   92445   92454      48   92457   92466      48   92469   92478
      48   92481   92490      48   92493   92502      48   92505   92514      48
   92517   92526      48   92529   92538      48   92541   92550      48   92553
   92562      48   92565   92574      48   92577   92586      48   92589   92598
      48   92601   92610      48   92613   92622      48   92625   92634      48
   92637   92646      48   92649   92658      48   92661   92670      48   92673
   92682      48   92685   92694      48   92697   92706      48   92709   92718
      48   92721   92730      48   92733   92742      48   92745   92754      48
   92757   92766      48   92769   92778      48   92781   92790      48   92793
   92802      48   92805   92814      48   92817   92826      48   92829   92838
      48   92841   92850      48   92853   92862      48   92865   92874      48
   92877   92886      48   92889   92898      48   92901   92910      48   92913
   92922      48   92925   92934      48   92937   92946      48   92949   92958
      48   92961   92970      48   92973   92982      48   92985   92994      48
   92997   93006      48   93009   93018      48   93021   93030      48   93033
   93042      48   93045   93054      48   93057   93066      48   93069   93078
      48   93081   93090      48   93093   93102      48   93105   93114      48
   93117   93126      48   93129   93138      48   93141   93150      48   93153
   93162      48   93165   93174      48   93177   93186      48   93189   93198
      48   93201   93210      48   93213   93222      48   93225   93234      48
   93237   93246      48   93249   93258      48   93261   93270      48   93273
   93282      48   93285   93294      48   93297   93306      48   93309   93318
      48   93321   93330      48   93333   93342      48   93345   93354      48
   93357   93366      48   93369   93378      48   93381   93390      48   93393
   93402      48   93405   93414      48   93417   93426      48   93429   93438
      48   93441   93450      48   93453   93462      48   93465   93474      48
   93477   93486      48   93489   93498      48   93501   93510      48   93513
   93522      48   93525   93534      48   93537   93546      48   93549   93558
      48   93561   93570      48   93573   93582      48   93585   93594      48
   93597   93606      48   93609   93618      48   93621   93630      48   93633
   93642      48   93645   93654      48   93657   93666      48   93669   93678
      48   93681   93690      48   93693   93702      48   93705   93714      48
   93717   93726      48   93729   93738      48   93741   93750      48   93753
   93762      48   93765   93774      48   93777   93786      48   93789   93798
      48   93801   93810      48   93813   93822      48   93825   93834      48
   93837   93846      48   93849   93858      48   93861   93870      48   93873
   93882      48   93885   93894      48   93897   93906      48   93909   93918
      48   93921   93930      48   93933   93942      48   93945   93954      48
   93957   93966      48   93969   93978      48   93981   93990      48   93993
   94002      48   94005   94014      48   94017   94026      48   94029   94038
      48   94041   94050      48   94053   94062      48   94065   94074      48
   94077   94086      48   94089   94098      48   94101   94110      48   94113
   94122      48   94125   94134      48   94137   94146      48   94149   94158
      48   94161   94170      48   94173   94182      48   94185   94194      48
   94197   94206      48   94209   94218      48   94221   94230      48   94233
   94242      48   94245   94254      48   94257   94266      48   94269   94278
      48   94281   94290      48   94293   94302      48   94305   94314      48
   94317   94326      48   94329   94338      48   94341   94350      48   94353
   94362      48   94365   94374      48   94377   94386      48   94389   94398
      48   94401   94410      48   94413   94422      48   94425   94434      48
   94437   94446      48   94449   94458      48   94461   94470      48   94473
   94482      48   94485   94494      48   94497   94506      48   94509   94518
      48   94521   94530      48   94533   94542      48   94545   94554      48
   94557   94566      48   94569   94578      48   94581   94590      48   94593
   94602      48   94605   94614      48   94617   94626      48   94629   94638
      48   94641   94650      48   94653   94662      48   94665   94674      48
   94677   94686      48   94689   94698      48   94701   94710      48   94713
   94722      48   94725   94734      48   94737   94746      48   94749   94758
      48   94761   94770      48   94773   94782      48   94785   94794      48
   94797   94806      48   94809   94818      48   94821   94830      48   94833
   94842      48   94845   94854      48   94857   94866      48   94869   94878
      48   94881   94890      48   94893   94902      48   94905   94914      48
   94917   94926      48   94929   94938      48   94941   94950      48   94953
   94962      48   94965   94974      48   94977   94986      48   94989   94998
      48   95001   95010      48   95013   95022      48   95025   95034      48
   95037   95046      48   95049   95058      48   95061   95070      48   95073
   95082      48   95085   95094      48   95097   95106      48   95109   95118
      48   95121   95130      48   95133   95142      48   95145   95154      48
   95157   95166      48   95169   95178      48   95181   95190      48   95193
   95202      48   95205   95214      48   95217   95226      48   95229   95238
      48   95241   95250      48   95253   95262      48   95265   95274      48
   95277   95286      48   95289   95298      48   95301   95310      48   95313
   95322      48   95325   95334      48   95337   95346      48   95349   95358
      48   95361   95370      48   95373   95382      48   95385   95394      48
   95397   95406      48   95409   95418      48   95421   95430      48   95433
   95442      48   95445   95454      48   95457   95466      48   95469   95478
      48   95481   95490      48   95493   95502      48   95505   95514      48
   95517   95526      48   95529   95538      48   95541   95550      48   95553
   95562      48   95565   95574      48   95577   95586      48   95589   95598
      48   95601   95610      48   95613   95622      48   95625   95634      48
   95637   95646      48   95649   95658      48   95661   95670      48   95673
   95682      48   95685   95694      48   95697   95706      48   95709   95718
      48   95721   95730      48   95733   95742      48   95745   95754      48
   95757   95766      48   95769   95778      48   95781   95790      48   95793
   95802      48   95805   95814      48   95817   95826      48   95829   95838
      48   95841   95850      48   95853   95862      48   95865   95874      48
   95877   95886      48   95889   95898      48   95901   95910      48   95913
   95922      48   95925   95934      48   95937   95946      48   95949   95958
      48   95961   95970      48   95973   95982      48   95985   95994      48
   95997   96006      48   96009   96018      48   96021   96030      48   96033
   96042      48   96045   96054      48   96057   96066      48   96069   96078
      48   96081   96090      48   96093   96102      48   96105   96114      48
   96117   96126      48   96129   96138      48   96141   96150      48   96153
   96162      48   96165   96174      48   96177   96186      48   96189   96198
      48   96201   96210      48   96213   96222      48   96225   96234      48
   96237   96246      48   96249   96258      48   96261   96270      48   96273
   96282      48   96285   96294      48   96297   96306      48   96309   96318
      48   96321   96330      48   96333   96342      48   96345   96354      48
   96357   96366      48   96369   96378      48   96381   96390      48   96393
   96402      48   96405   96414      48   96417   96426      48   96429   96438
      48   96441   96450      48   96453   96462      48   96465   96474      48
   96477   96486      48   96489   96498      48   96501   96510      48   96513
   96522      48   96525   96534      48   96537   96546      48   96549   96558
      48   96561   96570      48   96573   96582      48   96585   96594      48
   96597   96606      48   96609   96618      48   96621   96630      48   96633
   96642      48   96645   96654      48   96657   96666      48   96669   96678
      48   96681   96690      48   96693   96702      48   96705   96714      48
   96717   96726      48   96729   96738      48   96741   96750      48   96753
   96762      48   96765   96774      48   96777   96786      48   96789   96798
      48   96801   96810      48   96813   96822      48   96825   96834      48
   96837   96846      48   96849   96858      48   96861   96870      48   96873
   96882      48   96885   96894      48   96897   96906      48   96909   96918
      48   96921   96930      48   96933   96942      48   96945   96954      48
   96957   96966      48   96969   96978      48   96981   96990      48   96993
   97002      48   97005   97014      48   97017   97026      48   97029   97038
      48   97041   97050      48   97053   97062      48   97065   97074      48
   97077   97086      48   97089   97098      48   97101   97110      48   97113
   97122      48   97125   97134      48   97137   97146      48   97149   97158
      48   97161   97170      48   97173   97182      48   97185   97194      48
   97197   97206      48   97209   97218      48   97221   97230      48   97233
   97242      48   97245   97254      48   97257   97266      48   97269   97278
      48   97281   97290      48   97293   97302      48   97305   97314      48
   97317   97326      48   97329   97338      48   97341   97350      48   97353
   97362      48   97365   97374      48   97377   97386      48   97389   97398
      48   97401   97410      48   97413   97422      48   97425   97434      48
   97437   97446      48   97449   97458      48   97461   97470      48   97473
   97482      48   97485   97494      48   97497   97506      48   97509   97518
      48   97521   97530      48   97533   97542      48   97545   97554      48
   97557   97566      48   97569   97578      48   97581   97590      48   97593
   97602      48   97605   97614      48   97617   97626      48   97629   97638
      48   97641   97650      48   97653   97662      48   97665   97674      48
   97677   97686      48   97689   97698      48   97701   97710      48   97713
   97722      48   97725   97734      48   97737   97746      48   97749   97758
      48   97761   97770      48   97773   97782      48   97785   97794      48
   97797   97806      48   97809   97818      48   97821   97830      48   97833
   97842      48   97845   97854      48   97857   97866      48   97869   97878
      48   97881   97890      48   97893   97902      48   97905   97914      48
   97917   97926      48   97929   97938      48   97941   97950      48   97953
   97962      48   97965   97974      48   97977   97986      48   97989   97998
      48   98001   98010      48   98013   98022      48   98025   98034      48
   98037   98046      48   98049   98058      48   98061   98070      48   98073
   98082      48   98085   98094      48   98097   98106      48   98109   98118
      48   98121   98130      48   98133   98142      48   98145   98154      48
   98157   98166      48   98169   98178      48   98181   98190      48   98193
   98202      48   98205   98214      48   98217   98226      48   98229   98238
      48   98241   98250      48   98253   98262      48   98265   98274      48
   98277   98286      48   98289   98298      48   98301   98310      48   98313
   98322      48   98325   98334      48   98337   98346      48   98349   98358
      48   98361   98370      48   98373   98382      48   98385   98394      48
   98397   98406      48   98409   98418      48   98421   98430      48   98433
   98442      48   98445   98454      48   98457   98466      48   98469   98478
      48   98481   98490      48   98493   98502      48   98505   98514      48
   98517   98526      48   98529   98538      48   98541   98550      48   98553
   98562      48   98565   98574      48   98577   98586      48   98589   98598
      48   98601   98610      48   98613   98622      48   98625   98634      48
   98637   98646      48   98649   98658      48   98661   98670      48   98673
   98682      48   98685   98694      48   98697   98706      48   98709   98718
      48   98721   98730      48   98733   98742      48   98745   98754      48
   98757   98766      48   98769   98778      48   98781   98790      48   98793
   98802      48   98805   98814      48   98817   98826      48   98829   98838
      48   98841   98850      48   98853   98862      48   98865   98874      48
   98877   98886      48   98889   98898      48   98901   98910      48   98913
   98922      48   98925   98934      48   98937   98946      48   98949   98958
      48   98961   98970      48   98973   98982      48   98985   98994      48
   98997   99006      48   99009   99018      48   99021   99030      48   99033
   99042      48   99045   99054      48   99057   99066      48   99069   99078
      48   99081   99090      48   99093   99102      48   99105   99114      48
   99117   99126      48   99129   99138      48   99141   99150      48   99153
   99162      48   99165   99174      48   99177   99186      48   99189   99198
      48   99201   99210      48   99213   99222      48   99225   99234      48
   99237   99246      48   99249   99258      48   99261   99270      48   99273
   99282      48   99285   99294      48   99297   99306      48   99309   99318
      48   99321   99330      48   99333   99342      48   99345   99354      48
   99357   99366      48   99369   99378      48   99381   99390      48   99393
   99402      48   99405   99414      48   99417   99426      48   99429   99438
      48   99441   99450      48   99453   99462      48   99465   99474      48
   99477   99486      48   99489   99498      48   99501   99510      48   99513
   99522      48   99525   99534      48   99537   99546      48   99549   99558
      48   99561   99570      48   99573   99582      48   99585   99594      48
   99597   99606      48   99609   99618      48   99621   99630      48   99633
   99642      48   99645   99654      48   99657   99666      48   99669   99678
      48   99681   99690      48   99693   99702      48   99705   99714      48
   99717   99726      48   99729   99738      48   99741   99750      48   99753
   99762      48   99765   99774      48   99777   99786      48   99789   99798
      48   99801   99810      48   99813   99822      48   99825   99834      48
   99837   99846      48   99849   99858      48   99861   99870      48   99873
   99882      48   99885   99894      48   99897   99906      48   99909   99918
      48   99921   99930      48   99933   99942      48   99945   99954      48
   99957   99966      48   99969   99978      48   99981   99990      48   99993
  100002      48  100005  100014      48  100017  100026      48  100029  100038
      48  100041  100050      48  100053  100062      48  100065  100074      48
  100077  100086      48  100089  100098      48  100101  100110      48  100113
  100122      48  100125  100134      48  100137  100146      48  100149  100158
      48  100161  100170      48  100173  100182      48  100185  100194      48
  100197  100206      48  100209  100218      48  100221  100230      48  100233
  100242      48  100245  100254      48  100257  100266      48  100269  100278
      48  100281  100290      48  100293  100302      48  100305  100314      48
  100317  100326      48  100329  100338      48  100341  100350      48  100353
  100362      48  100365  100374      48  100377  100386      48  100389  100398
      48  100401  100410      48  100413  100422      48  100425  100434      48
  100437  100446      48  100449  100458      48  100461  100470      48  100473
  100482      48  100485  100494      48  100497  100506      48  100509  100518
      48  100521  100530      48  100533  100542      48  100545  100554      48
  100557  100566      48  100569  100578      48  100581  100590      48  100593
  100602      48  100605  100614      48  100617  100626      48  100629  100638
      48  100641  100650      48  100653  100662      48  100665  100674      48
  100677  100686      48  100689  100698      48  100701  100710      48  100713
  100722      48  100725  100734      48  100737  100746      48  100749  100758
      48  100761  100770      48  100773  100782      48  100785  100794      48
  100797  100806      48  100809  100818      48  100821  100830      48  100833
  100842      48  100845  100854      48  100857  100866      48  100869  100878
      48  100881  100890      48  100893  100902      48  100905  100914      48
  100917  100926      48  100929  100938      48  100941  100950      48  100953
  100962      48  100965  100974      48  100977  100986      48  100989  100998
      48  101001  101010      48  101013  101022      48  101025  101034      48
  101037  101046      48  101049  101058      48  101061  101070      48  101073
  101082      48  101085  101094      48  101097  101106      48  101109  101118
      48  101121  101130      48  101133  101142      48  101145  101154      48
  101157  101166      48  101169  101178      48  101181  101190      48  101193
  101202      48  101205  101214      48  101217  101226      48  101229  101238
      48  101241  101250      48  101253  101262      48  101265  101274      48
  101277  101286      48  101289  101298      48  101301  101310      48  101313
  101322      48  101325  101334      48  101337  101346      48  101349  101358
      48  101361  101370      48  101373  101382      48  101385  101394      48
  101397  101406      48  101409  101418      48  101421  101430      48  101433
  101442      48  101445  101454      48  101457  101466      48  101469  101478
      48  101481  101490      48  101493  101502      48  101505  101514      48
  101517  101526      48  101529  101538      48  101541  101550      48  101553
  101562      48  101565  101574      48  101577  101586      48  101589  101598
      48  101601  101610      48  101613  101622      48  101625  101634      48
  101637  101646      48  101649  101658      48  101661  101670      48  101673
  101682      48  101685  101694      48  101697  101706      48  101709  101718
      48  101721  101730      48  101733  101742      48  101745  101754      48
  101757  101766      48  101769  101778      48  101781  101790      48  101793
  101802      48  101805  101814      48  101817  101826      48  101829  101838
      48  101841  101850      48  101853  101862      48  101865  101874      48
  101877  101886      48  101889  101898      48  101901  101910      48  101913
  101922      48  101925  101934      48  101937  101946      48  101949  101958
      48  101961  101970      48  101973  101982      48  101985  101994      48
  101997  102006      48  102009  102018      48  102021  102030      48  102033
  102042      48  102045  102054      48  102057  102066      48  102069  102078
      48  102081  102090      48  102093  102102      48  102105  102114      48
  102117  102126      48  102129  102138      48  102141  102150      48  102153
  102162      48  102165  102174      48  102177  102186      48  102189  102198
      48  102201  102210      48  102213  102222      48  102225  102234      48
  102237  102246      48  102249  102258      48  102261  102270      48  102273
  102282      48  102285  102294      48  102297  102306      48  102309  102318
      48  102321  102330      48  102333  102342      48  102345  102354      48
  102357  102366      48  102369  102378      48  102381  102390      48  102393
  102402      48  102405  102414      48  102417  102426      48  102429  102438
      48  102441  102450      48  102453  102462      48  102465  102474      48
  102477  102486      48  102489  102498      48  102501  102510      48  102513
  102522      48  102525  102534      48  102537  102546      48  102549  102558
      48  102561  102570      48  102573  102582      48  102585  102594      48
  102597  102606      48  102609  102618      48  102621  102630      48  102633
  102642      48  102645  102654      48  102657  102666      48  102669  102678
      48  102681  102690      48  102693  102702      48  102705  102714      48
  102717  102726      48  102729  102738      48  102741  102750      48  102753
  102762      48  102765  102774      48  102777  102786      48  102789  102798
      48  102801  102810      48  102813  102822      48  102825  102834      48
  102837  102846      48  102849  102858      48  102861  102870      48  102873
  102882      48  102885  102894      48  102897  102906      48  102909  102918
      48  102921  102930      48  102933  102942      48  102945  102954      48
  102957  102966      48  102969  102978      48  102981  102990      48  102993
  103002      48  103005  103014      48  103017  103026      48  103029  103038
      48  103041  103050      48  103053  103062      48  103065  103074      48
  103077  103086      48  103089  103098      48  103101  103110      48  103113
  103122      48  103125  103134      48  103137  103146      48  103149  103158
      48  103161  103170      48  103173  103182      48  103185  103194      48
  103197  103206      48  103209  103218      48  103221  103230      48  103233
  103242      48  103245  103254      48  103257  103266      48  103269  103278
      48  103281  103290      48  103293  103302      48  103305  103314      48
  103317  103326      48  103329  103338      48  103341  103350      48  103353
  103362      48  103365  103374      48  103377  103386      48  103389  103398
      48  103401  103410      48  103413  103422      48  103425  103434      48
  103437  103446      48  103449  103458      48  103461  103470      48  103473
  103482      48  103485  103494      48  103497  103506      48  103509  103518
      48  103521  103530      48  103533  103542      48  103545  103554      48
  103557  103566      48  103569  103578      48  103581  103590      48  103593
  103602      48  103605  103614      48  103617  103626      48  103629  103638
      48  103641  103650      48  103653  103662      48  103665  103674      48
  103677  103686      48  103689  103698      48  103701  103710      48  103713
  103722      48  103725  103734      48  103737  103746      48  103749  103758
      48  103761  103770      48  103773  103782      48  103785  103794      48
  103797  103806      48  103809  103818      48  103821  103830      48  103833
  103842      48  103845  103854      48  103857  103866      48  103869  103878
      48  103881  103890      48  103893  103902      48  103905  103914      48
  103917  103926      48  103929  103938      48  103941  103950      48  103953
  103962      48  103965  103974      48  103977  103986      48  103989  103998
      48  104001  104010      48  104013  104022      48  104025  104034      48
  104037  104046      48  104049  104058      48  104061  104070      48  104073
  104082      48  104085  104094      48  104097  104106      48  104109  104118
      48  104121  104130      48  104133  104142      48  104145  104154      48
  104157  104166      48  104169  104178      48  104181  104190      48  104193
  104202      48  104205  104214      48  104217  104226      48  104229  104238
      48  104241  104250      48  104253  104262      48  104265  104274      48
  104277  104286      48  104289  104298      48  104301  104310      48  104313
  104322      48  104325  104334      48  104337  104346      48  104349  104358
      48  104361  104370      48  104373  104382      48  104385  104394      48
  104397  104406      48  104409  104418      48  104421  104430      48  104433
  104442      48  104445  104454      48  104457  104466      48  104469  104478
      48  104481  104490      48  104493  104502      48  104505  104514      48
  104517  104526      48  104529  104538      48  104541  104550      48  104553
  104562      48  104565  104574      48  104577  104586      48  104589  104598
      48  104601  104610      48  104613  104622      48  104625  104634      48
  104637  104646      48  104649  104658      48  104661  104670      48  104673
  104682      48  104685  104694      48  104697  104706      48  104709  104718
      48  104721  104730      48  104733  104742      48  104745  104754      48
  104757  104766      48  104769  104778      48  104781  104790      48  104793
  104802      48  104805  104814      48  104817  104826      48  104829  104838
      48  104841  104850      48  104853  104862      48  104865  104874      48
  104877  104886      48  104889  104898      48  104901  104910      48  104913
  104922      48  104925  104934      48  104937  104946      48  104949  104958
      48  104961  104970      48  104973  104982      48  104985  104994      48
  104997  105006      48  105009  105018      48  105021  105030      48  105033
  105042      48  105045  105054      48  105057  105066      48  105069  105078
      48  105081  105090      48  105093  105102      48  105105  105114      48
  105117  105126      48  105129  105138      48  105141  105150      48  105153
  105162      48  105165  105174      48  105177  105186      48  105189  105198
      48  105201  105210      48  105213  105222      48  105225  105234      48
  105237  105246      48  105249  105258      48  105261  105270      48  105273
  105282      48  105285  105294      48  105297  105306      48  105309  105318
      48  105321  105330      48  105333  105342      48  105345  105354      48
  105357  105366      48  105369  105378      48  105381  105390      48  105393
  105402      48  105405  105414      48  105417  105426      48  105429  105438
      48  105441  105450      48  105453  105462      48  105465  105474      48
  105477  105486      48  105489  105498      48  105501  105510      48  105513
  105522      48  105525  105534      48  105537  105546      48  105549  105558
      48  105561  105570      48  105573  105582      48  105585  105594      48
  105597  105606      48  105609  105618      48  105621  105630      48  105633
  105642      48  105645  105654      48  105657  105666      48  105669  105678
      48  105681  105690      48  105693  105702      48  105705  105714      48
  105717  105726      48  105729  105738      48  105741  105750      48  105753
  105762      48  105765  105774      48  105777  105786      48  105789  105798
      48  105801  105810      48  105813  105822      48  105825  105834      48
  105837  105846      48  105849  105858      48  105861  105870      48  105873
  105882      48  105885  105894      48  105897  105906      48  105909  105918
      48  105921  105930      48  105933  105942      48  105945  105954      48
  105957  105966      48  105969  105978      48  105981  105990      48  105993
  106002      48  106005  106014      48  106017  106026      48  106029  106038
      48  106041  106050      48  106053  106062      48  106065  106074      48
  106077  106086      48  106089  106098      48  106101  106110      48  106113
  106122      48  106125  106134      48  106137  106146      48  106149  106158
      48  106161  106170      48  106173  106182      48  106185  106194      48
  106197  106206      48  106209  106218      48  106221  106230      48  106233
  106242      48  106245  106254      48  106257  106266      48  106269  106278
      48  106281  106290      48  106293  106302      48  106305  106314      48
  106317  106326      48  106329  106338      48  106341  106350      48  106353
  106362      48  106365  106374      48  106377  106386      48  106389  106398
      48  106401  106410      48  106413  106422      48  106425  106434      48
  106437  106446      48  106449  106458      48  106461  106470      48  106473
  106482      48  106485  106494      48  106497  106506      48  106509  106518
      48  106521  106530      48  106533  106542      48  106545  106554      48
  106557  106566      48  106569  106578      48  106581  106590      48  106593
  106602      48  106605  106614      48  106617  106626      48  106629  106638
      48  106641  106650      48  106653  106662      48  106665  106674      48
  106677  106686      48  106689  106698      48  106701  106710      48  106713
  106722      48  106725  106734      48  106737  106746      48  106749  106758
      48  106761  106770      48  106773  106782      48  106785  106794      48
  106797  106806      48  106809  106818      48  106821  106830      48  106833
  106842      48  106845  106854      48  106857  106866      48  106869  106878
      48  106881  106890      48  106893  106902      48  106905  106914      48
  106917  106926      48  106929  106938      48  106941  106950      48  106953
  106962      48  106965  106974      48  106977  106986      48  106989  106998
      48  107001  107010      48  107013  107022      48  107025  107034      48
  107037  107046      48  107049  107058      48  107061  107070      48  107073
  107082      48  107085  107094      48  107097  107106      48  107109  107118
      48  107121  107130      48  107133  107142      48  107145  107154      48
  107157  107166      48  107169  107178      48  107181  107190      48  107193
  107202      48  107205  107214      48  107217  107226      48  107229  107238
      48  107241  107250      48  107253  107262      48  107265  107274      48
  107277  107286      48  107289  107298      48  107301  107310      48  107313
  107322      48  107325  107334      48  107337  107346      48  107349  107358
      48  107361  107370      48  107373  107382      48  107385  107394      48
  107397  107406      48  107409  107418      48  107421  107430      48  107433
  107442      48  107445  107454      48  107457  107466      48  107469  107478
      48  107481  107490      48  107493  107502      48  107505  107514      48
  107517  107526      48  107529  107538      48  107541  107550      48  107553
  107562      48  107565  107574      48  107577  107586      48  107589  107598
      48  107601  107610      48  107613  107622      48  107625  107634      48
  107637  107646      48  107649  107658      48  107661  107670      48  107673
  107682      48  107685  107694      48  107697  107706      48  107709  107718
      48  107721  107730      48  107733  107742      48  107745  107754      48
  107757  107766      48  107769  107778      48  107781  107790      48  107793
  107802      48  107805  107814      48  107817  107826      48  107829  107838
      48  107841  107850      48  107853  107862      48  107865  107874      48
  107877  107886      48  107889  107898      48  107901  107910      48  107913
  107922      48  107925  107934      48  107937  107946      48  107949  107958
      48  107961  107970      48  107973  107982      48  107985  107994      48
  107997  108006      48  108009  108018      48  108021  108030      48  108033
  108042      48  108045  108054      48  108057  108066      48  108069  108078
      48  108081  108090      48  108093  108102      48  108105  108114      48
  108117  108126      48  108129  108138      48  108141  108150      48  108153
  108162      48  108165  108174      48  108177  108186      48  108189  108198
      48  108201  108210      48  108213  108222      48  108225  108234      48
  108237  108246      48  108249  108258      48  108261  108270      48  108273
  108282      48  108285  108294      48  108297  108306      48  108309  108318
      48  108321  108330      48  108333  108342      48  108345  108354      48
  108357  108366      48  108369  108378      48  108381  108390      48  108393
  108402      48  108405  108414      48  108417  108426      48  108429  108438
      48  108441  108450      48  108453  108462      48  108465  108474      48
  108477  108486      48  108489  108498      48  108501  108510      48  108513
  108522      48  108525  108534      48  108537  108546      48  108549  108558
      48  108561  108570      48  108573  108582      48  108585  108594      48
  108597  108606      48  108609  108618      48  108621  108630      48  108633
  108642      48  108645  108654      48  108657  108666      48  108669  108678
      48  108681  108690      48  108693  108702      48  108705  108714      48
  108717  108726      48  108729  108738      48  108741  108750      48  108753
  108762      48  108765  108774      48  108777  108786      48  108789  108798
      48  108801  108810      48  108813  108822      48  108825  108834      48
  108837  108846      48  108849  108858      48  108861  108870      48  108873
  108882      48  108885  108894      48  108897  108906      48  108909  108918
      48  108921  108930      48  108933  108942      48  108945  108954      48
  108957  108966      48  108969  108978      48  108981  108990      48  108993
  109002      48  109005  109014      48  109017  109026      48  109029  109038
      48  109041  109050      48  109053  109062      48  109065  109074      48
  109077  109086      48  109089  109098      48  109101  109110      48  109113
  109122      48  109125  109134      48  109137  109146      48  109149  109158
      48  109161  109170      48  109173  109182      48  109185  109194      48
  109197  109206      48  109209  109218      48  109221  109230      48  109233
  109242      48  109245  109254      48  109257  109266      48  109269  109278
      48  109281  109290      48  109293  109302      48  109305  109314      48
  109317  109326      48  109329  109338      48  109341  109350      48  109353
  109362      48  109365  109374      48  109377  109386      48  109389  109398
      48  109401  109410      48  109413  109422      48  109425  109434      48
  109437  109446      48  109449  109458      48  109461  109470      48  109473
  109482      48  109485  109494      48  109497  109506      48  109509  109518
      48  109521  109530      48  109533  109542      48  109545  109554      48
  109557  109566      48  109569  109578      48  109581  109590      48  109593
  109602      48  109605  109614      48  109617  109626      48  109629  109638
      48  109641  109650      48  109653  109662      48  109665  109674      48
  109677  109686      48  109689  109698      48  109701  109710      48  109713
  109722      48  109725  109734      48  109737  109746      48  109749  109758
      48  109761  109770      48  109773  109782      48  109785  109794      48
  109797  109806      48  109809  109818      48  109821  109830      48  109833
  109842      48  109845  109854      48  109857  109866      48  109869  109878
      48  109881  109890      48  109893  109902      48  109905  109914      48
  109917  109926      48  109929  109938      48  109941  109950      48  109953
  109962      48  109965  109974      48  109977  109986      48  109989  109998
      48  110001  110010      48  110013  110022      48  110025  110034      48
  110037  110046      48  110049  110058      48  110061  110070      48  110073
  110082      48  110085  110094      48  110097  110106      48  110109  110118
      48  110121  110130      48  110133  110142      48  110145  110154      48
  110157  110166      48  110169  110178      48  110181  110190      48  110193
  110202      48  110205  110214      48  110217  110226      48  110229  110238
      48  110241  110250      48  110253  110262      48  110265  110274      48
  110277  110286      48  110289  110298      48  110301  110310      48  110313
  110322      48  110325  110334      48  110337  110346      48  110349  110358
      48  110361  110370      48  110373  110382      48  110385  110394      48
  110397  110406      48  110409  110418      48  110421  110430      48  110433
  110442      48  110445  110454      48  110457  110466      48  110469  110478
      48  110481  110490      48  110493  110502      48  110505  110514      48
  110517  110526      48  110529  110538      48  110541  110550      48  110553
  110562      48  110565  110574      48  110577  110586      48  110589  110598
      48  110601  110610      48  110613  110622      48  110625  110634      48
  110637  110646      48  110649  110658      48  110661  110670      48  110673
  110682      48  110685  110694      48  110697  110706      48  110709  110718
      48  110721  110730      48  110733  110742      48  110745  110754      48
  110757  110766      48  110769  110778      48  110781  110790      48  110793
  110802      48  110805  110814      48  110817  110826      48  110829  110838
      48  110841  110850      48  110853  110862      48  110865  110874      48
  110877  110886      48  110889  110898      48  110901  110910      48  110913
  110922      48  110925  110934      48  110937  110946      48  110949  110958
      48  110961  110970      48  110973  110982      48  110985  110994      48
  110997  111006      48  111009  111018      48  111021  111030      48  111033
  111042      48  111045  111054      48  111057  111066      48  111069  111078
      48  111081  111090      48  111093  111102      48  111105  111114      48
  111117  111126      48  111129  111138      48  111141  111150      48  111153
  111162      48  111165  111174      48  111177  111186      48  111189  111198
      48  111201  111210      48  111213  111222      48  111225  111234      48
  111237  111246      48  111249  111258      48  111261  111270      48  111273
  111282      48  111285  111294      48  111297  111306      48  111309  111318
      48  111321  111330      48  111333  111342      48  111345  111354      48
  111357  111366      48  111369  111378      48  111381  111390      48  111393
  111402      48  111405  111414      48  111417  111426      48  111429  111438
      48  111441  111450      48  111453  111462      48  111465  111474      48
  111477  111486      48  111489  111498      48  111501  111510      48  111513
  111522      48  111525  111534      48  111537  111546      48  111549  111558
      48  111561  111570      48  111573  111582      48  111585  111594      48
  111597  111606      48  111609  111618      48  111621  111630      48  111633
  111642      48  111645  111654      48  111657  111666      48  111669  111678
      48  111681  111690      48  111693  111702      48  111705  111714      48
  111717  111726      48  111729  111738      48  111741  111750      48  111753
  111762      48  111765  111774      48  111777  111786      48  111789  111798
      48  111801  111810      48  111813  111822      48  111825  111834      48
  111837  111846      48  111849  111858      48  111861  111870      48  111873
  111882      48  111885  111894      48  111897  111906      48  111909  111918
      48  111921  111930      48  111933  111942      48  111945  111954      48
  111957  111966      48  111969  111978      48  111981  111990      48  111993
  112002      48  112005  112014      48  112017  112026      48  112029  112038
      48  112041  112050      48  112053  112062      48  112065  112074      48
  112077  112086      48  112089  112098      48  112101  112110      48  112113
  112122      48  112125  112134      48  112137  112146      48  112149  112158
      48  112161  112170      48  112173  112182      48  112185  112194      48
  112197  112206      48  112209  112218      48  112221  112230      48  112233
  112242      48  112245  112254      48  112257  112266      48  112269  112278
      48  112281  112290      48  112293  112302      48  112305  112314      48
  112317  112326      48  112329  112338      48  112341  112350      48  112353
  112362      48  112365  112374      48  112377  112386      48  112389  112398
      48  112401  112410      48  112413  112422      48  112425  112434      48
  112437  112446      48  112449  112458      48  112461  112470      48  112473
  112482      48  112485  112494      48  112497  112506      48  112509  112518
      48  112521  112530      48  112533  112542      48  112545  112554      48
  112557  112566      48  112569  112578      48  112581  112590      48  112593
  112602      48  112605  112614      48  112617  112626      48  112629  112638
      48  112641  112650      48  112653  112662      48  112665  112674      48
  112677  112686      48  112689  112698      48  112701  112710      48  112713
  112722      48  112725  112734      48  112737  112746      48  112749  112758
      48  112761  112770      48  112773  112782      48  112785  112794      48
  112797  112806      48  112809  112818      48  112821  112830      48  112833
  112842      48  112845  112854      48  112857  112866      48  112869  112878
      48  112881  112890      48  112893  112902      48  112905  112914      48
  112917  112926      48  112929  112938      48  112941  112950      48  112953
  112962      48  112965  112974      48  112977  112986      48  112989  112998
      48  113001  113010      48  113013  113022      48  113025  113034      48
  113037  113046      48  113049  113058      48  113061  113070      48  113073
  113082      48  113085  113094      48  113097  113106      48  113109  113118
      48  113121  113130      48  113133  113142      48  113145  113154      48
  113157  113166      48  113169  113178      48  113181  113190      48  113193
  113202      48  113205  113214      48  113217  113226      48  113229  113238
      48  113241  113250      48  113253  113262      48  113265  113274      48
  113277  113286      48  113289  113298      48  113301  113310      48  113313
  113322      48  113325  113334      48  113337  113346      48  113349  113358
      48  113361  113370      48  113373  113382      48  113385  113394      48
  113397  113406      48  113409  113418      48  113421  113430      48  113433
  113442      48  113445  113454      48  113457  113466      48  113469  113478
      48  113481  113490      48  113493  113502      48  113505  113514      48
  113517  113526      48  113529  113538      48  113541  113550      48  113553
  113562      48  113565  113574      48  113577  113586      48  113589  113598
      48  113601  113610      48  113613  113622      48  113625  113634      48
  113637  113646      48  113649  113658      48  113661  113670      48  113673
  113682      48  113685  113694      48  113697  113706      48  113709  113718
      48  113721  113730      48  113733  113742      48  113745  113754      48
  113757  113766      48  113769  113778      48  113781  113790      48  113793
  113802      48  113805  113814      48  113817  113826      48  113829  113838
      48  113841  113850      48  113853  113862      48  113865  113874      48
  113877  113886      48  113889  113898      48  113901  113910      48  113913
  113922      48  113925  113934      48  113937  113946      48  113949  113958
      48  113961  113970      48  113973  113982      48  113985  113994      48
  113997  114006      48  114009  114018      48  114021  114030      48  114033
  114042      48  114045  114054      48  114057  114066      48  114069  114078
      48  114081  114090      48  114093  114102      48  114105  114114      48
  114117  114126      48  114129  114138      48  114141  114150      48  114153
  114162      48  114165  114174      48  114177  114186      48  114189  114198
      48  114201  114210      48  114213  114222      48  114225  114234      48
  114237  114246      48  114249  114258      48  114261  114270      48  114273
  114282      48  114285  114294      48  114297  114306      48  114309  114318
      48  114321  114330      48  114333  114342      48  114345  114354      48
  114357  114366      48  114369  114378      48  114381  114390      48  114393
  114402      48  114405  114414      48  114417  114426      48  114429  114438
      48  114441  114450      48  114453  114462      48  114465  114474      48
  114477  114486      48  114489  114498      48  114501  114510      48  114513
  114522      48  114525  114534      48  114537  114546      48  114549  114558
      48  114561  114570      48  114573  114582      48  114585  114594      48
  114597  114606      48  114609  114618      48  114621  114630      48  114633
  114642      48  114645  114654      48  114657  114666      48  114669  114678
      48  114681  114690      48  114693  114702      48  114705  114714      48
  114717  114726      48  114729  114738      48  114741  114750      48  114753
  114762      48  114765  114774      48  114777  114786      48  114789  114798
      48  114801  114810      48  114813  114822      48  114825  114834      48
  114837  114846      48  114849  114858      48  114861  114870      48  114873
  114882      48  114885  114894      48  114897  114906      48  114909  114918
      48  114921  114930      48  114933  114942      48  114945  114954      48
  114957  114966      48  114969  114978      48  114981  114990      48  114993
  115002      48  115005  115014      48  115017  115026      48  115029  115038
      48  115041  115050      48  115053  115062      48  115065  115074      48
  115077  115086      48  115089  115098      48  115101  115110      48  115113
  115122      48  115125  115134      48  115137  115146      48  115149  115158
      48  115161  115170      48  115173  115182      48  115185  115194      48
  115197  115206      48  115209  115218      48  115221  115230      48  115233
  115242      48  115245  115254      48  115257  115266      48  115269  115278
      48  115281  115290      48  115293  115302      48  115305  115314      48
  115317  115326      48  115329  115338      48  115341  115350      48  115353
  115362      48  115365  115374      48  115377  115386      48  115389  115398
      48  115401  115410      48  115413  115422      48  115425  115434      48
  115437  115446      48  115449  115458      48  115461  115470      48  115473
  115482      48  115485  115494      48  115497  115506      48  115509  115518
      48  115521  115530      48  115533  115542      48  115545  115554      48
  115557  115566      48  115569  115578      48  115581  115590      48  115593
  115602      48  115605  115614      48  115617  115626      48  115629  115638
      48  115641  115650      48  115653  115662      48  115665  115674      48
  115677  115686      48  115689  115698      48  115701  115710      48  115713
  115722      48  115725  115734      48  115737  115746      48  115749  115758
      48  115761  115770      48  115773  115782      48  115785  115794      48
  115797  115806      48  115809  115818      48  115821  115830      48  115833
  115842      48  115845  115854      48  115857  115866      48  115869  115878
      48  115881  115890      48  115893  115902      48  115905  115914      48
  115917  115926      48  115929  115938      48  115941  115950      48  115953
  115962      48  115965  115974      48  115977  115986      48  115989  115998
      48  116001  116010      48  116013  116022      48  116025  116034      48
  116037  116046      48  116049  116058      48  116061  116070      48  116073
  116082      48  116085  116094      48  116097  116106      48  116109  116118
      48  116121  116130      48  116133  116142      48  116145  116154      48
  116157  116166      48  116169  116178      48  116181  116190      48  116193
  116202      48  116205  116214      48  116217  116226      48  116229  116238
      48  116241  116250      48  116253  116262      48  116265  116274      48
  116277  116286      48  116289  116298      48  116301  116310      48  116313
  116322      48  116325  116334      48  116337  116346      48  116349  116358
      48  116361  116370      48  116373  116382      48  116385  116394      48
  116397  116406      48  116409  116418      48  116421  116430      48  116433
  116442      48  116445  116454      48  116457  116466      48  116469  116478
      48  116481  116490      48  116493  116502      48  116505  116514      48
  116517  116526      48  116529  116538      48  116541  116550      48  116553
  116562      48  116565  116574      48  116577  116586      48  116589  116598
      48  116601  116610      48  116613  116622      48  116625  116634      48
  116637  116646      48  116649  116658      48  116661  116670      48  116673
  116682      48  116685  116694      48  116697  116706      48  116709  116718
      48  116721  116730      48  116733  116742      48  116745  116754      48
  116757  116766      48  116769  116778      48  116781  116790      48  116793
  116802      48  116805  116814      48  116817  116826      48  116829  116838
      48  116841  116850      48  116853  116862      48  116865  116874      48
  116877  116886      48  116889  116898      48  116901  116910      48  116913
  116922      48  116925  116934      48  116937  116946      48  116949  116958
      48  116961  116970      48  116973  116982      48  116985  116994      48
  116997  117006      48  117009  117018      48  117021  117030      48  117033
  117042      48  117045  117054      48  117057  117066      48  117069  117078
      48  117081  117090      48  117093  117102      48  117105  117114      48
  117117  117126      48  117129  117138      48  117141  117150      48  117153
  117162      48  117165  117174      48  117177  117186      48  117189  117198
      48  117201  117210      48  117213  117222      48  117225  117234      48
  117237  117246      48  117249  117258      48  117261  117270      48  117273
  117282      48  117285  117294      48  117297  117306      48  117309  117318
      48  117321  117330      48  117333  117342      48  117345  117354      48
  117357  117366      48  117369  117378      48  117381  117390      48  117393
  117402      48  117405  117414      48  117417  117426      48  117429  117438
      48  117441  117450      48  117453  117462      48  117465  117474      48
  117477  117486      48  117489  117498      48  117501  117510      48  117513
  117522      48  117525  117534      48  117537  117546      48  117549  117558
      48  117561  117570      48  117573  117582      48  117585  117594      48
  117597  117606      48  117609  117618      48  117621  117630      48  117633
  117642      48  117645  117654      48  117657  117666      48  117669  117678
      48  117681  117690      48  117693  117702      48  117705  117714      48
  117717  117726      48  117729  117738      48  117741  117750      48  117753
  117762      48  117765  117774      48  117777  117786      48  117789  117798
      48  117801  117810      48  117813  117822      48  117825  117834      48
  117837  117846      48  117849  117858      48  117861  117870      48  117873
  117882      48  117885  117894      48  117897  117906      48  117909  117918
      48  117921  117930      48  117933  117942      48  117945  117954      48
  117957  117966      48  117969  117978      48  117981  117990      48  117993
  118002      48  118005  118014      48  118017  118026      48  118029  118038
      48  118041  118050      48  118053  118062      48  118065  118074      48
  118077  118086      48  118089  118098      48  118101  118110      48  118113
  118122      48  118125  118134      48  118137  118146      48  118149  118158
      48  118161  118170      48  118173  118182      48  118185  118194      48
  118197  118206      48  118209  118218      48  118221  118230      48  118233
  118242      48  118245  118254      48  118257  118266      48  118269  118278
      48  118281  118290      48  118293  118302      48  118305  118314      48
  118317  118326      48  118329  118338      48  118341  118350      48  118353
  118362      48  118365  118374      48  118377  118386      48  118389  118398
      48  118401  118410      48  118413  118422      48  118425  118434      48
  118437  118446      48  118449  118458      48  118461  118470      48  118473
  118482      48  118485  118494      48  118497  118506      48  118509  118518
      48  118521  118530      48  118533  118542      48  118545  118554      48
  118557  118566      48  118569  118578      48  118581  118590      48  118593
  118602      48  118605  118614      48  118617  118626      48  118629  118638
      48  118641  118650      48  118653  118662      48  118665  118674      48
  118677  118686      48  118689  118698      48  118701  118710      48  118713
  118722      48  118725  118734      48  118737  118746      48  118749  118758
      48  118761  118770      48  118773  118782      48  118785  118794      48
  118797  118806      48  118809  118818      48  118821  118830      48  118833
  118842      48  118845  118854      48  118857  118866      48  118869  118878
      48  118881  118890      48  118893  118902      48  118905  118914      48
  118917  118926      48  118929  118938      48  118941  118950      48  118953
  118962      48  118965  118974      48  118977  118986      48  118989  118998
      48  119001  119010      48  119013  119022      48  119025  119034      48
  119037  119046      48  119049  119058      48  119061  119070      48  119073
  119082      48  119085  119094      48  119097  119106      48  119109  119118
      48  119121  119130      48  119133  119142      48  119145  119154      48
  119157  119166      48  119169  119178      48  119181  119190      48  119193
  119202      48  119205  119214      48  119217  119226      48  119229  119238
      48  119241  119250      48  119253  119262      48  119265  119274      48
  119277  119286      48  119289  119298      48  119301  119310      48  119313
  119322      48  119325  119334      48  119337  119346      48  119349  119358
      48  119361  119370      48  119373  119382      48  119385  119394      48
  119397  119406      48  119409  119418      48  119421  119430      48  119433
  119442      48  119445  119454      48  119457  119466      48  119469  119478
      48  119481  119490      48  119493  119502      48  119505  119514      48
  119517  119526      48  119529  119538      48  119541  119550      48  119553
  119562      48  119565  119574      48  119577  119586      48  119589  119598
      48  119601  119610      48  119613  119622      48  119625  119634      48
  119637  119646      48  119649  119658      48  119661  119670      48  119673
  119682      48  119685  119694      48  119697  119706      48  119709  119718
      48  119721  119730      48  119733  119742      48  119745  119754      48
  119757  119766      48  119769  119778      48  119781  119790      48  119793
  119802      48  119805  119814      48  119817  119826      48  119829  119838
      48  119841  119850      48  119853  119862      48  119865  119874      48
  119877  119886      48  119889  119898      48  119901  119910      48  119913
  119922      48  119925  119934      48  119937  119946      48  119949  119958
      48  119961  119970      48  119973  119982      48  119985  119994      48
  119997  120006      48  120009  120018      48  120021  120030      48  120033
  120042      48  120045  120054      48  120057  120066      48  120069  120078
      48  120081  120090      48  120093  120102      48  120105  120114      48
  120117  120126      48  120129  120138      48  120141  120150      48  120153
  120162      48  120165  120174      48  120177  120186      48  120189  120198
      48  120201  120210      48  120213  120222      48  120225  120234      48
  120237  120246      48  120249  120258      48  120261  120270      48  120273
  120282      48  120285  120294      48  120297  120306      48  120309  120318
      48  120321  120330      48  120333  120342      48  120345  120354      48
  120357  120366      48  120369  120378      48  120381  120390      48  120393
  120402      48  120405  120414      48  120417  120426      48  120429  120438
      48  120441  120450      48  120453  120462      48  120465  120474      48
  120477  120486      48  120489  120498      48  120501  120510      48  120513
  120522      48  120525  120534      48  120537  120546      48  120549  120558
      48  120561  120570      48  120573  120582      48  120585  120594      48
  120597  120606      48  120609  120618      48  120621  120630      48  120633
  120642      48  120645  120654      48  120657  120666      48  120669  120678
      48  120681  120690      48  120693  120702      48  120705  120714      48
  120717  120726      48  120729  120738      48  120741  120750      48  120753
  120762      48  120765  120774      48  120777  120786      48  120789  120798
      48  120801  120810      48  120813  120822      48  120825  120834      48
  120837  120846      48  120849  120858      48  120861  120870      48  120873
  120882      48  120885  120894      48  120897  120906      48  120909  120918
      48  120921  120930      48  120933  120942      48  120945  120954      48
  120957  120966      48  120969  120978      48  120981  120990      48  120993
  121002      48  121005  121014      48  121017  121026      48  121029  121038
      48  121041  121050      48  121053  121062      48  121065  121074      48
  121077  121086      48  121089  121098      48  121101  121110      48  121113
  121122      48  121125  121134      48  121137  121146      48  121149  121158
      48  121161  121170      48  121173  121182      48  121185  121194      48
  121197  121206      48  121209  121218      48  121221  121230      48  121233
  121242      48  121245  121254      48  121257  121266      48  121269  121278
      48  121281  121290      48  121293  121302      48  121305  121314      48
  121317  121326      48  121329  121338      48  121341  121350      48  121353
  121362      48  121365  121374      48  121377  121386      48  121389  121398
      48  121401  121410      48  121413  121422      48  121425  121434      48
  121437  121446      48  121449  121458      48  121461  121470      48  121473
  121482      48  121485  121494      48  121497  121506      48  121509  121518
      48  121521  121530      48  121533  121542      48  121545  121554      48
  121557  121566      48  121569  121578      48  121581  121590      48  121593
  121602      48  121605  121614      48  121617  121626      48  121629  121638
      48  121641  121650      48  121653  121662      48  121665  121674      48
  121677  121686      48  121689  121698      48  121701  121710      48  121713
  121722      48  121725  121734      48  121737  121746      48  121749  121758
      48  121761  121770      48  121773  121782      48  121785  121794      48
  121797  121806      48  121809  121818      48  121821  121830      48  121833
  121842      48  121845  121854      48  121857  121866      48  121869  121878
      48  121881  121890      48  121893  121902      48  121905  121914      48
  121917  121926      48  121929  121938      48  121941  121950      48  121953
  121962      48  121965  121974      48  121977  121986      48  121989  121998
      48  122001  122010      48  122013  122022      48  122025  122034      48
  122037  122046      48  122049  122058      48  122061  122070      48  122073
  122082      48  122085  122094      48  122097  122106      48  122109  122118
      48  122121  122130      48  122133  122142      48  122145  122154      48
  122157  122166      48  122169  122178      48  122181  122190      48  122193
  122202      48  122205  122214      48  122217  122226      48  122229  122238
      48  122241  122250      48  122253  122262      48  122265  122274      48
  122277  122286      48  122289  122298      48  122301  122310      48  122313
  122322      48  122325  122334      48  122337  122346      48  122349  122358
      48  122361  122370      48  122373  122382      48  122385  122394      48
  122397  122406      48  122409  122418      48  122421  122430      48  122433
  122442      48  122445  122454      48  122457  122466      48  122469  122478
      48  122481  122490      48  122493  122502      48  122505  122514      48
  122517  122526      48  122529  122538      48  122541  122550      48  122553
  122562      48  122565  122574      48  122577  122586      48  122589  122598
      48  122601  122610      48  122613  122622      48  122625  122634      48
  122637  122646      48  122649  122658      48  122661  122670      48  122673
  122682      48  122685  122694      48  122697  122706      48  122709  122718
      48  122721  122730      48  122733  122742      48  122745  122754      48
  122757  122766      48  122769  122778      48  122781  122790      48  122793
  122802      48  122805  122814      48  122817  122826      48  122829  122838
      48  122841  122850      48  122853  122862      48  122865  122874      48
  122877  122886      48  122889  122898      48  122901  122910      48  122913
  122922      48  122925  122934      48  122937  122946      48  122949  122958
      48  122961  122970      48  122973  122982      48  122985  122994      48
  122997  123006      48  123009  123018      48  123021  123030      48  123033
  123042      48  123045  123054      48  123057  123066      48  123069  123078
      48  123081  123090      48  123093  123102      48  123105  123114      48
  123117  123126      48  123129  123138      48  123141  123150      48  123153
  123162      48  123165  123174      48  123177  123186      48  123189  123198
      48  123201  123210      48  123213  123222      48  123225  123234      48
  123237  123246      48  123249  123258      48  123261  123270      48  123273
  123282      48  123285  123294      48  123297  123306      48  123309  123318
      48  123321  123330      48  123333  123342      48  123345  123354      48
  123357  123366      48  123369  123378      48  123381  123390      48  123393
  123402      48  123405  123414      48  123417  123426      48  123429  123438
      48  123441  123450      48  123453  123462      48  123465  123474      48
  123477  123486      48  123489  123498      48  123501  123510      48  123513
  123522      48  123525  123534      48  123537  123546      48  123549  123558
      48  123561  123570      48  123573  123582      48  123585  123594      48
  123597  123606      48  123609  123618      48  123621  123630      48  123633
  123642      48  123645  123654      48  123657  123666      48  123669  123678
      48  123681  123690      48  123693  123702      48  123705  123714      48
  123717  123726      48  123729  123738      48  123741  123750      48  123753
  123762      48  123765  123774      48  123777  123786      48  123789  123798
      48  123801  123810      48  123813  123822      48  123825  123834      48
  123837  123846      48  123849  123858      48  123861  123870      48  123873
  123882      48  123885  123894      48  123897  123906      48  123909  123918
      48  123921  123930      48  123933  123942      48  123945  123954      48
  123957  123966      48  123969  123978      48  123981  123990      48  123993
  124002      48  124005  124014      48  124017  124026      48  124029  124038
      48  124041  124050      48  124053  124062      48  124065  124074      48
  124077  124086      48  124089  124098      48  124101  124110      48  124113
  124122      48  124125  124134      48  124137  124146      48  124149  124158
      48  124161  124170      48  124173  124182      48  124185  124194      48
  124197  124206      48  124209  124218      48  124221  124230      48  124233
  124242      48  124245  124254      48  124257  124266      48  124269  124278
      48  124281  124290      48  124293  124302      48  124305  124314      48
  124317  124326      48  124329  124338      48  124341  124350      48  124353
  124362      48  124365  124374      48  124377  124386      48  124389  124398
      48  124401  124410      48  124413  124422      48  124425  124434      48
  124437  124446      48  124449  124458      48  124461  124470      48  124473
  124482      48  124485  124494      48  124497  124506      48  124509  124518
      48  124521  124530      48  124533  124542      48  124545  124554      48
  124557  124566      48  124569  124578      48  124581  124590      48  124593
  124602      48  124605  124614      48  124617  124626      48  124629  124638
      48  124641  124650      48  124653  124662      48  124665  124674      48
  124677  124686      48  124689  124698      48  124701  124710      48  124713
  124722      48  124725  124734      48  124737  124746      48  124749  124758
      48  124761  124770      48  124773  124782      48  124785  124794      48
  124797  124806      48  124809  124818      48  124821  124830      48  124833
  124842      48  124845  124854      48  124857  124866      48  124869  124878
      48  124881  124890      48  124893  124902      48  124905  124914      48
  124917  124926      48  124929  124938      48  124941  124950      48  124953
  124962      48  124965  124974      48  124977  124986      48  124989  124998
      48  125001  125010      48  125013  125022      48  125025  125034      48
  125037  125046      48  125049  125058      48  125061  125070      48  125073
  125082      48  125085  125094      48  125097  125106      48  125109  125118
      48  125121  125130      48  125133  125142      48  125145  125154      48
  125157  125166      48  125169  125178      48  125181  125190      48  125193
  125202      48  125205  125214      48  125217  125226      48  125229  125238
      48  125241  125250      48  125253  125262      48  125265  125274      48
  125277  125286      48  125289  125298      48  125301  125310      48  125313
  125322      48  125325  125334      48  125337  125346      48  125349  125358
      48  125361  125370      48  125373  125382      48  125385  125394      48
  125397  125406      48  125409  125418      48  125421  125430      48  125433
  125442      48  125445  125454      48  125457  125466      48  125469  125478
      48  125481  125490      48  125493  125502      48  125505  125514      48
  125517  125526      48  125529  125538      48  125541  125550      48  125553
  125562      48  125565  125574      48  125577  125586      48  125589  125598
      48  125601  125610      48  125613  125622      48  125625  125634      48
  125637  125646      48  125649  125658      48  125661  125670      48  125673
  125682      48  125685  125694      48  125697  125706      48  125709  125718
      48  125721  125730      48  125733  125742      48  125745  125754      48
  125757  125766      48  125769  125778      48  125781  125790      48  125793
  125802      48  125805  125814      48  125817  125826      48  125829  125838
      48  125841  125850      48  125853  125862      48  125865  125874      48
  125877  125886      48  125889  125898      48  125901  125910      48  125913
  125922      48  125925  125934      48  125937  125946      48  125949  125958
      48  125961  125970      48  125973  125982      48  125985  125994      48
  125997  126006      48  126009  126018      48  126021  126030      48  126033
  126042      48  126045  126054      48  126057  126066      48  126069  126078
      48  126081  126090      48  126093  126102      48  126105  126114      48
  126117  126126      48  126129  126138      48  126141  126150      48  126153
  126162      48  126165  126174      48  126177  126186      48  126189  126198
      48  126201  126210      48  126213  126222      48  126225  126234      48
  126237  126246      48  126249  126258      48  126261  126270      48  126273
  126282      48  126285  126294      48  126297  126306      48  126309  126318
      48  126321  126330      48  126333  126342      48  126345  126354      48
  126357  126366      48  126369  126378      48  126381  126390      48  126393
  126402      48  126405  126414      48  126417  126426      48  126429  126438
      48  126441  126450      48  126453  126462      48  126465  126474      48
  126477  126486      48  126489  126498      48  126501  126510      48  126513
  126522      48  126525  126534      48  126537  126546      48  126549  126558
      48  126561  126570      48  126573  126582      48  126585  126594      48
  126597  126606      48  126609  126618      48  126621  126630      48  126633
  126642      48  126645  126654      48  126657  126666      48  126669  126678
      48  126681  126690      48  126693  126702      48  126705  126714      48
  126717  126726      48  126729  126738      48  126741  126750      48  126753
  126762      48  126765  126774      48  126777  126786      48  126789  126798
      48  126801  126810      48  126813  126822      48  126825  126834      48
  126837  126846      48  126849  126858      48  126861  126870      48  126873
  126882      48  126885  126894      48  126897  126906      48  126909  126918
      48  126921  126930      48  126933  126942      48  126945  126954      48
  126957  126966      48  126969  126978      48  126981  126990      48  126993
  127002      48  127005  127014      48  127017  127026      48  127029  127038
      48  127041  127050      48  127053  127062      48  127065  127074      48
  127077  127086      48  127089  127098      48  127101  127110      48  127113
  127122      48  127125  127134      48  127137  127146      48  127149  127158
      48  127161  127170      48  127173  127182      48  127185  127194      48
  127197  127206      48  127209  127218      48  127221  127230      48  127233
  127242      48  127245  127254      48  127257  127266      48  127269  127278
      48  127281  127290      48  127293  127302      48  127305  127314      48
  127317  127326      48  127329  127338      48  127341  127350      48  127353
  127362      48  127365  127374      48  127377  127386      48  127389  127398
      48  127401  127410      48  127413  127422      48  127425  127434      48
  127437  127446      48  127449  127458      48  127461  127470      48  127473
  127482      48  127485  127494      48  127497  127506      48  127509  127518
      48  127521  127530      48  127533  127542      48  127545  127554      48
  127557  127566      48  127569  127578      48  127581  127590      48  127593
  127602      48  127605  127614      48  127617  127626      48  127629  127638
      48  127641  127650      48  127653  127662      48  127665  127674      48
  127677  127686      48  127689  127698      48  127701  127710      48  127713
  127722      48  127725  127734      48  127737  127746      48  127749  127758
      48  127761  127770      48  127773  127782      48  127785  127794      48
  127797  127806      48  127809  127818      48  127821  127830      48  127833
  127842      48  127845  127854      48  127857  127866      48  127869  127878
      48  127881  127890      48  127893  127902      48  127905  127914      48
  127917  127926      48  127929  127938      48  127941  127950      48  127953
  127962      48  127965  127974      48  127977  127986      48  127989  127998
      48  128001  128010      48  128013  128022      48  128025  128034      48
  128037  128046      48  128049  128058      48  128061  128070      48  128073
  128082      48  128085  128094      48  128097  128106      48  128109  128118
      48  128121  128130      48  128133  128142      48  128145  128154      48
  128157  128166      48  128169  128178      48  128181  128190      48  128193
  128202      48  128205  128214      48  128217  128226      48  128229  128238
      48  128241  128250      48  128253  128262      48  128265  128274      48
  128277  128286      48  128289  128298      48  128301  128310      48  128313
  128322      48  128325  128334      48  128337  128346      48  128349  128358
      48  128361  128370      48  128373  128382      48  128385  128394      48
  128397  128406      48  128409  128418      48  128421  128430      48  128433
  128442      48  128445  128454      48  128457  128466      48  128469  128478
      48  128481  128490      48  128493  128502      48  128505  128514      48
  128517  128526      48  128529  128538      48  128541  128550      48  128553
  128562      48  128565  128574      48  128577  128586      48  128589  128598
      48  128601  128610      48  128613  128622      48  128625  128634      48
  128637  128646      48  128649  128658      48  128661  128670      48  128673
  128682      48  128685  128694      48  128697  128706      48  128709  128718
      48  128721  128730      48  128733  128742      48  128745  128754      48
  128757  128766      48  128769  128778      48  128781  128790      48  128793
  128802      48  128805  128814      48  128817  128826      48  128829  128838
      48  128841  128850      48  128853  128862      48  128865  128874      48
  128877  128886      48  128889  128898      48  128901  128910      48  128913
  128922      48  128925  128934      48  128937  128946      48  128949  128958
      48  128961  128970      48  128973  128982      48  128985  128994      48
  128997  129006      48  129009  129018      48  129021  129030      48  129033
  129042      48  129045  129054      48  129057  129066      48  129069  129078
      48  129081  129090      48  129093  129102      48  129105  129114      48
  129117  129126      48  129129  129138      48  129141  129150      48  129153
  129162      48  129165  129174      48  129177  129186      48  129189  129198
      48  129201  129210      48  129213  129222      48  129225  129234      48
  129237  129246      48  129249  129258      48  129261  129270      48  129273
  129282      48  129285  129294      48  129297  129306      48  129309  129318
      48  129321  129330      48  129333  129342      48  129345  129354      48
  129357  129366      48  129369  129378      48  129381  129390      48  129393
  129402      48  129405  129414      48  129417  129426      48  129429  129438
      48  129441  129450      48  129453  129462      48  129465  129474      48
  129477  129486      48  129489  129498      48  129501  129510      48  129513
  129522      48  129525  129534      48  129537  129546      48  129549  129558
      48  129561  129570      48  129573  129582      48  129585  129594      48
  129597  129606      48  129609  129618      48  129621  129630      48  129633
  129642      48  129645  129654      48  129657  129666      48  129669  129678
      48  129681  129690      48  129693  129702      48  129705  129714      48
  129717  129726      48  129729  129738      48  129741  129750      48  129753
  129762      48  129765  129774      48  129777  129786      48  129789  129798
      48  129801  129810      48  129813  129822      48  129825  129834      48
  129837  129846      48  129849  129858      48  129861  129870      48  129873
  129882      48  129885  129894      48  129897  129906      48  129909  129918
      48  129921  129930      48  129933  129942      48  129945  129954      48
  129957  129966      48  129969  129978      48  129981  129990      48  129993
  130002      48  130005  130014      48  130017  130026      48  130029  130038
      48  130041  130050      48  130053  130062      48  130065  130074      48
  130077  130086      48  130089  130098      48  130101  130110      48  130113
  130122      48  130125  130134      48  130137  130146      48  130149  130158
      48  130161  130170      48  130173  130182      48  130185  130194      48
  130197  130206      48  130209  130218      48  130221  130230      48  130233
  130242      48  130245  130254      48  130257  130266      48  130269  130278
      48  130281  130290      48  130293  130302      48  130305  130314      48
  130317  130326      48  130329  130338      48  130341  130350      48  130353
  130362      48  130365  130374      48  130377  130386      48  130389  130398
      48  130401  130410      48  130413  130422      48  130425  130434      48
  130437  130446      48  130449  130458      48  130461  130470      48  130473
  130482      48  130485  130494      48  130497  130506      48  130509  130518
      48  130521  130530      48  130533  130542      48  130545  130554      48
  130557  130566      48  130569  130578      48  130581  130590      48  130593
  130602      48  130605  130614      48  130617  130626      48  130629  130638
      48  130641  130650      48  130653  130662      48  130665  130674      48
  130677  130686      48  130689  130698      48  130701  130710      48  130713
  130722      48  130725  130734      48  130737  130746      48  130749  130758
      48  130761  130770      48  130773  130782      48  130785  130794      48
  130797  130806      48  130809  130818      48  130821  130830      48  130833
  130842      48  130845  130854      48  130857  130866      48  130869  130878
      48  130881  130890      48  130893  130902      48  130905  130914      48
  130917  130926      48  130929  130938      48  130941  130950      48  130953
  130962      48  130965  130974      48  130977  130986      48  130989  130998
      48  131001  131010      48  131013  131022      48  131025  131034      48
  131037  131046      48  131049  131058      48  131061  131070      48  131073
  131082      48  131085  131094      48  131097  131106      48  131109  131118
      48  131121  131130      48  131133  131142      48  131145  131154      48
  131157  131166      48  131169  131178      48  131181  131190      48  131193
  131202      48  131205  131214      48  131217  131226      48  131229  131238
      48  131241  131250      48  131253  131262      48  131265  131274      48
  131277  131286      48  131289  131298      48  131301  131310      48  131313
  131322      48  131325  131334      48  131337  131346      48  131349  131358
      48  131361  131370      48  131373  131382      48  131385  131394      48
  131397  131406      48  131409  131418      48  131421  131430      48  131433
  131442      48  131445  131454      48  131457  131466      48  131469  131478
      48  131481  131490      48  131493  131502      48  131505  131514      48
  131517  131526      48  131529  131538      48  131541  131550      48  131553
  131562      48  131565  131574      48  131577  131586      48  131589  131598
      48  131601  131610      48  131613  131622      48  131625  131634      48
  131637  131646      48  131649  131658      48  131661  131670      48  131673
  131682      48  131685  131694      48  131697  131706      48  131709  131718
      48  131721  131730      48  131733  131742      48  131745  131754      48
  131757  131766      48  131769  131778      48  131781  131790      48  131793
  131802      48  131805  131814      48  131817  131826      48  131829  131838
      48  131841  131850      48  131853  131862      48  131865  131874      48
  131877  131886      48  131889  131898      48  131901  131910      48  131913
  131922      48  131925  131934      48  131937  131946      48  131949  131958
      48  131961  131970      48  131973  131982      48  131985  131994      48
  131997  132006      48  132009  132018      48  132021  132030      48  132033
  132042      48  132045  132054      48  132057  132066      48  132069  132078
      48  132081  132090      48  132093  132102      48  132105  132114      48
  132117  132126      48  132129  132138      48  132141  132150      48  132153
  132162      48  132165  132174      48  132177  132186      48  132189  132198
      48  132201  132210      48  132213  132222      48  132225  132234      48
  132237  132246      48  132249  132258      48  132261  132270      48  132273
  132282      48  132285  132294      48  132297  132306      48  132309  132318
      48  132321  132330      48  132333  132342      48  132345  132354      48
  132357  132366      48  132369  132378      48  132381  132390      48  132393
  132402      48  132405  132414      48  132417  132426      48  132429  132438
      48  132441  132450      48  132453  132462      48  132465  132474      48
  132477  132486      48  132489  132498      48  132501  132510      48  132513
  132522      48  132525  132534      48  132537  132546      48  132549  132558
      48  132561  132570      48  132573  132582      48  132585  132594      48
  132597  132606      48  132609  132618      48  132621  132630      48  132633
  132642      48  132645  132654      48  132657  132666      48  132669  132678
      48  132681  132690      48  132693  132702      48  132705  132714      48
  132717  132726      48  132729  132738      48  132741  132750      48  132753
  132762      48  132765  132774      48  132777  132786      48  132789  132798
      48  132801  132810      48  132813  132822      48  132825  132834      48
  132837  132846      48  132849  132858      48  132861  132870      48  132873
  132882      48  132885  132894      48  132897  132906      48  132909  132918
      48  132921  132930      48  132933  132942      48  132945  132954      48
  132957  132966      48  132969  132978      48  132981  132990      48  132993
  133002      48  133005  133014      48  133017  133026      48  133029  133038
      48  133041  133050      48  133053  133062      48  133065  133074      48
  133077  133086      48  133089  133098      48  133101  133110      48  133113
  133122      48  133125  133134      48  133137  133146      48  133149  133158
      48  133161  133170      48  133173  133182      48  133185  133194      48
  133197  133206      48  133209  133218      48  133221  133230      48  133233
  133242      48  133245  133254      48  133257  133266      48  133269  133278
      48  133281  133290      48  133293  133302      48  133305  133314      48
  133317  133326      48  133329  133338      48  133341  133350      48  133353
  133362      48  133365  133374      48  133377  133386      48  133389  133398
      48  133401  133410      48  133413  133422      48  133425  133434      48
  133437  133446      48  133449  133458      48  133461  133470      48  133473
  133482      48  133485  133494      48  133497  133506      48  133509  133518
      48  133521  133530      48  133533  133542      48  133545  133554      48
  133557  133566      48  133569  133578      48  133581  133590      48  133593
  133602      48  133605  133614      48  133617  133626      48  133629  133638
      48  133641  133650      48  133653  133662      48  133665  133674      48
  133677  133686      48  133689  133698      48  133701  133710      48  133713
  133722      48  133725  133734      48  133737  133746      48  133749  133758
      48  133761  133770      48  133773  133782      48  133785  133794      48
  133797  133806      48  133809  133818      48  133821  133830      48  133833
  133842      48  133845  133854      48  133857  133866      48  133869  133878
      48  133881  133890      48  133893  133902      48  133905  133914      48
  133917  133926      48  133929  133938      48  133941  133950      48  133953
  133962      48  133965  133974      48  133977  133986      48  133989  133998
      48  134001  134010      48  134013  134022      48  134025  134034      48
  134037  134046      48  134049  134058      48  134061  134070      48  134073
  134082      48  134085  134094      48  134097  134106      48  134109  134118
      48  134121  134130      48  134133  134142      48  134145  134154      48
  134157  134166      48  134169  134178      48  134181  134190      48  134193
  134202      48  134205  134214      48  134217  134226      48  134229  134238
      48  134241  134250      48  134253  134262      48  134265  134274      48
  134277  134286      48  134289  134298      48  134301  134310      48  134313
  134322      48  134325  134334      48  134337  134346      48  134349  134358
      48  134361  134370      48  134373  134382      48  134385  134394      48
  134397  134406      48  134409  134418      48  134421  134430      48  134433
  134442      48  134445  134454      48  134457  134466      48  134469  134478
      48  134481  134490      48  134493  134502      48  134505  134514      48
  134517  134526      48  134529  134538      48  134541  134550      48  134553
  134562      48  134565  134574      48  134577  134586      48  134589  134598
      48  134601  134610      48  134613  134622      48  134625  134634      48
  134637  134646      48  134649  134658      48  134661  134670      48  134673
  134682      48  134685  134694      48  134697  134706      48  134709  134718
      48  134721  134730      48  134733  134742      48  134745  134754      48
  134757  134766      48  134769  134778      48  134781  134790      48  134793
  134802      48  134805  134814      48  134817  134826      48  134829  134838
      48  134841  134850      48  134853  134862      48  134865  134874      48
  134877  134886      48  134889  134898      48  134901  134910      48  134913
  134922      48  134925  134934      48  134937  134946      48  134949  134958
      48  134961  134970      48  134973  134982      48  134985  134994      48
  134997  135006      48  135009  135018      48  135021  135030      48  135033
  135042      48  135045  135054      48  135057  135066      48  135069  135078
      48  135081  135090      48  135093  135102      48  135105  135114      48
  135117  135126      48  135129  135138      48  135141  135150      48  135153
  135162      48  135165  135174      48  135177  135186      48  135189  135198
      48  135201  135210      48  135213  135222      48  135225  135234      48
  135237  135246      48  135249  135258      48  135261  135270      48  135273
  135282      48  135285  135294      48  135297  135306      48  135309  135318
      48  135321  135330      48  135333  135342      48  135345  135354      48
  135357  135366      48  135369  135378      48  135381  135390      48  135393
  135402      48  135405  135414      48  135417  135426      48  135429  135438
      48  135441  135450      48  135453  135462      48  135465  135474      48
  135477  135486      48  135489  135498      48  135501  135510      48  135513
  135522      48  135525  135534      48  135537  135546      48  135549  135558
      48  135561  135570      48  135573  135582      48  135585  135594      48
  135597  135606      48  135609  135618      48  135621  135630      48  135633
  135642      48  135645  135654      48  135657  135666      48  135669  135678
      48  135681  135690      48  135693  135702      48  135705  135714      48
  135717  135726      48  135729  135738      48  135741  135750      48  135753
  135762      48  135765  135774      48  135777  135786      48  135789  135798
      48  135801  135810      48  135813  135822      48  135825  135834      48
  135837  135846      48  135849  135858      48  135861  135870      48  135873
  135882      48  135885  135894      48  135897  135906      48  135909  135918
      48  135921  135930      48  135933  135942      48  135945  135954      48
  135957  135966      48  135969  135978      48  135981  135990      48  135993
  136002      48  136005  136014      48  136017  136026      48  136029  136038
      48  136041  136050      48  136053  136062      48  136065  136074      48
  136077  136086      48  136089  136098      48  136101  136110      48  136113
  136122      48  136125  136134      48  136137  136146      48  136149  136158
      48  136161  136170      48  136173  136182      48  136185  136194      48
  136197  136206      48  136209  136218      48  136221  136230      48  136233
  136242      48  136245  136254      48  136257  136266      48  136269  136278
      48  136281  136290      48  136293  136302      48  136305  136314      48
  136317  136326      48  136329  136338      48  136341  136350      48  136353
  136362      48  136365  136374      48  136377  136386      48  136389  136398
      48  136401  136410      48  136413  136422      48  136425  136434      48
  136437  136446      48  136449  136458      48  136461  136470      48  136473
  136482      48  136485  136494      48  136497  136506      48  136509  136518
      48  136521  136530      48  136533  136542      48  136545  136554      48
  136557  136566      48  136569  136578      48  136581  136590      48  136593
  136602      48  136605  136614      48  136617  136626      48  136629  136638
      48  136641  136650      48  136653  136662      48  136665  136674      48
  136677  136686      48  136689  136698      48  136701  136710      48  136713
  136722      48  136725  136734      48  136737  136746      48  136749  136758
      48  136761  136770      48  136773  136782      48  136785  136794      48
  136797  136806      48  136809  136818      48  136821  136830      48  136833
  136842      48  136845  136854      48  136857  136866      48  136869  136878
      48  136881  136890      48  136893  136902      48  136905  136914      48
  136917  136926      48  136929  136938      48  136941  136950      48  136953
  136962      48  136965  136974      48  136977  136986      48  136989  136998
      48  137001  137010      48  137013  137022      48  137025  137034      48
  137037  137046      48  137049  137058      48  137061  137070      48  137073
  137082      48  137085  137094      48  137097  137106      48  137109  137118
      48  137121  137130      48  137133  137142      48  137145  137154      48
  137157  137166      48  137169  137178      48  137181  137190      48  137193
  137202      48  137205  137214      48  137217  137226      48  137229  137238
      48  137241  137250      48  137253  137262      48  137265  137274      48
  137277  137286      48  137289  137298      48  137301  137310      48  137313
  137322      48  137325  137334      48  137337  137346      48  137349  137358
      48  137361  137370      48  137373  137382      48  137385  137394      48
  137397  137406      48  137409  137418      48  137421  137430      48  137433
  137442      48  137445  137454      48  137457  137466      48  137469  137478
      48  137481  137490      48  137493  137502      48  137505  137514      48
  137517  137526      48  137529  137538      48  137541  137550      48  137553
  137562      48  137565  137574      48  137577  137586      48  137589  137598
      48  137601  137610      48  137613  137622      48  137625  137634      48
  137637  137646      48  137649  137658      48  137661  137670      48  137673
  137682      48  137685  137694      48  137697  137706      48  137709  137718
      48  137721  137730      48  137733  137742      48  137745  137754      48
  137757  137766      48  137769  137778      48  137781  137790      48  137793
  137802      48  137805  137814      48  137817  137826      48  137829  137838
      48  137841  137850      48  137853  137862      48  137865  137874      48
  137877  137886      48  137889  137898      48  137901  137910      48  137913
  137922      48  137925  137934      48  137937  137946      48  137949  137958
      48  137961  137970      48  137973  137982      48  137985  137994      48
  137997  138006      48  138009  138018      48  138021  138030      48  138033
  138042      48  138045  138054      48  138057  138066      48  138069  138078
      48  138081  138090      48  138093  138102      48  138105  138114      48
  138117  138126      48  138129  138138      48  138141  138150      48  138153
  138162      48  138165  138174      48  138177  138186      48  138189  138198
      48  138201  138210      48  138213  138222      48  138225  138234      48
  138237  138246      48  138249  138258      48  138261  138270      48  138273
  138282      48  138285  138294      48  138297  138306      48  138309  138318
      48  138321  138330      48  138333  138342      48  138345  138354      48
  138357  138366      48  138369  138378      48  138381  138390      48  138393
  138402      48  138405  138414      48  138417  138426      48  138429  138438
      48  138441  138450      48  138453  138462      48  138465  138474      48
  138477  138486      48  138489  138498      48  138501  138510      48  138513
  138522      48  138525  138534      48  138537  138546      48  138549  138558
      48  138561  138570      48  138573  138582      48  138585  138594      48
  138597  138606      48  138609  138618      48  138621  138630      48  138633
  138642      48  138645  138654      48  138657  138666      48  138669  138678
      48  138681  138690      48  138693  138702      48  138705  138714      48
  138717  138726      48  138729  138738      48  138741  138750      48  138753
  138762      48  138765  138774      48  138777  138786      48  138789  138798
      48  138801  138810      48  138813  138822      48  138825  138834      48
  138837  138846      48  138849  138858      48  138861  138870      48  138873
  138882      48  138885  138894      48  138897  138906      48  138909  138918
      48  138921  138930      48  138933  138942      48  138945  138954      48
  138957  138966      48  138969  138978      48  138981  138990      48  138993
  139002      48  139005  139014      48  139017  139026      48  139029  139038
      48  139041  139050      48  139053  139062      48  139065  139074      48
  139077  139086      48  139089  139098      48  139101  139110      48  139113
  139122      48  139125  139134      48  139137  139146      48  139149  139158
      48  139161  139170      48  139173  139182      48  139185  139194      48
  139197  139206      48  139209  139218      48  139221  139230      48  139233
  139242      48  139245  139254      48  139257  139266      48  139269  139278
      48  139281  139290      48  139293  139302      48  139305  139314      48
  139317  139326      48  139329  139338      48  139341  139350      48  139353
  139362      48  139365  139374      48  139377  139386      48  139389  139398
      48  139401  139410      48  139413  139422      48  139425  139434      48
  139437  139446      48  139449  139458      48  139461  139470      48  139473
  139482      48  139485  139494      48  139497  139506      48  139509  139518
      48  139521  139530      48  139533  139542      48  139545  139554      48
  139557  139566      48  139569  139578      48  139581  139590      48  139593
  139602      48  139605  139614      48  139617  139626      48  139629  139638
      48  139641  139650      48  139653  139662      48  139665  139674      48
  139677  139686      48  139689  139698      48  139701  139710      48  139713
  139722      48  139725  139734      48  139737  139746      48  139749  139758
      48  139761  139770      48  139773  139782      48  139785  139794      48
  139797  139806      48  139809  139818      48  139821  139830      48  139833
  139842      48  139845  139854      48  139857  139866      48  139869  139878
      48  139881  139890      48  139893  139902      48  139905  139914      48
  139917  139926      48  139929  139938      48  139941  139950      48  139953
  139962      48  139965  139974      48  139977  139986      48  139989  139998
      48  140001  140010      48  140013  140022      48  140025  140034      48
  140037  140046      48  140049  140058      48  140061  140070      48  140073
  140082      48  140085  140094      48  140097  140106      48  140109  140118
      48  140121  140130      48  140133  140142      48  140145  140154      48
  140157  140166      48  140169  140178      48  140181  140190      48  140193
  140202      48  140205  140214      48  140217  140226      48  140229  140238
      48  140241  140250      48  140253  140262      48  140265  140274      48
  140277  140286      48  140289  140298      48  140301  140310      48  140313
  140322      48  140325  140334      48  140337  140346      48  140349  140358
      48  140361  140370      48  140373  140382      48  140385  140394      48
  140397  140406      48  140409  140418      48  140421  140430      48  140433
  140442      48  140445  140454      48  140457  140466      48  140469  140478
      48  140481  140490      48  140493  140502      48  140505  140514      48
  140517  140526      48  140529  140538      48  140541  140550      48  140553
  140562      48  140565  140574      48  140577  140586      48  140589  140598
      48  140601  140610      48  140613  140622      48  140625  140634      48
  140637  140646      48  140649  140658      48  140661  140670      48  140673
  140682      48  140685  140694      48  140697  140706      48  140709  140718
      48  140721  140730      48  140733  140742      48  140745  140754      48
  140757  140766      48  140769  140778      48  140781  140790      48  140793
  140802      48  140805  140814      48  140817  140826      48  140829  140838
      48  140841  140850      48  140853  140862      48  140865  140874      48
  140877  140886      48  140889  140898      48  140901  140910      48  140913
  140922      48  140925  140934      48  140937  140946      48  140949  140958
      48  140961  140970      48  140973  140982      48  140985  140994      48
  140997  141006      48  141009  141018      48  141021  141030      48  141033
  141042      48  141045  141054      48  141057  141066      48  141069  141078
      48  141081  141090      48  141093  141102      48  141105  141114      48
  141117  141126      48  141129  141138      48  141141  141150      48  141153
  141162      48  141165  141174      48  141177  141186      48  141189  141198
      48  141201  141210      48  141213  141222      48  141225  141234      48
  141237  141246      48  141249  141258      48  141261  141270      48  141273
  141282      48  141285  141294      48  141297  141306      48  141309  141318
      48  141321  141330      48  141333  141342      48  141345  141354      48
  141357  141366      48  141369  141378      48  141381  141390      48  141393
  141402      48  141405  141414      48  141417  141426      48  141429  141438
      48  141441  141450      48  141453  141462      48  141465  141474      48
  141477  141486      48  141489  141498      48  141501  141510      48  141513
  141522      48  141525  141534      48  141537  141546      48  141549  141558
      48  141561  141570      48  141573  141582      48  141585  141594      48
  141597  141606      48  141609  141618      48  141621  141630      48  141633
  141642      48  141645  141654      48  141657  141666      48  141669  141678
      48  141681  141690      48  141693  141702      48  141705  141714      48
  141717  141726      48  141729  141738      48  141741  141750      48  141753
  141762      48  141765  141774      48  141777  141786      48  141789  141798
      48  141801  141810      48  141813  141822      48  141825  141834      48
  141837  141846      48  141849  141858      48  141861  141870      48  141873
  141882      48  141885  141894      48  141897  141906      48  141909  141918
      48  141921  141930      48  141933  141942      48  141945  141954      48
  141957  141966      48  141969  141978      48  141981  141990      48  141993
  142002      48  142005  142014      48  142017  142026      48  142029  142038
      48  142041  142050      48  142053  142062      48  142065  142074      48
  142077  142086      48  142089  142098      48  142101  142110      48  142113
  142122      48  142125  142134      48  142137  142146      48  142149  142158
      48  142161  142170      48  142173  142182      48  142185  142194      48
  142197  142206      48  142209  142218      48  142221  142230      48  142233
  142242      48  142245  142254      48  142257  142266      48  142269  142278
      48  142281  142290      48  142293  142302      48  142305  142314      48
  142317  142326      48  142329  142338      48  142341  142350      48  142353
  142362      48  142365  142374      48  142377  142386      48  142389  142398
      48  142401  142410      48  142413  142422      48  142425  142434      48
  142437  142446      48  142449  142458      48  142461  142470      48  142473
  142482      48  142485  142494      48  142497  142506      48  142509  142518
      48  142521  142530      48  142533  142542      48  142545  142554      48
  142557  142566      48  142569  142578      48  142581  142590      48  142593
  142602      48  142605  142614      48  142617  142626      48  142629  142638
      48  142641  142650      48  142653  142662      48  142665  142674      48
  142677  142686      48  142689  142698      48  142701  142710      48  142713
  142722      48  142725  142734      48  142737  142746      48  142749  142758
      48  142761  142770      48  142773  142782      48  142785  142794      48
  142797  142806      48  142809  142818      48  142821  142830      48  142833
  142842      48  142845  142854      48  142857  142866      48  142869  142878
      48  142881  142890      48  142893  142902      48  142905  142914      48
  142917  142926      48  142929  142938      48  142941  142950      48  142953
  142962      48  142965  142974      48  142977  142986      48  142989  142998
      48  143001  143010      48  143013  143022      48  143025  143034      48
  143037  143046      48  143049  143058      48  143061  143070      48  143073
  143082      48  143085  143094      48  143097  143106      48  143109  143118
      48  143121  143130      48  143133  143142      48  143145  143154      48
  143157  143166      48  143169  143178      48  143181  143190      48  143193
  143202      48  143205  143214      48  143217  143226      48  143229  143238
      48  143241  143250      48  143253  143262      48  143265  143274      48
  143277  143286      48  143289  143298      48  143301  143310      48  143313
  143322      48  143325  143334      48  143337  143346      48  143349  143358
      48  143361  143370      48  143373  143382      48  143385  143394      48
  143397  143406      48  143409  143418      48  143421  143430      48  143433
  143442      48  143445  143454      48  143457  143466      48  143469  143478
      48  143481  143490      48  143493  143502      48  143505  143514      48
  143517  143526      48  143529  143538      48  143541  143550      48  143553
  143562      48  143565  143574      48  143577  143586      48  143589  143598
      48  143601  143610      48  143613  143622      48  143625  143634      48
  143637  143646      48  143649  143658      48  143661  143670      48  143673
  143682      48  143685  143694      48  143697  143706      48  143709  143718
      48  143721  143730      48  143733  143742      48  143745  143754      48
  143757  143766      48  143769  143778      48  143781  143790      48  143793
  143802      48  143805  143814      48  143817  143826      48  143829  143838
      48  143841  143850      48  143853  143862      48  143865  143874      48
  143877  143886      48  143889  143898      48  143901  143910      48  143913
  143922      48  143925  143934      48  143937  143946      48  143949  143958
      48  143961  143970      48  143973  143982      48  143985  143994      48
  143997  144006      48  144009  144018      48  144021  144030      48  144033
  144042      48  144045  144054      48  144057  144066      48  144069  144078
      48  144081  144090      48  144093  144102      48  144105  144114      48
  144117  144126      48  144129  144138      48  144141  144150      48  144153
  144162      48  144165  144174      48  144177  144186      48  144189  144198
      48  144201  144210      48  144213  144222      48  144225  144234      48
  144237  144246      48  144249  144258      48  144261  144270      48  144273
  144282      48  144285  144294      48  144297  144306      48  144309  144318
      48  144321  144330      48  144333  144342      48  144345  144354      48
  144357  144366      48  144369  144378      48  144381  144390      48  144393
  144402      48  144405  144414      48  144417  144426      48  144429  144438
      48  144441  144450      48  144453  144462      48  144465  144474      48
  144477  144486      48  144489  144498      48  144501  144510      48  144513
  144522      48  144525  144534      48  144537  144546      48  144549  144558
      48  144561  144570      48  144573  144582      48  144585  144594      48
  144597  144606      48  144609  144618      48  144621  144630      48  144633
  144642      48  144645  144654      48  144657  144666      48  144669  144678
      48  144681  144690      48  144693  144702      48  144705  144714      48
  144717  144726      48  144729  144738      48  144741  144750      48  144753
  144762      48  144765  144774      48  144777  144786      48  144789  144798
      48  144801  144810      48  144813  144822      48  144825  144834      48
  144837  144846      48  144849  144858      48  144861  144870      48  144873
  144882      48  144885  144894      48  144897  144906      48  144909  144918
      48  144921  144930      48  144933  144942      48  144945  144954      48
  144957  144966      48  144969  144978      48  144981  144990      48  144993
  145002      48  145005  145014      48  145017  145026      48  145029  145038
      48  145041  145050      48  145053  145062      48  145065  145074      48
  145077  145086      48  145089  145098      48  145101  145110      48  145113
  145122      48  145125  145134      48  145137  145146      48  145149  145158
      48  145161  145170      48  145173  145182      48  145185  145194      48
  145197  145206      48  145209  145218      48  145221  145230      48  145233
  145242      48  145245  145254      48  145257  145266      48  145269  145278
      48  145281  145290      48  145293  145302      48  145305  145314      48
  145317  145326      48  145329  145338      48  145341  145350      48  145353
  145362      48  145365  145374      48  145377  145386      48  145389  145398
      48  145401  145410      48  145413  145422      48  145425  145434      48
  145437  145446      48  145449  145458      48  145461  145470      48  145473
  145482      48  145485  145494      48  145497  145506      48  145509  145518
      48  145521  145530      48  145533  145542      48  145545  145554      48
  145557  145566      48  145569  145578      48  145581  145590      48  145593
  145602      48  145605  145614      48  145617  145626      48  145629  145638
      48  145641  145650      48  145653  145662      48  145665  145674      48
  145677  145686      48  145689  145698      48  145701  145710      48  145713
  145722      48  145725  145734      48  145737  145746      48  145749  145758
      48  145761  145770      48  145773  145782      48  145785  145794      48
  145797  145806      48  145809  145818      48  145821  145830      48  145833
  145842      48  145845  145854      48  145857  145866      48  145869  145878
      48  145881  145890      48  145893  145902      48  145905  145914      48
  145917  145926      48  145929  145938      48  145941  145950      48  145953
  145962      48  145965  145974      48  145977  145986      48  145989  145998
      48  146001  146010      48  146013  146022      48  146025  146034      48
  146037  146046      48  146049  146058      48  146061  146070      48  146073
  146082      48  146085  146094      48  146097  146106      48  146109  146118
      48  146121  146130      48  146133  146142      48  146145  146154      48
  146157  146166      48  146169  146178      48  146181  146190      48  146193
  146202      48  146205  146214      48  146217  146226      48  146229  146238
      48  146241  146250      48  146253  146262      48  146265  146274      48
  146277  146286      48  146289  146298      48  146301  146310      48  146313
  146322      48  146325  146334      48  146337  146346      48  146349  146358
      48  146361  146370      48  146373  146382      48  146385  146394      48
  146397  146406      48  146409  146418      48  146421  146430      48  146433
  146442      48  146445  146454      48  146457  146466      48  146469  146478
      48  146481  146490      48  146493  146502      48  146505  146514      48
  146517  146526      48  146529  146538      48  146541  146550      48  146553
  146562      48  146565  146574      48  146577  146586      48  146589  146598
      48  146601  146610      48  146613  146622      48  146625  146634      48
  146637  146646      48  146649  146658      48  146661  146670      48  146673
  146682      48  146685  146694      48  146697  146706      48  146709  146718
      48  146721  146730      48  146733  146742      48  146745  146754      48
  146757  146766      48  146769  146778      48  146781  146790      48  146793
  146802      48  146805  146814      48  146817  146826      48  146829  146838
      48  146841  146850      48  146853  146862      48  146865  146874      48
  146877  146886      48  146889  146898      48  146901  146910      48  146913
  146922      48  146925  146934      48  146937  146946      48  146949  146958
      48  146961  146970      48  146973  146982      48  146985  146994      48
  146997  147006      48  147009  147018      48  147021  147030      48  147033
  147042      48  147045  147054      48  147057  147066      48  147069  147078
      48  147081  147090      48  147093  147102      48  147105  147114      48
  147117  147126      48  147129  147138      48  147141  147150      48  147153
  147162      48  147165  147174      48  147177  147186      48  147189  147198
      48  147201  147210      48  147213  147222      48  147225  147234      48
  147237  147246      48  147249  147258      48  147261  147270      48  147273
  147282      48  147285  147294      48  147297  147306      48  147309  147318
      48  147321  147330      48  147333  147342      48  147345  147354      48
  147357  147366      48  147369  147378      48  147381  147390      48  147393
  147402      48  147405  147414      48  147417  147426      48  147429  147438
      48  147441  147450      48  147453  147462      48  147465  147474      48
  147477  147486      48  147489  147498      48  147501  147510      48  147513
  147522      48  147525  147534      48  147537  147546      48  147549  147558
      48  147561  147570      48  147573  147582      48  147585  147594      48
  147597  147606      48  147609  147618      48  147621  147630      48  147633
  147642      48  147645  147654      48  147657  147666      48  147669  147678
      48  147681  147690      48  147693  147702      48  147705  147714      48
  147717  147726      48  147729  147738      48  147741  147750      48  147753
  147762      48  147765  147774      48  147777  147786      48  147789  147798
      48  147801  147810      48  147813  147822      48  147825  147834      48
  147837  147846      48  147849  147858      48  147861  147870      48  147873
  147882      48  147885  147894      48  147897  147906      48  147909  147918
      48  147921  147930      48  147933  147942      48  147945  147954      48
  147957  147966      48  147969  147978      48  147981  147990      48  147993
  148002      48  148005  148014      48  148017  148026      48  148029  148038
      48  148041  148050      48  148053  148062      48  148065  148074      48
  148077  148086      48  148089  148098      48  148101  148110      48  148113
  148122      48  148125  148134      48  148137  148146      48  148149  148158
      48  148161  148170      48  148173  148182      48  148185  148194      48
  148197  148206      48  148209  148218      48  148221  148230      48  148233
  148242      48  148245  148254      48  148257  148266      48  148269  148278
      48  148281  148290      48  148293  148302      48  148305  148314      48
  148317  148326      48  148329  148338      48  148341  148350      48  148353
  148362      48  148365  148374      48  148377  148386      48  148389  148398
      48  148401  148410      48  148413  148422      48  148425  148434      48
  148437  148446      48  148449  148458      48  148461  148470      48  148473
  148482      48  148485  148494      48  148497  148506      48  148509  148518
      48  148521  148530      48  148533  148542      48  148545  148554      48
  148557  148566      48  148569  148578      48  148581  148590      48  148593
  148602      48  148605  148614      48  148617  148626      48  148629  148638
      48  148641  148650      48  148653  148662      48  148665  148674      48
  148677  148686      48  148689  148698      48  148701  148710      48  148713
  148722      48  148725  148734      48  148737  148746      48  148749  148758
      48  148761  148770      48  148773  148782      48  148785  148794      48
  148797  148806      48  148809  148818      48  148821  148830      48  148833
  148842      48  148845  148854      48  148857  148866      48  148869  148878
      48  148881  148890      48  148893  148902      48  148905  148914      48
  148917  148926      48  148929  148938      48  148941  148950      48  148953
  148962      48  148965  148974      48  148977  148986      48  148989  148998
      48  149001  149010      48  149013  149022      48  149025  149034      48
  149037  149046      48  149049  149058      48  149061  149070      48  149073
  149082      48  149085  149094      48  149097  149106      48  149109  149118
      48  149121  149130      48  149133  149142      48  149145  149154      48
  149157  149166      48  149169  149178      48  149181  149190      48  149193
  149202      48  149205  149214      48  149217  149226      48  149229  149238
      48  149241  149250      48  149253  149262      48  149265  149274      48
  149277  149286      48  149289  149298      48  149301  149310      48  149313
  149322      48  149325  149334      48  149337  149346      48  149349  149358
      48  149361  149370      48  149373  149382      48  149385  149394      48
  149397  149406      48  149409  149418      48  149421  149430      48  149433
  149442      48  149445  149454      48  149457  149466      48  149469  149478
      48  149481  149490      48  149493  149502      48  149505  149514      48
  149517  149526      48  149529  149538      48  149541  149550      48  149553
  149562      48  149565  149574      48  149577  149586      48  149589  149598
      48  149601  149610      48  149613  149622      48  149625  149634      48
  149637  149646      48  149649  149658      48  149661  149670      48  149673
  149682      48  149685  149694      48  149697  149706      48  149709  149718
      48  149721  149730      48  149733  149742      48  149745  149754      48
  149757  149766      48  149769  149778      48  149781  149790      48  149793
  149802      48  149805  149814      48  149817  149826      48  149829  149838
      48  149841  149850      48  149853  149862      48  149865  149874      48
  149877  149886      48  149889  149898      48  149901  149910      48  149913
  149922      48  149925  149934      48  149937  149946      48  149949  149958
      48  149961  149970      48  149973  149982      48  149985  149994      48
  149997  150006      48  150009  150018      48  150021  150030      48  150033
  150042      48  150045  150054      48  150057  150066      48  150069  150078
      48  150081  150090      48  150093  150102      48  150105  150114      48
  150117  150126      48  150129  150138      48  150141  150150      48  150153
  150162      48  150165  150174      48  150177  150186      48  150189  150198
      48  150201  150210      48  150213  150222      48  150225  150234      48
  150237  150246      48  150249  150258      48  150261  150270      48  150273
  150282      48  150285  150294      48  150297  150306      48  150309  150318
      48  150321  150330      48  150333  150342      48  150345  150354      48
  150357  150366      48  150369  150378      48  150381  150390      48  150393
  150402      48  150405  150414      48  150417  150426      48  150429  150438
      48  150441  150450      48  150453  150462      48  150465  150474      48
  150477  150486      48  150489  150498      48  150501  150510      48  150513
  150522      48  150525  150534      48  150537  150546      48  150549  150558
      48  150561  150570      48  150573  150582      48  150585  150594      48
  150597  150606      48  150609  150618      48  150621  150630      48  150633
  150642      48  150645  150654      48  150657  150666      48  150669  150678
      48  150681  150690      48  150693  150702      48  150705  150714      48
  150717  150726      48  150729  150738      48  150741  150750      48  150753
  150762      48  150765  150774      48  150777  150786      48  150789  150798
      48  150801  150810      48  150813  150822      48  150825  150834      48
  150837  150846      48  150849  150858      48  150861  150870      48  150873
  150882      48  150885  150894      48  150897  150906      48  150909  150918
      48  150921  150930      48  150933  150942      48  150945  150954      48
  150957  150966      48  150969  150978      48  150981  150990      48  150993
  151002      48  151005  151014      48  151017  151026      48  151029  151038
      48  151041  151050      48  151053  151062      48  151065  151074      48
  151077  151086      48  151089  151098      48  151101  151110      48  151113
  151122      48  151125  151134      48  151137  151146      48  151149  151158
      48  151161  151170      48  151173  151182      48  151185  151194      48
  151197  151206      48  151209  151218      48  151221  151230      48  151233
  151242      48  151245  151254      48  151257  151266      48  151269  151278
      48  151281  151290      48  151293  151302      48  151305  151314      48
  151317  151326      48  151329  151338      48  151341  151350      48  151353
  151362      48  151365  151374      48  151377  151386      48  151389  151398
      48  151401  151410      48  151413  151422      48  151425  151434      48
  151437  151446      48  151449  151458      48  151461  151470      48  151473
  151482      48  151485  151494      48  151497  151506      48  151509  151518
      48  151521  151530      48  151533  151542      48  151545  151554      48
  151557  151566      48  151569  151578      48  151581  151590      48  151593
  151602      48  151605  151614      48  151617  151626      48  151629  151638
      48  151641  151650      48  151653  151662      48  151665  151674      48
  151677  151686      48  151689  151698      48  151701  151710      48  151713
  151722      48  151725  151734      48  151737  151746      48  151749  151758
      48  151761  151770      48  151773  151782      48  151785  151794      48
  151797  151806      48  151809  151818      48  151821  151830      48  151833
  151842      48  151845  151854      48  151857  151866      48  151869  151878
      48  151881  151890      48  151893  151902      48  151905  151914      48
  151917  151926      48  151929  151938      48  151941  151950      48  151953
  151962      48  151965  151974      48  151977  151986      48  151989  151998
      48  152001  152010      48  152013  152022      48  152025  152034      48
  152037  152046      48  152049  152058      48  152061  152070      48  152073
  152082      48  152085  152094      48  152097  152106      48  152109  152118
      48  152121  152130      48  152133  152142      48  152145  152154      48
  152157  152166      48  152169  152178      48  152181  152190      48  152193
  152202      48  152205  152214      48  152217  152226      48  152229  152238
      48  152241  152250      48  152253  152262      48  152265  152274      48
  152277  152286      48  152289  152298      48  152301  152310      48  152313
  152322      48  152325  152334      48  152337  152346      48  152349  152358
      48  152361  152370      48  152373  152382      48  152385  152394      48
  152397  152406      48  152409  152418      48  152421  152430      48  152433
  152442      48  152445  152454      48  152457  152466      48  152469  152478
      48  152481  152490      48  152493  152502      48  152505  152514      48
  152517  152526      48  152529  152538      48  152541  152550      48  152553
  152562      48  152565  152574      48  152577  152586      48  152589  152598
      48  152601  152610      48  152613  152622      48  152625  152634      48
  152637  152646      48  152649  152658      48  152661  152670      48  152673
  152682      48  152685  152694      48  152697  152706      48  152709  152718
      48  152721  152730      48  152733  152742      48  152745  152754      48
  152757  152766      48  152769  152778      48  152781  152790      48  152793
  152802      48  152805  152814      48  152817  152826      48  152829  152838
      48  152841  152850      48  152853  152862      48  152865  152874      48
  152877  152886      48  152889  152898      48  152901  152910      48  152913
  152922      48  152925  152934      48  152937  152946      48  152949  152958
      48  152961  152970      48  152973  152982      48  152985  152994      48
  152997  153006      48  153009  153018      48  153021  153030      48  153033
  153042      48  153045  153054      48  153057  153066      48  153069  153078
      48  153081  153090      48  153093  153102      48  153105  153114      48
  153117  153126      48  153129  153138      48  153141  153150      48  153153
  153162      48  153165  153174      48  153177  153186      48  153189  153198
      48  153201  153210      48  153213  153222      48  153225  153234      48
  153237  153246      48  153249  153258      48  153261  153270      48  153273
  153282      48  153285  153294      48  153297  153306      48  153309  153318
      48  153321  153330      48  153333  153342      48  153345  153354      48
  153357  153366      48  153369  153378      48  153381  153390      48  153393
  153402      48  153405  153414      48  153417  153426      48  153429  153438
      48  153441  153450      48  153453  153462      48  153465  153474      48
  153477  153486      48  153489  153498      48  153501  153510      48  153513
  153522      48  153525  153534      48  153537  153546      48  153549  153558
      48  153561  153570      48  153573  153582      48  153585  153594      48
  153597  153606      48  153609  153618      48  153621  153630      48  153633
  153642      48  153645  153654      48  153657  153666      48  153669  153678
      48  153681  153690      48  153693  153702      48  153705  153714      48
  153717  153726      48  153729  153738      48  153741  153750      48  153753
  153762      48  153765  153774      48  153777  153786      48  153789  153798
      48  153801  153810      48  153813  153822      48  153825  153834      48
  153837  153846      48  153849  153858      48  153861  153870      48  153873
  153882      48  153885  153894      48  153897  153906      48  153909  153918
      48  153921  153930      48  153933  153942      48  153945  153954      48
  153957  153966      48  153969  153978      48  153981  153990      48  153993
  154002      48  154005  154014      48  154017  154026      48  154029  154038
      48  154041  154050      48  154053  154062      48  154065  154074      48
  154077  154086      48  154089  154098      48  154101  154110      48  154113
  154122      48  154125  154134      48  154137  154146      48  154149  154158
      48  154161  154170      48  154173  154182      48  154185  154194      48
  154197  154206      48  154209  154218      48  154221  154230      48  154233
  154242      48  154245  154254      48  154257  154266      48  154269  154278
      48  154281  154290      48  154293  154302      48  154305  154314      48
  154317  154326      48  154329  154338      48  154341  154350      48  154353
  154362      48  154365  154374      48  154377  154386      48  154389  154398
      48  154401  154410      48  154413  154422      48  154425  154434      48
  154437  154446      48  154449  154458      48  154461  154470      48  154473
  154482      48  154485  154494      48  154497  154506      48  154509  154518
      48  154521  154530      48  154533  154542      48  154545  154554      48
  154557  154566      48  154569  154578      48  154581  154590      48  154593
  154602      48  154605  154614      48  154617  154626      48  154629  154638
      48  154641  154650      48  154653  154662      48  154665  154674      48
  154677  154686      48  154689  154698      48  154701  154710      48  154713
  154722      48  154725  154734      48  154737  154746      48  154749  154758
      48  154761  154770      48  154773  154782      48  154785  154794      48
  154797  154806      48  154809  154818      48  154821  154830      48  154833
  154842      48  154845  154854      48  154857  154866      48  154869  154878
      48  154881  154890      48  154893  154902      48  154905  154914      48
  154917  154926      48  154929  154938      48  154941  154950      48  154953
  154962      48  154965  154974      48  154977  154986      48  154989  154998
      48  155001  155010      48  155013  155022      48  155025  155034      48
  155037  155046      48  155049  155058      48  155061  155070      48  155073
  155082      48  155085  155094      48  155097  155106      48  155109  155118
      48  155121  155130      48  155133  155142      48  155145  155154      48
  155157  155166      48  155169  155178      48  155181  155190      48  155193
  155202      48  155205  155214      48  155217  155226      48  155229  155238
      48  155241  155250      48  155253  155262      48  155265  155274      48
  155277  155286      48  155289  155298      48  155301  155310      48  155313
  155322      48  155325  155334      48  155337  155346      48  155349  155358
      48  155361  155370      48  155373  155382      48  155385  155394      48
  155397  155406      48  155409  155418      48  155421  155430      48  155433
  155442      48  155445  155454      48  155457  155466      48  155469  155478
      48  155481  155490      48  155493  155502      48  155505  155514      48
  155517  155526      48  155529  155538      48  155541  155550      48  155553
  155562      48  155565  155574      48  155577  155586      48  155589  155598
      48  155601  155610      48  155613  155622      48  155625  155634      48
  155637  155646      48  155649  155658      48  155661  155670      48  155673
  155682      48  155685  155694      48  155697  155706      48  155709  155718
      48  155721  155730      48  155733  155742      48  155745  155754      48
  155757  155766      48  155769  155778      48  155781  155790      48  155793
  155802      48  155805  155814      48  155817  155826      48  155829  155838
      48  155841  155850      48  155853  155862      48  155865  155874      48
  155877  155886      48  155889  155898      48  155901  155910      48  155913
  155922      48  155925  155934      48  155937  155946      48  155949  155958
      48  155961  155970      48  155973  155982      48  155985  155994      48
  155997  156006      48  156009  156018      48  156021  156030      48  156033
  156042      48  156045  156054      48  156057  156066      48  156069  156078
      48  156081  156090      48  156093  156102      48  156105  156114      48
  156117  156126      48  156129  156138      48  156141  156150      48  156153
  156162      48  156165  156174      48  156177  156186      48  156189  156198
      48  156201  156210      48  156213  156222      48  156225  156234      48
  156237  156246      48  156249  156258      48  156261  156270      48  156273
  156282      48  156285  156294      48  156297  156306      48  156309  156318
      48  156321  156330      48  156333  156342      48  156345  156354      48
  156357  156366      48  156369  156378      48  156381  156390      48  156393
  156402      48  156405  156414      48  156417  156426      48  156429  156438
      48  156441  156450      48  156453  156462      48  156465  156474      48
  156477  156486      48  156489  156498      48  156501  156510      48  156513
  156522      48  156525  156534      48  156537  156546      48  156549  156558
      48  156561  156570      48  156573  156582      48  156585  156594      48
  156597  156606      48  156609  156618      48  156621  156630      48  156633
  156642      48  156645  156654      48  156657  156666      48  156669  156678
      48  156681  156690      48  156693  156702      48  156705  156714      48
  156717  156726      48  156729  156738      48  156741  156750      48  156753
  156762      48  156765  156774      48  156777  156786      48  156789  156798
      48  156801  156810      48  156813  156822      48  156825  156834      48
  156837  156846      48  156849  156858      48  156861  156870      48  156873
  156882      48  156885  156894      48  156897  156906      48  156909  156918
      48  156921  156930      48  156933  156942      48  156945  156954      48
  156957  156966      48  156969  156978      48  156981  156990      48  156993
  157002      48  157005  157014      48  157017  157026      48  157029  157038
      48  157041  157050      48  157053  157062      48  157065  157074      48
  157077  157086      48  157089  157098      48  157101  157110      48  157113
  157122      48  157125  157134      48  157137  157146      48  157149  157158
      48  157161  157170      48  157173  157182      48  157185  157194      48
  157197  157206      48  157209  157218      48  157221  157230      48  157233
  157242      48  157245  157254      48  157257  157266      48  157269  157278
      48  157281  157290      48  157293  157302      48  157305  157314      48
  157317  157326      48  157329  157338      48  157341  157350      48  157353
  157362      48  157365  157374      48  157377  157386      48  157389  157398
      48  157401  157410      48  157413  157422      48  157425  157434      48
  157437  157446      48  157449  157458      48  157461  157470      48  157473
  157482      48  157485  157494      48  157497  157506      48  157509  157518
      48  157521  157530      48  157533  157542      48  157545  157554      48
  157557  157566      48  157569  157578      48  157581  157590      48  157593
  157602      48  157605  157614      48  157617  157626      48  157629  157638
      48  157641  157650      48  157653  157662      48  157665  157674      48
  157677  157686      48  157689  157698      48  157701  157710      48  157713
  157722      48  157725  157734      48  157737  157746      48  157749  157758
      48  157761  157770      48  157773  157782      48  157785  157794      48
  157797  157806      48  157809  157818      48  157821  157830      48  157833
  157842      48  157845  157854      48  157857  157866      48  157869  157878
      48  157881  157890      48  157893  157902      48  157905  157914      48
  157917  157926      48  157929  157938      48  157941  157950      48  157953
  157962      48  157965  157974      48  157977  157986      48  157989  157998
      48  158001  158010      48  158013  158022      48  158025  158034      48
  158037  158046      48  158049  158058      48  158061  158070      48  158073
  158082      48  158085  158094      48  158097  158106      48  158109  158118
      48  158121  158130      48  158133  158142      48  158145  158154      48
  158157  158166      48  158169  158178      48  158181  158190      48  158193
  158202      48  158205  158214      48  158217  158226      48  158229  158238
      48  158241  158250      48  158253  158262      48  158265  158274      48
  158277  158286      48  158289  158298      48  158301  158310      48  158313
  158322      48  158325  158334      48  158337  158346      48  158349  158358
      48  158361  158370      48  158373  158382      48  158385  158394      48
  158397  158406      48  158409  158418      48  158421  158430      48  158433
  158442      48  158445  158454      48  158457  158466      48  158469  158478
      48  158481  158490      48  158493  158502      48  158505  158514      48
  158517  158526      48  158529  158538      48  158541  158550      48  158553
  158562      48  158565  158574      48  158577  158586      48  158589  158598
      48  158601  158610      48  158613  158622      48  158625  158634      48
    6978    6981      51    6975    6978      53    6972    6975      54    6969
    6972      55    6969    6981      51    6966    6969      56    6960    6963
      58    6957    6960      58    6954    6957      58    6951    6954      58
    6948    6951      58    6948    6963      58    6945    6948      59    6942
    6945      61    6939    6942      62    6936    6939      64    6936    6966
      65    6933    6936      66    6930    6933      68    6930    6972      69
    6927    6930      70
%FLAG ANGLES_INC_HYDROGEN                                                       
%FORMAT(10I8)                                                                   
      84      81      87       3      81      87      90       5      78      75
      81       6      78      75      93       7      75      81      84       6
      63      60      66      10      57      60      63      12      57      60
      66      12      54      51      57      14      45      51      54      19
      36      33      39      26      30      33      36      30      27      24
      30      34      27      24      81      35      24      81      84       6
      21      24      27      39      18      15      21       7      18      15
      75       6      15      75      78       6      12       6      15      42
       9       6      12      43       9       6      15      42       6      15
      18      44       3       6       9      47       3       6      12      47
       0       3       6      49     186     183     189       3     183     189
     192       5     180     177     183       6     180     177     195       7
     177     183     186       6     165     162     168      10     159     162
     165      12     159     162     168      12     156     153     159      14
     147     153     156      19     138     135     141      26     132     135
     138      30     129     126     132      34     129     126     183      35
     126     183     186       6     123     126     129      39     120     117
     123       7     120     117     177       6     117     177     180       6
     114     108     117      42     111     108     114      43     111     108
     117      42     108     117     120      44     105     108     111      50
     105     108     114      50     285     282     288       3     282     288
     291       5     279     276     282       6     279     276     294       7
     276     282     285       6     267     264     270      54     261     264
     267      54     255     252     258      10     249     252     255      12
     249     252     258      12     240     237     243      62     234     237
     240      65     231     228     234      34     231     228     282      35
     228     282     285       6     225     228     231      39     222     219
     225       7     222     219     276       6     219     276     279       6
     216     210     219      42     213     210     216      43     213     210
     219      42     210     219     222      44     207     210     213      50
     207     210     216      50     375     372     378       3     372     378
     381       5     369     366     372       6     369     366     384       7
     366     372     375       6     357     354     360      19     348     354
     357      19     345     342     348      69     339     336     342      72
     336     342     345      74     333     336     339      76     330     327
     333      34     330     327     372      35     327     372     375       6
     324     327     330      39     321     318     324       7     321     318
     366       6     318     366     369       6     315     309     318      42
     312     309     315      43     312     309     318      42     309     318
     321      44     306     309     312      50     306     309     315      50
     468     465     471       3     465     471     474       5     462     459
     465       6     462     459     477       7     459     465     468       6
     444     441     447      10     438     441     444      12     438     441
     447      12     435     432     438      84     429     426     432      87
     426     432     435      89     423     426     429      91     420     417
     423      34     420     417     465      35     417     465     468       6
     414     417     420      39     411     408     414       7     411     408
     459       6     408     459     462       6     405     399     408      42
     402     399     405      43     402     399     408      42     399     408
     411      44     396     399     402      50     396     399     405      50
     567     564     570       3     564     570     573       5     561     558
     564       6     561     558     576       7     558     564     567       6
     549     546     552      54     543     546     549      54     537     534
     540      10     531     534     537      12     531     534     540      12
     522     519     525      62     516     519     522      65     513     510
     516      34     513     510     564      35     510     564     567       6
     507     510     513      39     504     501     507       7     504     501
     558       6     501     558     561       6     498     492     501      42
     495     492     498      43     495     492     501      42     492     501
     504      44     489     492     495      50     489     492     498      50
     657     654     660       3     654     660     663       5     651     648
     654       6     651     648     666       7     648     654     657       6
     639     636     642      19     630     636     639      19     627     624
     630      69     621     618     624      72     618     624     627      74
     615     618     621      76     612     609     615      34     612     609
     654      35     609     654     657       6     606     609     612      39
     603     600     606       7     603     600     648       6     600     648
     651       6     597     591     600      42     594     591     597      43
     594     591     600      42     591     600     603      44     588     591
     594      50     588     591     597      50     756     753     759       3
     753     759     762       5     750     747     753       6     750     747
     765       7     747     753     756       6     738     735     741      54
     732     735     738      54     726     723     729      10     720     723
     726      12     720     723     729      12     711     708     714      62
     705     708     711      65     702     699     705      34     702     699
     753      35     699     753     756       6     696     699     702      39
     693     690     696       7     693     690     747       6     690     747
     750       6     687     681     690      42     684     681     687      43
     684     681     690      42     681     690     693      44     678     681
     684      50     678     681     687      50     846     843     849       3
     843     849     852       5     840     837     843       6     840     837
     855       7     837     843     846       6     828     825     831      19
     819     825     828      19     816     813     819      69     810     807
     813      72     807     813     816      74     804     807     810      76
     801     798     804      34     801     798     843      35     798     843
     846       6     795     798     801      39     792     789     795       7
     792     789     837       6     789     837     840       6     786     780
     789      42     783     780     786      43     783     780     789      42
     780     789     792      44     777     780     783      50     777     780
     786      50     945     942     948       3     942     948     951       5
     939     936     942       6     939     936     954       7     936     942
     945       6     927     924     930      54     921     924     927      54
     915     912     918      10     909     912     915      12     909     912
     918      12     900     897     903      62     894     897     900      65
     891     888     894      34     891     888     942      35     888     942
     945       6     885     888     891      39     882     879     885       7
     882     879     936       6     879     936     939       6     876     870
     879      42     873     870     876      43     873     870     879      42
     870     879     882      44     867     870     873      50     867     870
     876      50    1044    1041    1047       3    1041    1047    1050       5
    1038    1035    1041       6    1038    1035    1053       7    1035    1041
    1044       6    1026    1023    1029      54    1020    1023    1026      54
    1014    1011    1017      10    1008    1011    1014      12    1008    1011
    1017      12     999     996    1002      62     993     996     999      65
     990     987     993      34     990     987    1041      35     987    1041
    1044       6     984     987     990      39     981     978     984       7
     981     978    1035       6     978    1035    1038       6     975     969
     978      42     972     969     975      43     972     969     978      42
     969     978     981      44     966     969     972      50     966     969
     975      50    1134    1131    1137       3    1131    1137    1140       5
    1128    1125    1131       6    1128    1125    1143       7    1125    1131
    1134       6    1116    1113    1119      19    1107    1113    1116      19
    1104    1101    1107      69    1098    1095    1101      72    1095    1101
    1104      74    1092    1095    1098      76    1089    1086    1092      34
    1089    1086    1131      35    1086    1131    1134       6    1083    1086
    1089      39    1080    1077    1083       7    1080    1077    1125       6
    1077    1125    1128       6    1074    1068    1077      42    1071    1068
    1074      43    1071    1068    1077      42    1068    1077    1080      44
    1065    1068    1071      50    1065    1068    1074      50    1227    1224
    1230       3    1224    1230    1233       5    1221    1218    1224       6
    1221    1218    1236       7    1218    1224    1227       6    1203    1200
    1206      10    1197    1200    1203      12    1197    1200    1206      12
    1194    1191    1197      84    1188    1185    1191      87    1185    1191
    1194      89    1182    1185    1188      91    1179    1176    1182      34
    1179    1176    1224      35    1176    1224    1227       6    1173    1176
    1179      39    1170    1167    1173       7    1170    1167    1218       6
    1167    1218    1221       6    1164    1158    1167      42    1161    1158
    1164      43    1161    1158    1167      42    1158    1167    1170      44
    1155    1158    1161      50    1155    1158    1164      50    1329    1326
    1332       3    1326    1332    1335       5    1323    1320    1326       6
    1323    1320    1338       7    1320    1326    1329       6    1308    1305
    1311      10    1302    1305    1308      12    1302    1305    1311      12
    1299    1296    1302      14    1290    1296    1299      19    1281    1278
    1284      26    1275    1278    1281      30    1272    1269    1275      34
    1272    1269    1326      35    1269    1326    1329       6    1266    1269
    1272      39    1263    1260    1266       7    1263    1260    1320       6
    1260    1320    1323       6    1257    1251    1260      42    1254    1251
    1257      43    1254    1251    1260      42    1251    1260    1263      44
    1248    1251    1254      50    1248    1251    1257      50    1422    1419
    1425       3    1419    1425    1428       5    1416    1413    1419       6
    1416    1413    1431       7    1413    1419    1422       6    1398    1395
    1401      10    1392    1395    1398      12    1392    1395    1401      12
    1389    1386    1392      84    1383    1380    1386      87    1380    1386
    1389      89    1377    1380    1383      91    1374    1371    1377      34
    1374    1371    1419      35    1371    1419    1422       6    1368    1371
    1374      39    1365    1362    1368       7    1365    1362    1413       6
    1362    1413    1416       6    1359    1353    1362      42    1356    1353
    1359      43    1356    1353    1362      42    1353    1362    1365      44
    1350    1353    1356      50    1350    1353    1359      50    1524    1521
    1527       3    1521    1527    1530       5    1518    1515    1521       6
    1518    1515    1533       7    1515    1521    1524       6    1503    1500
    1506      10    1497    1500    1503      12    1497    1500    1506      12
    1494    1491    1497      14    1485    1491    1494      19    1476    1473
    1479      26    1470    1473    1476      30    1467    1464    1470      34
    1467    1464    1521      35    1464    1521    1524       6    1461    1464
    1467      39    1458    1455    1461       7    1458    1455    1515       6
    1455    1515    1518       6    1452    1446    1455      42    1449    1446
    1452      43    1449    1446    1455      42    1446    1455    1458      44
    1443    1446    1449      50    1443    1446    1452      50    1614    1611
    1617       3    1611    1617    1620       5    1608    1605    1611       6
    1608    1605    1623       7    1605    1611    1614       6    1596    1593
    1599      19    1587    1593    1596      19    1584    1581    1587      69
    1578    1575    1581      72    1575    1581    1584      74    1572    1575
    1578      76    1569    1566    1572      34    1569    1566    1611      35
    1566    1611    1614       6    1563    1566    1569      39    1560    1557
    1563       7    1560    1557    1605       6    1557    1605    1608       6
    1554    1548    1557      42    1551    1548    1554      43    1551    1548
    1557      42    1548    1557    1560      44    1545    1548    1551      50
    1545    1548    1554      50    1716    1713    1719       3    1713    1719
    1722       5    1710    1707    1713       6    1710    1707    1725       7
    1707    1713    1716       6    1695    1692    1698      10    1689    1692
    1695      12    1689    1692    1698      12    1686    1683    1689      14
    1677    1683    1686      19    1668    1665    1671      26    1662    1665
    1668      30    1659    1656    1662      34    1659    1656    1713      35
    1656    1713    1716       6    1653    1656    1659      39    1650    1647
    1653       7    1650    1647    1707       6    1647    1707    1710       6
    1644    1638    1647      42    1641    1638    1644      43    1641    1638
    1647      42    1638    1647    1650      44    1635    1638    1641      50
    1635    1638    1644      50    1818    1815    1821       3    1815    1821
    1824       5    1812    1809    1815       6    1812    1809    1827       7
    1809    1815    1818       6    1797    1794    1800      10    1791    1794
    1797      12    1791    1794    1800      12    1788    1785    1791      14
    1779    1785    1788      19    1770    1767    1773      26    1764    1767
    1770      30    1761    1758    1764      34    1761    1758    1815      35
    1758    1815    1818       6    1755    1758    1761      39    1752    1749
    1755       7    1752    1749    1809       6    1749    1809    1812       6
    1746    1740    1749      42    1743    1740    1746      43    1743    1740
    1749      42    1740    1749    1752      44    1737    1740    1743      50
    1737    1740    1746      50    1917    1914    1920       3    1914    1920
    1923       5    1911    1908    1914       6    1911    1908    1926       7
    1908    1914    1917       6    1899    1896    1902      54    1893    1896
    1899      54    1887    1884    1890      10    1881    1884    1887      12
    1881    1884    1890      12    1872    1869    1875      62    1866    1869
    1872      65    1863    1860    1866      34    1863    1860    1914      35
    1860    1914    1917       6    1857    1860    1863      39    1854    1851
    1857       7    1854    1851    1908       6    1851    1908    1911       6
    1848    1842    1851      42    1845    1842    1848      43    1845    1842
    1851      42    1842    1851    1854      44    1839    1842    1845      50
    1839    1842    1848      50    2007    2004    2010       3    2004    2010
    2013       5    2001    1998    2004       6    2001    1998    2016       7
    1998    2004    2007       6    1989    1986    1992      19    1980    1986
    1989      19    1977    1974    1980      69    1971    1968    1974      72
    1968    1974    1977      74    1965    1968    1971      76    1962    1959
    1965      34    1962    1959    2004      35    1959    2004    2007       6
    1956    1959    1962      39    1953    1950    1956       7    1953    1950
    1998       6    1950    1998    2001       6    1947    1941    1950      42
    1944    1941    1947      43    1944    1941    1950      42    1941    1950
    1953      44    1938    1941    1944      50    1938    1941    1947      50
    2106    2103    2109       3    2103    2109    2112       5    2100    2097
    2103       6    2100    2097    2115       7    2097    2103    2106       6
    2088    2085    2091      54    2082    2085    2088      54    2076    2073
    2079      10    2070    2073    2076      12    2070    2073    2079      12
    2061    2058    2064      62    2055    2058    2061      65    2052    2049
    2055      34    2052    2049    2103      35    2049    2103    2106       6
    2046    2049    2052      39    2043    2040    2046       7    2043    2040
    2097       6    2040    2097    2100       6    2037    2031    2040      42
    2034    2031    2037      43    2034    2031    2040      42    2031    2040
    2043      44    2028    2031    2034      50    2028    2031    2037      50
    2196    2193    2199       3    2193    2199    2202       5    2190    2187
    2193       6    2190    2187    2205       7    2187    2193    2196       6
    2178    2175    2181      19    2169    2175    2178      19    2166    2163
    2169      69    2160    2157    2163      72    2157    2163    2166      74
    2154    2157    2160      76    2151    2148    2154      34    2151    2148
    2193      35    2148    2193    2196       6    2145    2148    2151      39
    2142    2139    2145       7    2142    2139    2187       6    2139    2187
    2190       6    2136    2130    2139      42    2133    2130    2136      43
    2133    2130    2139      42    2130    2139    2142      44    2127    2130
    2133      50    2127    2130    2136      50    2298    2295    2301       3
    2295    2301    2304       5    2292    2289    2295       6    2292    2289
    2307       7    2289    2295    2298       6    2277    2274    2280      10
    2271    2274    2277      12    2271    2274    2280      12    2268    2265
    2271      14    2259    2265    2268      19    2250    2247    2253      26
    2244    2247    2250      30    2241    2238    2244      34    2241    2238
    2295      35    2238    2295    2298       6    2235    2238    2241      39
    2232    2229    2235       7    2232    2229    2289       6    2229    2289
    2292       6    2226    2220    2229      42    2223    2220    2226      43
    2223    2220    2229      42    2220    2229    2232      44    2217    2220
    2223      50    2217    2220    2226      50    2400    2397    2403       3
    2397    2403    2406       5    2394    2391    2397       6    2394    2391
    2409       7    2391    2397    2400       6    2379    2376    2382      10
    2373    2376    2379      12    2373    2376    2382      12    2370    2367
    2373      14    2361    2367    2370      19    2352    2349    2355      26
    2346    2349    2352      30    2343    2340    2346      34    2343    2340
    2397      35    2340    2397    2400       6    2337    2340    2343      39
    2334    2331    2337       7    2334    2331    2391       6    2331    2391
    2394       6    2328    2322    2331      42    2325    2322    2328      43
    2325    2322    2331      42    2322    2331    2334      44    2319    2322
    2325      50    2319    2322    2328      50    2493    2490    2496       3
    2490    2496    2499       5    2487    2484    2490       6    2487    2484
    2502       7    2484    2490    2493       6    2469    2466    2472      10
    2463    2466    2469      12    2463    2466    2472      12    2460    2457
    2463      84    2454    2451    2457      87    2451    2457    2460      89
    2448    2451    2454      91    2445    2442    2448      34    2445    2442
    2490      35    2442    2490    2493       6    2439    2442    2445      39
    2436    2433    2439       7    2436    2433    2484       6    2433    2484
    2487       6    2430    2424    2433      42    2427    2424    2430      43
    2427    2424    2433      42    2424    2433    2436      44    2421    2424
    2427      50    2421    2424    2430      50    2592    2589    2595       3
    2589    2595    2598       5    2586    2583    2589       6    2586    2583
    2601       7    2583    2589    2592       6    2574    2571    2577      54
    2568    2571    2574      54    2562    2559    2565      10    2556    2559
    2562      12    2556    2559    2565      12    2547    2544    2550      62
    2541    2544    2547      65    2538    2535    2541      34    2538    2535
    2589      35    2535    2589    2592       6    2532    2535    2538      39
    2529    2526    2532       7    2529    2526    2583       6    2526    2583
    2586       6    2523    2517    2526      42    2520    2517    2523      43
    2520    2517    2526      42    2517    2526    2529      44    2514    2517
    2520      50    2514    2517    2523      50    2685    2682    2688       3
    2682    2688    2691       5    2679    2676    2682       6    2679    2676
    2694       7    2676    2682    2685       6    2661    2658    2664      10
    2655    2658    2661      12    2655    2658    2664      12    2652    2649
    2655      84    2646    2643    2649      87    2643    2649    2652      89
    2640    2643    2646      91    2637    2634    2640      34    2637    2634
    2682      35    2634    2682    2685       6    2631    2634    2637      39
    2628    2625    2631       7    2628    2625    2676       6    2625    2676
    2679       6    2622    2616    2625      42    2619    2616    2622      43
    2619    2616    2625      42    2616    2625    2628      44    2613    2616
    2619      50    2613    2616    2622      50    2787    2784    2790       3
    2784    2790    2793       5    2781    2778    2784       6    2781    2778
    2796       7    2778    2784    2787       6    2766    2763    2769      10
    2760    2763    2766      12    2760    2763    2769      12    2757    2754
    2760      14    2748    2754    2757      19    2739    2736    2742      26
    2733    2736    2739      30    2730    2727    2733      34    2730    2727
    2784      35    2727    2784    2787       6    2724    2727    2730      39
    2721    2718    2724       7    2721    2718    2778       6    2718    2778
    2781       6    2715    2709    2718      42    2712    2709    2715      43
    2712    2709    2718      42    2709    2718    2721      44    2706    2709
    2712      50    2706    2709    2715      50    2880    2877    2883       3
    2877    2883    2886       5    2874    2871    2877       6    2874    2871
    2889       7    2871    2877    2880       6    2856    2853    2859      10
    2850    2853    2856      12    2850    2853    2859      12    2847    2844
    2850      84    2841    2838    2844      87    2838    2844    2847      89
    2835    2838    2841      91    2832    2829    2835      34    2832    2829
    2877      35    2829    2877    2880       6    2826    2829    2832      39
    2823    2820    2826       7    2823    2820    2871       6    2820    2871
    2874       6    2817    2811    2820      42    2814    2811    2817      43
    2814    2811    2820      42    2811    2820    2823      44    2808    2811
    2814      50    2808    2811    2817      50    2979    2976    2982       3
    2976    2982    2985       5    2973    2970    2976       6    2973    2970
    2988       7    2970    2976    2979       6    2961    2958    2964      54
    2955    2958    2961      54    2949    2946    2952      10    2943    2946
    2949      12    2943    2946    2952      12    2934    2931    2937      62
    2928    2931    2934      65    2925    2922    2928      34    2925    2922
    2976      35    2922    2976    2979       6    2919    2922    2925      39
    2916    2913    2919       7    2916    2913    2970       6    2913    2970
    2973       6    2910    2904    2913      42    2907    2904    2910      43
    2907    2904    2913      42    2904    2913    2916      44    2901    2904
    2907      50    2901    2904    2910      50    3078    3075    3081       3
    3075    3081    3084       5    3072    3069    3075       6    3072    3069
    3087       7    3069    3075    3078       6    3060    3057    3063      54
    3054    3057    3060      54    3048    3045    3051      10    3042    3045
    3048      12    3042    3045    3051      12    3033    3030    3036      62
    3027    3030    3033      65    3024    3021    3027      34    3024    3021
    3075      35    3021    3075    3078       6    3018    3021    3024      39
    3015    3012    3018       7    3015    3012    3069       6    3012    3069
    3072       6    3009    3003    3012      42    3006    3003    3009      43
    3006    3003    3012      42    3003    3012    3015      44    3000    3003
    3006      50    3000    3003    3009      50    3180    3177    3183       3
    3177    3183    3186       5    3174    3171    3177       6    3174    3171
    3189       7    3171    3177    3180       6    3159    3156    3162      10
    3153    3156    3159      12    3153    3156    3162      12    3150    3147
    3153      14    3141    3147    3150      19    3132    3129    3135      26
    3126    3129    3132      30    3123    3120    3126      34    3123    3120
    3177      35    3120    3177    3180       6    3117    3120    3123      39
    3114    3111    3117       7    3114    3111    3171       6    3111    3171
    3174       6    3108    3102    3111      42    3105    3102    3108      43
    3105    3102    3111      42    3102    3111    3114      44    3099    3102
    3105      50    3099    3102    3108      50    3270    3267    3273       3
    3267    3273    3276       5    3264    3261    3267       6    3264    3261
    3279       7    3261    3267    3270       6    3252    3249    3255      19
    3243    3249    3252      19    3240    3237    3243      69    3234    3231
    3237      72    3231    3237    3240      74    3228    3231    3234      76
    3225    3222    3228      34    3225    3222    3267      35    3222    3267
    3270       6    3219    3222    3225      39    3216    3213    3219       7
    3216    3213    3261       6    3213    3261    3264       6    3210    3204
    3213      42    3207    3204    3210      43    3207    3204    3213      42
    3204    3213    3216      44    3201    3204    3207      50    3201    3204
    3210      50    3360    3357    3363       3    3357    3363    3366       5
    3354    3351    3357       6    3354    3351    3369       7    3351    3357
    3360       6    3342    3339    3345      19    3333    3339    3342      19
    3330    3327    3333      69    3324    3321    3327      72    3321    3327
    3330      74    3318    3321    3324      76    3315    3312    3318      34
    3315    3312    3357      35    3312    3357    3360       6    3309    3312
    3315      39    3306    3303    3309       7    3306    3303    3351       6
    3303    3351    3354       6    3300    3294    3303      42    3297    3294
    3300      43    3297    3294    3303      42    3294    3303    3306      44
    3291    3294    3297      50    3291    3294    3300      50    3450    3447
    3453       3    3447    3453    3456       5    3444    3441    3447       6
    3444    3441    3459       7    3441    3447    3450       6    3432    3429
    3435      19    3423    3429    3432      19    3420    3417    3423      69
    3414    3411    3417      72    3411    3417    3420      74    3408    3411
    3414      76    3405    3402    3408      34    3405    3402    3447      35
    3402    3447    3450       6    3399    3402    3405      39    3396    3393
    3399       7    3396    3393    3441       6    3393    3441    3444       6
    3390    3384    3393      42    3387    3384    3390      43    3387    3384
    3393      42    3384    3393    3396      44    3381    3384    3387      50
    3381    3384    3390      50    3543    3540    3546       3    3540    3546
    3549       5    3537    3534    3540       6    3537    3534    3552       7
    3534    3540    3543       6    3519    3516    3522      10    3513    3516
    3519      12    3513    3516    3522      12    3510    3507    3513      84
    3504    3501    3507      87    3501    3507    3510      89    3498    3501
    3504      91    3495    3492    3498      34    3495    3492    3540      35
    3492    3540    3543       6    3489    3492    3495      39    3486    3483
    3489       7    3486    3483    3534       6    3483    3534    3537       6
    3480    3474    3483      42    3477    3474    3480      43    3477    3474
    3483      42    3474    3483    3486      44    3471    3474    3477      50
    3471    3474    3480      50    3633    3630    3636       3    3630    3636
    3639       5    3627    3624    3630       6    3627    3624    3642       7
    3624    3630    3633       6    3615    3612    3618      19    3606    3612
    3615      19    3603    3600    3606      69    3597    3594    3600      72
    3594    3600    3603      74    3591    3594    3597      76    3588    3585
    3591      34    3588    3585    3630      35    3585    3630    3633       6
    3582    3585    3588      39    3579    3576    3582       7    3579    3576
    3624       6    3576    3624    3627       6    3573    3567    3576      42
    3570    3567    3573      43    3570    3567    3576      42    3567    3576
    3579      44    3564    3567    3570      50    3564    3567    3573      50
    3732    3729    3735       3    3729    3735    3738       5    3726    3723
    3729       6    3726    3723    3741       7    3723    3729    3732       6
    3714    3711    3717      54    3708    3711    3714      54    3702    3699
    3705      10    3696    3699    3702      12    3696    3699    3705      12
    3687    3684    3690      62    3681    3684    3687      65    3678    3675
    3681      34    3678    3675    3729      35    3675    3729    3732       6
    3672    3675    3678      39    3669    3666    3672       7    3669    3666
    3723       6    3666    3723    3726       6    3663    3657    3666      42
    3660    3657    3663      43    3660    3657    3666      42    3657    3666
    3669      44    3654    3657    3660      50    3654    3657    3663      50
    3825    3822    3828       3    3822    3828    3831       5    3819    3816
    3822       6    3819    3816    3834       7    3816    3822    3825       6
    3801    3798    3804      10    3795    3798    3801      12    3795    3798
    3804      12    3792    3789    3795      84    3786    3783    3789      87
    3783    3789    3792      89    3780    3783    3786      91    3777    3774
    3780      34    3777    3774    3822      35    3774    3822    3825       6
    3771    3774    3777      39    3768    3765    3771       7    3768    3765
    3816       6    3765    3816    3819       6    3762    3756    3765      42
    3759    3756    3762      43    3759    3756    3765      42    3756    3765
    3768      44    3753    3756    3759      50    3753    3756    3762      50
    3918    3915    3921       3    3915    3921    3924       5    3912    3909
    3915       6    3912    3909    3927       7    3909    3915    3918       6
    3894    3891    3897      10    3888    3891    3894      12    3888    3891
    3897      12    3885    3882    3888      84    3879    3876    3882      87
    3876    3882    3885      89    3873    3876    3879      91    3870    3867
    3873      34    3870    3867    3915      35    3867    3915    3918       6
    3864    3867    3870      39    3861    3858    3864       7    3861    3858
    3909       6    3858    3909    3912       6    3855    3849    3858      42
    3852    3849    3855      43    3852    3849    3858      42    3849    3858
    3861      44    3846    3849    3852      50    3846    3849    3855      50
    4020    4017    4023       3    4017    4023    4026       5    4014    4011
    4017       6    4014    4011    4029       7    4011    4017    4020       6
    3999    3996    4002      10    3993    3996    3999      12    3993    3996
    4002      12    3990    3987    3993      14    3981    3987    3990      19
    3972    3969    3975      26    3966    3969    3972      30    3963    3960
    3966      34    3963    3960    4017      35    3960    4017    4020       6
    3957    3960    3963      39    3954    3951    3957       7    3954    3951
    4011       6    3951    4011    4014       6    3948    3942    3951      42
    3945    3942    3948      43    3945    3942    3951      42    3942    3951
    3954      44    3939    3942    3945      50    3939    3942    3948      50
    4122    4119    4125       3    4119    4125    4128       5    4116    4113
    4119       6    4116    4113    4131       7    4113    4119    4122       6
    4101    4098    4104      10    4095    4098    4101      12    4095    4098
    4104      12    4092    4089    4095      14    4083    4089    4092      19
    4074    4071    4077      26    4068    4071    4074      30    4065    4062
    4068      34    4065    4062    4119      35    4062    4119    4122       6
    4059    4062    4065      39    4056    4053    4059       7    4056    4053
    4113       6    4053    4113    4116       6    4050    4044    4053      42
    4047    4044    4050      43    4047    4044    4053      42    4044    4053
    4056      44    4041    4044    4047      50    4041    4044    4050      50
    4224    4221    4227       3    4221    4227    4230       5    4218    4215
    4221       6    4218    4215    4233       7    4215    4221    4224       6
    4203    4200    4206      10    4197    4200    4203      12    4197    4200
    4206      12    4194    4191    4197      14    4185    4191    4194      19
    4176    4173    4179      26    4170    4173    4176      30    4167    4164
    4170      34    4167    4164    4221      35    4164    4221    4224       6
    4161    4164    4167      39    4158    4155    4161       7    4158    4155
    4215       6    4155    4215    4218       6    4152    4146    4155      42
    4149    4146    4152      43    4149    4146    4155      42    4146    4155
    4158      44    4143    4146    4149      50    4143    4146    4152      50
    4317    4314    4320       3    4314    4320    4323       5    4311    4308
    4314       6    4311    4308    4326       7    4308    4314    4317       6
    4293    4290    4296      10    4287    4290    4293      12    4287    4290
    4296      12    4284    4281    4287      84    4278    4275    4281      87
    4275    4281    4284      89    4272    4275    4278      91    4269    4266
    4272      34    4269    4266    4314      35    4266    4314    4317       6
    4263    4266    4269      39    4260    4257    4263       7    4260    4257
    4308       6    4257    4308    4311       6    4254    4248    4257      42
    4251    4248    4254      43    4251    4248    4257      42    4248    4257
    4260      44    4245    4248    4251      50    4245    4248    4254      50
    4416    4413    4419       3    4413    4419    4422       5    4410    4407
    4413       6    4410    4407    4425       7    4407    4413    4416       6
    4398    4395    4401      54    4392    4395    4398      54    4386    4383
    4389      10    4380    4383    4386      12    4380    4383    4389      12
    4371    4368    4374      62    4365    4368    4371      65    4362    4359
    4365      34    4362    4359    4413      35    4359    4413    4416       6
    4356    4359    4362      39    4353    4350    4356       7    4353    4350
    4407       6    4350    4407    4410       6    4347    4341    4350      42
    4344    4341    4347      43    4344    4341    4350      42    4341    4350
    4353      44    4338    4341    4344      50    4338    4341    4347      50
    4509    4506    4512       3    4506    4512    4515       5    4503    4500
    4506       6    4503    4500    4518       7    4500    4506    4509       6
    4485    4482    4488      10    4479    4482    4485      12    4479    4482
    4488      12    4476    4473    4479      84    4470    4467    4473      87
    4467    4473    4476      89    4464    4467    4470      91    4461    4458
    4464      34    4461    4458    4506      35    4458    4506    4509       6
    4455    4458    4461      39    4452    4449    4455       7    4452    4449
    4500       6    4449    4500    4503       6    4446    4440    4449      42
    4443    4440    4446      43    4443    4440    4449      42    4440    4449
    4452      44    4437    4440    4443      50    4437    4440    4446      50
    4602    4599    4605       3    4599    4605    4608       5    4596    4593
    4599       6    4596    4593    4611       7    4593    4599    4602       6
    4578    4575    4581      10    4572    4575    4578      12    4572    4575
    4581      12    4569    4566    4572      84    4563    4560    4566      87
    4560    4566    4569      89    4557    4560    4563      91    4554    4551
    4557      34    4554    4551    4599      35    4551    4599    4602       6
    4548    4551    4554      39    4545    4542    4548       7    4545    4542
    4593       6    4542    4593    4596       6    4539    4533    4542      42
    4536    4533    4539      43    4536    4533    4542      42    4533    4542
    4545      44    4530    4533    4536      50    4530    4533    4539      50
    4704    4701    4707       3    4701    4707    4710       5    4698    4695
    4701       6    4698    4695    4713       7    4695    4701    4704       6
    4683    4680    4686      10    4677    4680    4683      12    4677    4680
    4686      12    4674    4671    4677      14    4665    4671    4674      19
    4656    4653    4659      26    4650    4653    4656      30    4647    4644
    4650      34    4647    4644    4701      35    4644    4701    4704       6
    4641    4644    4647      39    4638    4635    4641       7    4638    4635
    4695       6    4635    4695    4698       6    4632    4626    4635      42
    4629    4626    4632      43    4629    4626    4635      42    4626    4635
    4638      44    4623    4626    4629      50    4623    4626    4632      50
    4794    4791    4797       3    4791    4797    4800       5    4788    4785
    4791       6    4788    4785    4803       7    4785    4791    4794       6
    4776    4773    4779      19    4767    4773    4776      19    4764    4761
    4767      69    4758    4755    4761      72    4755    4761    4764      74
    4752    4755    4758      76    4749    4746    4752      34    4749    4746
    4791      35    4746    4791    4794       6    4743    4746    4749      39
    4740    4737    4743       7    4740    4737    4785       6    4737    4785
    4788       6    4734    4728    4737      42    4731    4728    4734      43
    4731    4728    4737      42    4728    4737    4740      44    4725    4728
    4731      50    4725    4728    4734      50    4893    4890    4896       3
    4890    4896    4899       5    4887    4884    4890       6    4887    4884
    4902       7    4884    4890    4893       6    4875    4872    4878      54
    4869    4872    4875      54    4863    4860    4866      10    4857    4860
    4863      12    4857    4860    4866      12    4848    4845    4851      62
    4842    4845    4848      65    4839    4836    4842      34    4839    4836
    4890      35    4836    4890    4893       6    4833    4836    4839      39
    4830    4827    4833       7    4830    4827    4884       6    4827    4884
    4887       6    4824    4818    4827      42    4821    4818    4824      43
    4821    4818    4827      42    4818    4827    4830      44    4815    4818
    4821      50    4815    4818    4824      50    4992    4989    4995       3
    4989    4995    4998       5    4986    4983    4989       6    4986    4983
    5001       7    4983    4989    4992       6    4974    4971    4977      54
    4968    4971    4974      54    4962    4959    4965      10    4956    4959
    4962      12    4956    4959    4965      12    4947    4944    4950      62
    4941    4944    4947      65    4938    4935    4941      34    4938    4935
    4989      35    4935    4989    4992       6    4932    4935    4938      39
    4929    4926    4932       7    4929    4926    4983       6    4926    4983
    4986       6    4923    4917    4926      42    4920    4917    4923      43
    4920    4917    4926      42    4917    4926    4929      44    4914    4917
    4920      50    4914    4917    4923      50    5091    5088    5094       3
    5088    5094    5097       5    5085    5082    5088       6    5085    5082
    5100       7    5082    5088    5091       6    5073    5070    5076      54
    5067    5070    5073      54    5061    5058    5064      10    5055    5058
    5061      12    5055    5058    5064      12    5046    5043    5049      62
    5040    5043    5046      65    5037    5034    5040      34    5037    5034
    5088      35    5034    5088    5091       6    5031    5034    5037      39
    5028    5025    5031       7    5028    5025    5082       6    5025    5082
    5085       6    5022    5016    5025      42    5019    5016    5022      43
    5019    5016    5025      42    5016    5025    5028      44    5013    5016
    5019      50    5013    5016    5022      50    5181    5178    5184       3
    5178    5184    5187       5    5175    5172    5178       6    5175    5172
    5190       7    5172    5178    5181       6    5163    5160    5166      19
    5154    5160    5163      19    5151    5148    5154      69    5145    5142
    5148      72    5142    5148    5151      74    5139    5142    5145      76
    5136    5133    5139      34    5136    5133    5178      35    5133    5178
    5181       6    5130    5133    5136      39    5127    5124    5130       7
    5127    5124    5172       6    5124    5172    5175       6    5121    5115
    5124      42    5118    5115    5121      43    5118    5115    5124      42
    5115    5124    5127      44    5112    5115    5118      50    5112    5115
    5121      50    5283    5280    5286       3    5280    5286    5289       5
    5277    5274    5280       6    5277    5274    5292       7    5274    5280
    5283       6    5262    5259    5265      10    5256    5259    5262      12
    5256    5259    5265      12    5253    5250    5256      14    5244    5250
    5253      19    5235    5232    5238      26    5229    5232    5235      30
    5226    5223    5229      34    5226    5223    5280      35    5223    5280
    5283       6    5220    5223    5226      39    5217    5214    5220       7
    5217    5214    5274       6    5214    5274    5277       6    5211    5205
    5214      42    5208    5205    5211      43    5208    5205    5214      42
    5205    5214    5217      44    5202    5205    5208      50    5202    5205
    5211      50    5373    5370    5376       3    5370    5376    5379       5
    5367    5364    5370       6    5367    5364    5382       7    5364    5370
    5373       6    5355    5352    5358      19    5346    5352    5355      19
    5343    5340    5346      69    5337    5334    5340      72    5334    5340
    5343      74    5331    5334    5337      76    5328    5325    5331      34
    5328    5325    5370      35    5325    5370    5373       6    5322    5325
    5328      39    5319    5316    5322       7    5319    5316    5364       6
    5316    5364    5367       6    5313    5307    5316      42    5310    5307
    5313      43    5310    5307    5316      42    5307    5316    5319      44
    5304    5307    5310      50    5304    5307    5313      50    5466    5463
    5469       3    5463    5469    5472       5    5460    5457    5463       6
    5460    5457    5475       7    5457    5463    5466       6    5442    5439
    5445      10    5436    5439    5442      12    5436    5439    5445      12
    5433    5430    5436      84    5427    5424    5430      87    5424    5430
    5433      89    5421    5424    5427      91    5418    5415    5421      34
    5418    5415    5463      35    5415    5463    5466       6    5412    5415
    5418      39    5409    5406    5412       7    5409    5406    5457       6
    5406    5457    5460       6    5403    5397    5406      42    5400    5397
    5403      43    5400    5397    5406      42    5397    5406    5409      44
    5394    5397    5400      50    5394    5397    5403      50    5559    5556
    5562       3    5556    5562    5565       5    5553    5550    5556       6
    5553    5550    5568       7    5550    5556    5559       6    5535    5532
    5538      10    5529    5532    5535      12    5529    5532    5538      12
    5526    5523    5529      84    5520    5517    5523      87    5517    5523
    5526      89    5514    5517    5520      91    5511    5508    5514      34
    5511    5508    5556      35    5508    5556    5559       6    5505    5508
    5511      39    5502    5499    5505       7    5502    5499    5550       6
    5499    5550    5553       6    5496    5490    5499      42    5493    5490
    5496      43    5493    5490    5499      42    5490    5499    5502      44
    5487    5490    5493      50    5487    5490    5496      50    5661    5658
    5664       3    5658    5664    5667       5    5655    5652    5658       6
    5655    5652    5670       7    5652    5658    5661       6    5640    5637
    5643      10    5634    5637    5640      12    5634    5637    5643      12
    5631    5628    5634      14    5622    5628    5631      19    5613    5610
    5616      26    5607    5610    5613      30    5604    5601    5607      34
    5604    5601    5658      35    5601    5658    5661       6    5598    5601
    5604      39    5595    5592    5598       7    5595    5592    5652       6
    5592    5652    5655       6    5589    5583    5592      42    5586    5583
    5589      43    5586    5583    5592      42    5583    5592    5595      44
    5580    5583    5586      50    5580    5583    5589      50    5760    5757
    5763       3    5757    5763    5766       5    5754    5751    5757       6
    5754    5751    5769       7    5751    5757    5760       6    5742    5739
    5745      54    5736    5739    5742      54    5730    5727    5733      10
    5724    5727    5730      12    5724    5727    5733      12    5715    5712
    5718      62    5709    5712    5715      65    5706    5703    5709      34
    5706    5703    5757      35    5703    5757    5760       6    5700    5703
    5706      39    5697    5694    5700       7    5697    5694    5751       6
    5694    5751    5754       6    5691    5685    5694      42    5688    5685
    5691      43    5688    5685    5694      42    5685    5694    5697      44
    5682    5685    5688      50    5682    5685    5691      50    5853    5850
    5856       3    5850    5856    5859       5    5847    5844    5850       6
    5847    5844    5862       7    5844    5850    5853       6    5829    5826
    5832      10    5823    5826    5829      12    5823    5826    5832      12
    5820    5817    5823      84    5814    5811    5817      87    5811    5817
    5820      89    5808    5811    5814      91    5805    5802    5808      34
    5805    5802    5850      35    5802    5850    5853       6    5799    5802
    5805      39    5796    5793    5799       7    5796    5793    5844       6
    5793    5844    5847       6    5790    5784    5793      42    5787    5784
    5790      43    5787    5784    5793      42    5784    5793    5796      44
    5781    5784    5787      50    5781    5784    5790      50    5943    5940
    5946       3    5940    5946    5949       5    5937    5934    5940       6
    5937    5934    5952       7    5934    5940    5943       6    5925    5922
    5928      19    5916    5922    5925      19    5913    5910    5916      69
    5907    5904    5910      72    5904    5910    5913      74    5901    5904
    5907      76    5898    5895    5901      34    5898    5895    5940      35
    5895    5940    5943       6    5892    5895    5898      39    5889    5886
    5892       7    5889    5886    5934       6    5886    5934    5937       6
    5883    5877    5886      42    5880    5877    5883      43    5880    5877
    5886      42    5877    5886    5889      44    5874    5877    5880      50
    5874    5877    5883      50    6042    6039    6045       3    6039    6045
    6048       5    6036    6033    6039       6    6036    6033    6051       7
    6033    6039    6042       6    6024    6021    6027      54    6018    6021
    6024      54    6012    6009    6015      10    6006    6009    6012      12
    6006    6009    6015      12    5997    5994    6000      62    5991    5994
    5997      65    5988    5985    5991      34    5988    5985    6039      35
    5985    6039    6042       6    5982    5985    5988      39    5979    5976
    5982       7    5979    5976    6033       6    5976    6033    6036       6
    5973    5967    5976      42    5970    5967    5973      43    5970    5967
    5976      42    5967    5976    5979      44    5964    5967    5970      50
    5964    5967    5973      50    6132    6129    6135       3    6129    6135
    6138       5    6126    6123    6129       6    6126    6123    6141       7
    6123    6129    6132       6    6114    6111    6117      19    6105    6111
    6114      19    6102    6099    6105      69    6096    6093    6099      72
    6093    6099    6102      74    6090    6093    6096      76    6087    6084
    6090      34    6087    6084    6129      35    6084    6129    6132       6
    6081    6084    6087      39    6078    6075    6081       7    6078    6075
    6123       6    6075    6123    6126       6    6072    6066    6075      42
    6069    6066    6072      43    6069    6066    6075      42    6066    6075
    6078      44    6063    6066    6069      50    6063    6066    6072      50
    6234    6231    6237       3    6231    6237    6240       5    6228    6225
    6231       6    6228    6225    6243       7    6225    6231    6234       6
    6213    6210    6216      10    6207    6210    6213      12    6207    6210
    6216      12    6204    6201    6207      14    6195    6201    6204      19
    6186    6183    6189      26    6180    6183    6186      30    6177    6174
    6180      34    6177    6174    6231      35    6174    6231    6234       6
    6171    6174    6177      39    6168    6165    6171       7    6168    6165
    6225       6    6165    6225    6228       6    6162    6156    6165      42
    6159    6156    6162      43    6159    6156    6165      42    6156    6165
    6168      44    6153    6156    6159      50    6153    6156    6162      50
    6336    6333    6339       3    6333    6339    6342       5    6330    6327
    6333       6    6330    6327    6345       7    6327    6333    6336       6
    6315    6312    6318      10    6309    6312    6315      12    6309    6312
    6318      12    6306    6303    6309      14    6297    6303    6306      19
    6288    6285    6291      26    6282    6285    6288      30    6279    6276
    6282      34    6279    6276    6333      35    6276    6333    6336       6
    6273    6276    6279      39    6270    6267    6273       7    6270    6267
    6327       6    6267    6327    6330       6    6264    6258    6267      42
    6261    6258    6264      43    6261    6258    6267      42    6258    6267
    6270      44    6255    6258    6261      50    6255    6258    6264      50
    6426    6423    6429       3    6423    6429    6432       5    6420    6417
    6423       6    6420    6417    6435       7    6417    6423    6426       6
    6408    6405    6411      19    6399    6405    6408      19    6396    6393
    6399      69    6390    6387    6393      72    6387    6393    6396      74
    6384    6387    6390      76    6381    6378    6384      34    6381    6378
    6423      35    6378    6423    6426       6    6375    6378    6381      39
    6372    6369    6375       7    6372    6369    6417       6    6369    6417
    6420       6    6366    6360    6369      42    6363    6360    6366      43
    6363    6360    6369      42    6360    6369    6372      44    6357    6360
    6363      50    6357    6360    6366      50    6519    6516    6522       3
    6516    6522    6525       5    6513    6510    6516       6    6513    6510
    6528       3    6510    6516    6519       6    6510    6528    6531       5
    6495    6492    6498      10    6489    6492    6495      12    6489    6492
    6498      12    6486    6483    6489      84    6480    6477    6483      87
    6477    6483    6486      89    6474    6477    6480      91    6471    6468
    6474      34    6471    6468    6516      35    6468    6516    6519       6
    6465    6468    6471      39    6462    6459    6465       7    6462    6459
    6510       6    6459    6510    6513       6    6456    6450    6459      42
    6453    6450    6456      43    6453    6450    6459      42    6450    6459
    6462      44    6447    6450    6453      50    6447    6450    6456      50
    6990    6945    6993      95    6981    6978    7011      96    6978    6981
    7014      97    6975    6978    7011      99    6969    6981    7014      97
    6963    6960    7005     106    6960    6957    7002     106    6960    6963
    7008     106    6957    6954    6999     106    6957    6960    7005     106
    6954    6951    6996     106    6954    6957    7002     106    6951    6954
    6999     106    6948    6945    6990     108    6948    6945    6993     108
    6948    6951    6996     106    6948    6963    7008     106    6942    6939
    6987     110    6942    6945    6990     112    6942    6945    6993     112
    6936    6933    6984     115    6936    6939    6987     117    6930    6933
    6984     123
%FLAG ANGLES_WITHOUT_HYDROGEN                                                   
%FORMAT(10I8)                                                                   
      93      96      99       1      93      96     102       1      93      96
     105       2      81      75      93       4      75      81      87       8
      75      93      96       9      60      57      69      11      57      69
      72      13      51      57      60      15      51      57      69      16
      48      45      51      17      45      42      72      18      45      51
      57      20      42      45      48      21      42      45      51      22
      42      72      69      23      39      42      45      24      39      42
      72      25      33      30      72      27      33      39      42      28
      30      24      81      29      30      33      39      31      30      72
      42      32      30      72      69      33      24      30      33      36
      24      30      72      37      24      81      75      38      24      81
      87       8      21      15      75       4      21      24      30      40
      21      24      81       4      15      21      24      41      15      75
      81      38      15      75      93       4       6      15      21      45
       6      15      75      46       3       6      15      48     195     198
     201       1     195     198     204       1     195     198     207       2
     183     177     195       4     177     183     189       8     177     195
     198       9     162     159     171      11     159     171     174      13
     153     159     162      15     153     159     171      16     150     147
     153      17     147     144     174      18     147     153     159      20
     144     147     150      21     144     147     153      22     144     174
     171      23     141     144     147      24     141     144     174      25
     135     132     174      27     135     141     144      28     132     126
     183      29     132     135     141      31     132     174     144      32
     132     174     171      33     126     132     135      36     126     132
     174      37     126     183     177      38     126     183     189       8
     123     117     177       4     123     126     132      40     123     126
     183       4     117     123     126      41     117     177     183      38
     117     177     195       4     108     117     123      45     108     117
     177      46     105     108     117      51     102      96     105       1
      99      96     102      52      99      96     105       1      96     105
     108      53     294     297     300       1     294     297     303       1
     294     297     306       2     282     276     294       4     276     282
     288       8     276     294     297       9     264     270     273      55
     261     264     270      56     252     249     261      11     249     246
     273      57     249     261     264      58     246     249     252      59
     246     249     261      60     246     273     270      23     243     246
     249      61     243     246     273      25     237     234     273      63
     237     243     246      64     234     228     282      29     234     237
     243      66     234     273     246      32     234     273     270      33
     228     234     237      67     228     234     273      37     228     282
     276      38     228     282     288       8     225     219     276       4
     225     228     234      40     225     228     282       4     219     225
     228      41     219     276     282      38     219     276     294       4
     210     219     225      45     210     219     276      46     207     210
     219      51     204     198     207       1     201     198     204      52
     201     198     207       1     198     207     210      53     384     387
     390       1     384     387     393       1     384     387     396       2
     372     366     384       4     366     372     378       8     366     384
     387       9     354     360     363      17     351     348     354      17
     348     354     360      68     342     348     351      70     342     348
     354      71     336     333     360      73     336     342     348      75
     333     327     372      29     333     336     342      77     333     360
     354      78     333     360     363      79     327     333     336      80
     327     333     360      81     327     372     366      38     327     372
     378       8     324     318     366       4     324     327     333      40
     324     327     372       4     318     324     327      41     318     366
     372      38     318     366     384       4     309     318     324      45
     309     318     366      46     306     309     318      51     303     297
     306       1     300     297     303      52     300     297     306       1
     297     306     309      53     477     480     483       1     477     480
     486       1     477     480     489       2     465     459     477       4
     459     465     471       8     459     477     480       9     450     453
     456      82     441     438     450      11     438     450     453      83
     432     438     441      85     432     438     450      86     426     423
     453      88     426     432     438      90     423     417     465      29
     423     426     432      92     423     453     450      93     423     453
     456      79     417     423     426      94     417     423     453      81
     417     465     459      38     417     465     471       8     414     408
     459       4     414     417     423      40     414     417     465       4
     408     414     417      41     408     459     465      38     408     459
     477       4     399     408     414      45     399     408     459      46
     396     399     408      51     393     387     396       1     390     387
     393      52     390     387     396       1     387     396     399      53
     576     579     582       1     576     579     585       1     576     579
     588       2     564     558     576       4     558     564     570       8
     558     576     579       9     546     552     555      55     543     546
     552      56     534     531     543      11     531     528     555      57
     531     543     546      58     528     531     534      59     528     531
     543      60     528     555     552      23     525     528     531      61
     525     528     555      25     519     516     555      63     519     525
     528      64     516     510     564      29     516     519     525      66
     516     555     528      32     516     555     552      33     510     516
     519      67     510     516     555      37     510     564     558      38
     510     564     570       8     507     501     558       4     507     510
     516      40     507     510     564       4     501     507     510      41
     501     558     564      38     501     558     576       4     492     501
     507      45     492     501     558      46     489     492     501      51
     486     480     489       1     483     480     486      52     483     480
     489       1     480     489     492      53     666     669     672       1
     666     669     675       1     666     669     678       2     654     648
     666       4     648     654     660       8     648     666     669       9
     636     642     645      17     633     630     636      17     630     636
     642      68     624     630     633      70     624     630     636      71
     618     615     642      73     618     624     630      75     615     609
     654      29     615     618     624      77     615     642     636      78
     615     642     645      79     609     615     618      80     609     615
     642      81     609     654     648      38     609     654     660       8
     606     600     648       4     606     609     615      40     606     609
     654       4     600     606     609      41     600     648     654      38
     600     648     666       4     591     600     606      45     591     600
     648      46     588     591     600      51     585     579     588       1
     582     579     585      52     582     579     588       1     579     588
     591      53     765     768     771       1     765     768     774       1
     765     768     777       2     753     747     765       4     747     753
     759       8     747     765     768       9     735     741     744      55
     732     735     741      56     723     720     732      11     720     717
     744      57     720     732     735      58     717     720     723      59
     717     720     732      60     717     744     741      23     714     717
     720      61     714     717     744      25     708     705     744      63
     708     714     717      64     705     699     753      29     705     708
     714      66     705     744     717      32     705     744     741      33
     699     705     708      67     699     705     744      37     699     753
     747      38     699     753     759       8     696     690     747       4
     696     699     705      40     696     699     753       4     690     696
     699      41     690     747     753      38     690     747     765       4
     681     690     696      45     681     690     747      46     678     681
     690      51     675     669     678       1     672     669     675      52
     672     669     678       1     669     678     681      53     855     858
     861       1     855     858     864       1     855     858     867       2
     843     837     855       4     837     843     849       8     837     855
     858       9     825     831     834      17     822     819     825      17
     819     825     831      68     813     819     822      70     813     819
     825      71     807     804     831      73     807     813     819      75
     804     798     843      29     804     807     813      77     804     831
     825      78     804     831     834      79     798     804     807      80
     798     804     831      81     798     843     837      38     798     843
     849       8     795     789     837       4     795     798     804      40
     795     798     843       4     789     795     798      41     789     837
     843      38     789     837     855       4     780     789     795      45
     780     789     837      46     777     780     789      51     774     768
     777       1     771     768     774      52     771     768     777       1
     768     777     780      53     954     957     960       1     954     957
     963       1     954     957     966       2     942     936     954       4
     936     942     948       8     936     954     957       9     924     930
     933      55     921     924     930      56     912     909     921      11
     909     906     933      57     909     921     924      58     906     909
     912      59     906     909     921      60     906     933     930      23
     903     906     909      61     903     906     933      25     897     894
     933      63     897     903     906      64     894     888     942      29
     894     897     903      66     894     933     906      32     894     933
     930      33     888     894     897      67     888     894     933      37
     888     942     936      38     888     942     948       8     885     879
     936       4     885     888     894      40     885     888     942       4
     879     885     888      41     879     936     942      38     879     936
     954       4     870     879     885      45     870     879     936      46
     867     870     879      51     864     858     867       1     861     858
     864      52     861     858     867       1     858     867     870      53
    1053    1056    1059       1    1053    1056    1062       1    1053    1056
    1065       2    1041    1035    1053       4    1035    1041    1047       8
    1035    1053    1056       9    1023    1029    1032      55    1020    1023
    1029      56    1011    1008    1020      11    1008    1005    1032      57
    1008    1020    1023      58    1005    1008    1011      59    1005    1008
    1020      60    1005    1032    1029      23    1002    1005    1008      61
    1002    1005    1032      25     996     993    1032      63     996    1002
    1005      64     993     987    1041      29     993     996    1002      66
     993    1032    1005      32     993    1032    1029      33     987     993
     996      67     987     993    1032      37     987    1041    1035      38
     987    1041    1047       8     984     978    1035       4     984     987
     993      40     984     987    1041       4     978     984     987      41
     978    1035    1041      38     978    1035    1053       4     969     978
     984      45     969     978    1035      46     966     969     978      51
     963     957     966       1     960     957     963      52     960     957
     966       1     957     966     969      53    1143    1146    1149       1
    1143    1146    1152       1    1143    1146    1155       2    1131    1125
    1143       4    1125    1131    1137       8    1125    1143    1146       9
    1113    1119    1122      17    1110    1107    1113      17    1107    1113
    1119      68    1101    1107    1110      70    1101    1107    1113      71
    1095    1092    1119      73    1095    1101    1107      75    1092    1086
    1131      29    1092    1095    1101      77    1092    1119    1113      78
    1092    1119    1122      79    1086    1092    1095      80    1086    1092
    1119      81    1086    1131    1125      38    1086    1131    1137       8
    1083    1077    1125       4    1083    1086    1092      40    1083    1086
    1131       4    1077    1083    1086      41    1077    1125    1131      38
    1077    1125    1143       4    1068    1077    1083      45    1068    1077
    1125      46    1065    1068    1077      51    1062    1056    1065       1
    1059    1056    1062      52    1059    1056    1065       1    1056    1065
    1068      53    1236    1239    1242       1    1236    1239    1245       1
    1236    1239    1248       2    1224    1218    1236       4    1218    1224
    1230       8    1218    1236    1239       9    1209    1212    1215      82
    1200    1197    1209      11    1197    1209    1212      83    1191    1197
    1200      85    1191    1197    1209      86    1185    1182    1212      88
    1185    1191    1197      90    1182    1176    1224      29    1182    1185
    1191      92    1182    1212    1209      93    1182    1212    1215      79
    1176    1182    1185      94    1176    1182    1212      81    1176    1224
    1218      38    1176    1224    1230       8    1173    1167    1218       4
    1173    1176    1182      40    1173    1176    1224       4    1167    1173
    1176      41    1167    1218    1224      38    1167    1218    1236       4
    1158    1167    1173      45    1158    1167    1218      46    1155    1158
    1167      51    1152    1146    1155       1    1149    1146    1152      52
    1149    1146    1155       1    1146    1155    1158      53    1338    1341
    1344       1    1338    1341    1347       1    1338    1341    1350       2
    1326    1320    1338       4    1320    1326    1332       8    1320    1338
    1341       9    1305    1302    1314      11    1302    1314    1317      13
    1296    1302    1305      15    1296    1302    1314      16    1293    1290
    1296      17    1290    1287    1317      18    1290    1296    1302      20
    1287    1290    1293      21    1287    1290    1296      22    1287    1317
    1314      23    1284    1287    1290      24    1284    1287    1317      25
    1278    1275    1317      27    1278    1284    1287      28    1275    1269
    1326      29    1275    1278    1284      31    1275    1317    1287      32
    1275    1317    1314      33    1269    1275    1278      36    1269    1275
    1317      37    1269    1326    1320      38    1269    1326    1332       8
    1266    1260    1320       4    1266    1269    1275      40    1266    1269
    1326       4    1260    1266    1269      41    1260    1320    1326      38
    1260    1320    1338       4    1251    1260    1266      45    1251    1260
    1320      46    1248    1251    1260      51    1245    1239    1248       1
    1242    1239    1245      52    1242    1239    1248       1    1239    1248
    1251      53    1431    1434    1437       1    1431    1434    1440       1
    1431    1434    1443       2    1419    1413    1431       4    1413    1419
    1425       8    1413    1431    1434       9    1404    1407    1410      82
    1395    1392    1404      11    1392    1404    1407      83    1386    1392
    1395      85    1386    1392    1404      86    1380    1377    1407      88
    1380    1386    1392      90    1377    1371    1419      29    1377    1380
    1386      92    1377    1407    1404      93    1377    1407    1410      79
    1371    1377    1380      94    1371    1377    1407      81    1371    1419
    1413      38    1371    1419    1425       8    1368    1362    1413       4
    1368    1371    1377      40    1368    1371    1419       4    1362    1368
    1371      41    1362    1413    1419      38    1362    1413    1431       4
    1353    1362    1368      45    1353    1362    1413      46    1350    1353
    1362      51    1347    1341    1350       1    1344    1341    1347      52
    1344    1341    1350       1    1341    1350    1353      53    1533    1536
    1539       1    1533    1536    1542       1    1533    1536    1545       2
    1521    1515    1533       4    1515    1521    1527       8    1515    1533
    1536       9    1500    1497    1509      11    1497    1509    1512      13
    1491    1497    1500      15    1491    1497    1509      16    1488    1485
    1491      17    1485    1482    1512      18    1485    1491    1497      20
    1482    1485    1488      21    1482    1485    1491      22    1482    1512
    1509      23    1479    1482    1485      24    1479    1482    1512      25
    1473    1470    1512      27    1473    1479    1482      28    1470    1464
    1521      29    1470    1473    1479      31    1470    1512    1482      32
    1470    1512    1509      33    1464    1470    1473      36    1464    1470
    1512      37    1464    1521    1515      38    1464    1521    1527       8
    1461    1455    1515       4    1461    1464    1470      40    1461    1464
    1521       4    1455    1461    1464      41    1455    1515    1521      38
    1455    1515    1533       4    1446    1455    1461      45    1446    1455
    1515      46    1443    1446    1455      51    1440    1434    1443       1
    1437    1434    1440      52    1437    1434    1443       1    1434    1443
    1446      53    1623    1626    1629       1    1623    1626    1632       1
    1623    1626    1635       2    1611    1605    1623       4    1605    1611
    1617       8    1605    1623    1626       9    1593    1599    1602      17
    1590    1587    1593      17    1587    1593    1599      68    1581    1587
    1590      70    1581    1587    1593      71    1575    1572    1599      73
    1575    1581    1587      75    1572    1566    1611      29    1572    1575
    1581      77    1572    1599    1593      78    1572    1599    1602      79
    1566    1572    1575      80    1566    1572    1599      81    1566    1611
    1605      38    1566    1611    1617       8    1563    1557    1605       4
    1563    1566    1572      40    1563    1566    1611       4    1557    1563
    1566      41    1557    1605    1611      38    1557    1605    1623       4
    1548    1557    1563      45    1548    1557    1605      46    1545    1548
    1557      51    1542    1536    1545       1    1539    1536    1542      52
    1539    1536    1545       1    1536    1545    1548      53    1725    1728
    1731       1    1725    1728    1734       1    1725    1728    1737       2
    1713    1707    1725       4    1707    1713    1719       8    1707    1725
    1728       9    1692    1689    1701      11    1689    1701    1704      13
    1683    1689    1692      15    1683    1689    1701      16    1680    1677
    1683      17    1677    1674    1704      18    1677    1683    1689      20
    1674    1677    1680      21    1674    1677    1683      22    1674    1704
    1701      23    1671    1674    1677      24    1671    1674    1704      25
    1665    1662    1704      27    1665    1671    1674      28    1662    1656
    1713      29    1662    1665    1671      31    1662    1704    1674      32
    1662    1704    1701      33    1656    1662    1665      36    1656    1662
    1704      37    1656    1713    1707      38    1656    1713    1719       8
    1653    1647    1707       4    1653    1656    1662      40    1653    1656
    1713       4    1647    1653    1656      41    1647    1707    1713      38
    1647    1707    1725       4    1638    1647    1653      45    1638    1647
    1707      46    1635    1638    1647      51    1632    1626    1635       1
    1629    1626    1632      52    1629    1626    1635       1    1626    1635
    1638      53    1827    1830    1833       1    1827    1830    1836       1
    1827    1830    1839       2    1815    1809    1827       4    1809    1815
    1821       8    1809    1827    1830       9    1794    1791    1803      11
    1791    1803    1806      13    1785    1791    1794      15    1785    1791
    1803      16    1782    1779    1785      17    1779    1776    1806      18
    1779    1785    1791      20    1776    1779    1782      21    1776    1779
    1785      22    1776    1806    1803      23    1773    1776    1779      24
    1773    1776    1806      25    1767    1764    1806      27    1767    1773
    1776      28    1764    1758    1815      29    1764    1767    1773      31
    1764    1806    1776      32    1764    1806    1803      33    1758    1764
    1767      36    1758    1764    1806      37    1758    1815    1809      38
    1758    1815    1821       8    1755    1749    1809       4    1755    1758
    1764      40    1755    1758    1815       4    1749    1755    1758      41
    1749    1809    1815      38    1749    1809    1827       4    1740    1749
    1755      45    1740    1749    1809      46    1737    1740    1749      51
    1734    1728    1737       1    1731    1728    1734      52    1731    1728
    1737       1    1728    1737    1740      53    1926    1929    1932       1
    1926    1929    1935       1    1926    1929    1938       2    1914    1908
    1926       4    1908    1914    1920       8    1908    1926    1929       9
    1896    1902    1905      55    1893    1896    1902      56    1884    1881
    1893      11    1881    1878    1905      57    1881    1893    1896      58
    1878    1881    1884      59    1878    1881    1893      60    1878    1905
    1902      23    1875    1878    1881      61    1875    1878    1905      25
    1869    1866    1905      63    1869    1875    1878      64    1866    1860
    1914      29    1866    1869    1875      66    1866    1905    1878      32
    1866    1905    1902      33    1860    1866    1869      67    1860    1866
    1905      37    1860    1914    1908      38    1860    1914    1920       8
    1857    1851    1908       4    1857    1860    1866      40    1857    1860
    1914       4    1851    1857    1860      41    1851    1908    1914      38
    1851    1908    1926       4    1842    1851    1857      45    1842    1851
    1908      46    1839    1842    1851      51    1836    1830    1839       1
    1833    1830    1836      52    1833    1830    1839       1    1830    1839
    1842      53    2016    2019    2022       1    2016    2019    2025       1
    2016    2019    2028       2    2004    1998    2016       4    1998    2004
    2010       8    1998    2016    2019       9    1986    1992    1995      17
    1983    1980    1986      17    1980    1986    1992      68    1974    1980
    1983      70    1974    1980    1986      71    1968    1965    1992      73
    1968    1974    1980      75    1965    1959    2004      29    1965    1968
    1974      77    1965    1992    1986      78    1965    1992    1995      79
    1959    1965    1968      80    1959    1965    1992      81    1959    2004
    1998      38    1959    2004    2010       8    1956    1950    1998       4
    1956    1959    1965      40    1956    1959    2004       4    1950    1956
    1959      41    1950    1998    2004      38    1950    1998    2016       4
    1941    1950    1956      45    1941    1950    1998      46    1938    1941
    1950      51    1935    1929    1938       1    1932    1929    1935      52
    1932    1929    1938       1    1929    1938    1941      53    2115    2118
    2121       1    2115    2118    2124       1    2115    2118    2127       2
    2103    2097    2115       4    2097    2103    2109       8    2097    2115
    2118       9    2085    2091    2094      55    2082    2085    2091      56
    2073    2070    2082      11    2070    2067    2094      57    2070    2082
    2085      58    2067    2070    2073      59    2067    2070    2082      60
    2067    2094    2091      23    2064    2067    2070      61    2064    2067
    2094      25    2058    2055    2094      63    2058    2064    2067      64
    2055    2049    2103      29    2055    2058    2064      66    2055    2094
    2067      32    2055    2094    2091      33    2049    2055    2058      67
    2049    2055    2094      37    2049    2103    2097      38    2049    2103
    2109       8    2046    2040    2097       4    2046    2049    2055      40
    2046    2049    2103       4    2040    2046    2049      41    2040    2097
    2103      38    2040    2097    2115       4    2031    2040    2046      45
    2031    2040    2097      46    2028    2031    2040      51    2025    2019
    2028       1    2022    2019    2025      52    2022    2019    2028       1
    2019    2028    2031      53    2205    2208    2211       1    2205    2208
    2214       1    2205    2208    2217       2    2193    2187    2205       4
    2187    2193    2199       8    2187    2205    2208       9    2175    2181
    2184      17    2172    2169    2175      17    2169    2175    2181      68
    2163    2169    2172      70    2163    2169    2175      71    2157    2154
    2181      73    2157    2163    2169      75    2154    2148    2193      29
    2154    2157    2163      77    2154    2181    2175      78    2154    2181
    2184      79    2148    2154    2157      80    2148    2154    2181      81
    2148    2193    2187      38    2148    2193    2199       8    2145    2139
    2187       4    2145    2148    2154      40    2145    2148    2193       4
    2139    2145    2148      41    2139    2187    2193      38    2139    2187
    2205       4    2130    2139    2145      45    2130    2139    2187      46
    2127    2130    2139      51    2124    2118    2127       1    2121    2118
    2124      52    2121    2118    2127       1    2118    2127    2130      53
    2307    2310    2313       1    2307    2310    2316       1    2307    2310
    2319       2    2295    2289    2307       4    2289    2295    2301       8
    2289    2307    2310       9    2274    2271    2283      11    2271    2283
    2286      13    2265    2271    2274      15    2265    2271    2283      16
    2262    2259    2265      17    2259    2256    2286      18    2259    2265
    2271      20    2256    2259    2262      21    2256    2259    2265      22
    2256    2286    2283      23    2253    2256    2259      24    2253    2256
    2286      25    2247    2244    2286      27    2247    2253    2256      28
    2244    2238    2295      29    2244    2247    2253      31    2244    2286
    2256      32    2244    2286    2283      33    2238    2244    2247      36
    2238    2244    2286      37    2238    2295    2289      38    2238    2295
    2301       8    2235    2229    2289       4    2235    2238    2244      40
    2235    2238    2295       4    2229    2235    2238      41    2229    2289
    2295      38    2229    2289    2307       4    2220    2229    2235      45
    2220    2229    2289      46    2217    2220    2229      51    2214    2208
    2217       1    2211    2208    2214      52    2211    2208    2217       1
    2208    2217    2220      53    2409    2412    2415       1    2409    2412
    2418       1    2409    2412    2421       2    2397    2391    2409       4
    2391    2397    2403       8    2391    2409    2412       9    2376    2373
    2385      11    2373    2385    2388      13    2367    2373    2376      15
    2367    2373    2385      16    2364    2361    2367      17    2361    2358
    2388      18    2361    2367    2373      20    2358    2361    2364      21
    2358    2361    2367      22    2358    2388    2385      23    2355    2358
    2361      24    2355    2358    2388      25    2349    2346    2388      27
    2349    2355    2358      28    2346    2340    2397      29    2346    2349
    2355      31    2346    2388    2358      32    2346    2388    2385      33
    2340    2346    2349      36    2340    2346    2388      37    2340    2397
    2391      38    2340    2397    2403       8    2337    2331    2391       4
    2337    2340    2346      40    2337    2340    2397       4    2331    2337
    2340      41    2331    2391    2397      38    2331    2391    2409       4
    2322    2331    2337      45    2322    2331    2391      46    2319    2322
    2331      51    2316    2310    2319       1    2313    2310    2316      52
    2313    2310    2319       1    2310    2319    2322      53    2502    2505
    2508       1    2502    2505    2511       1    2502    2505    2514       2
    2490    2484    2502       4    2484    2490    2496       8    2484    2502
    2505       9    2475    2478    2481      82    2466    2463    2475      11
    2463    2475    2478      83    2457    2463    2466      85    2457    2463
    2475      86    2451    2448    2478      88    2451    2457    2463      90
    2448    2442    2490      29    2448    2451    2457      92    2448    2478
    2475      93    2448    2478    2481      79    2442    2448    2451      94
    2442    2448    2478      81    2442    2490    2484      38    2442    2490
    2496       8    2439    2433    2484       4    2439    2442    2448      40
    2439    2442    2490       4    2433    2439    2442      41    2433    2484
    2490      38    2433    2484    2502       4    2424    2433    2439      45
    2424    2433    2484      46    2421    2424    2433      51    2418    2412
    2421       1    2415    2412    2418      52    2415    2412    2421       1
    2412    2421    2424      53    2601    2604    2607       1    2601    2604
    2610       1    2601    2604    2613       2    2589    2583    2601       4
    2583    2589    2595       8    2583    2601    2604       9    2571    2577
    2580      55    2568    2571    2577      56    2559    2556    2568      11
    2556    2553    2580      57    2556    2568    2571      58    2553    2556
    2559      59    2553    2556    2568      60    2553    2580    2577      23
    2550    2553    2556      61    2550    2553    2580      25    2544    2541
    2580      63    2544    2550    2553      64    2541    2535    2589      29
    2541    2544    2550      66    2541    2580    2553      32    2541    2580
    2577      33    2535    2541    2544      67    2535    2541    2580      37
    2535    2589    2583      38    2535    2589    2595       8    2532    2526
    2583       4    2532    2535    2541      40    2532    2535    2589       4
    2526    2532    2535      41    2526    2583    2589      38    2526    2583
    2601       4    2517    2526    2532      45    2517    2526    2583      46
    2514    2517    2526      51    2511    2505    2514       1    2508    2505
    2511      52    2508    2505    2514       1    2505    2514    2517      53
    2694    2697    2700       1    2694    2697    2703       1    2694    2697
    2706       2    2682    2676    2694       4    2676    2682    2688       8
    2676    2694    2697       9    2667    2670    2673      82    2658    2655
    2667      11    2655    2667    2670      83    2649    2655    2658      85
    2649    2655    2667      86    2643    2640    2670      88    2643    2649
    2655      90    2640    2634    2682      29    2640    2643    2649      92
    2640    2670    2667      93    2640    2670    2673      79    2634    2640
    2643      94    2634    2640    2670      81    2634    2682    2676      38
    2634    2682    2688       8    2631    2625    2676       4    2631    2634
    2640      40    2631    2634    2682       4    2625    2631    2634      41
    2625    2676    2682      38    2625    2676    2694       4    2616    2625
    2631      45    2616    2625    2676      46    2613    2616    2625      51
    2610    2604    2613       1    2607    2604    2610      52    2607    2604
    2613       1    2604    2613    2616      53    2796    2799    2802       1
    2796    2799    2805       1    2796    2799    2808       2    2784    2778
    2796       4    2778    2784    2790       8    2778    2796    2799       9
    2763    2760    2772      11    2760    2772    2775      13    2754    2760
    2763      15    2754    2760    2772      16    2751    2748    2754      17
    2748    2745    2775      18    2748    2754    2760      20    2745    2748
    2751      21    2745    2748    2754      22    2745    2775    2772      23
    2742    2745    2748      24    2742    2745    2775      25    2736    2733
    2775      27    2736    2742    2745      28    2733    2727    2784      29
    2733    2736    2742      31    2733    2775    2745      32    2733    2775
    2772      33    2727    2733    2736      36    2727    2733    2775      37
    2727    2784    2778      38    2727    2784    2790       8    2724    2718
    2778       4    2724    2727    2733      40    2724    2727    2784       4
    2718    2724    2727      41    2718    2778    2784      38    2718    2778
    2796       4    2709    2718    2724      45    2709    2718    2778      46
    2706    2709    2718      51    2703    2697    2706       1    2700    2697
    2703      52    2700    2697    2706       1    2697    2706    2709      53
    2889    2892    2895       1    2889    2892    2898       1    2889    2892
    2901       2    2877    2871    2889       4    2871    2877    2883       8
    2871    2889    2892       9    2862    2865    2868      82    2853    2850
    2862      11    2850    2862    2865      83    2844    2850    2853      85
    2844    2850    2862      86    2838    2835    2865      88    2838    2844
    2850      90    2835    2829    2877      29    2835    2838    2844      92
    2835    2865    2862      93    2835    2865    2868      79    2829    2835
    2838      94    2829    2835    2865      81    2829    2877    2871      38
    2829    2877    2883       8    2826    2820    2871       4    2826    2829
    2835      40    2826    2829    2877       4    2820    2826    2829      41
    2820    2871    2877      38    2820    2871    2889       4    2811    2820
    2826      45    2811    2820    2871      46    2808    2811    2820      51
    2805    2799    2808       1    2802    2799    2805      52    2802    2799
    2808       1    2799    2808    2811      53    2988    2991    2994       1
    2988    2991    2997       1    2988    2991    3000       2    2976    2970
    2988       4    2970    2976    2982       8    2970    2988    2991       9
    2958    2964    2967      55    2955    2958    2964      56    2946    2943
    2955      11    2943    2940    2967      57    2943    2955    2958      58
    2940    2943    2946      59    2940    2943    2955      60    2940    2967
    2964      23    2937    2940    2943      61    2937    2940    2967      25
    2931    2928    2967      63    2931    2937    2940      64    2928    2922
    2976      29    2928    2931    2937      66    2928    2967    2940      32
    2928    2967    2964      33    2922    2928    2931      67    2922    2928
    2967      37    2922    2976    2970      38    2922    2976    2982       8
    2919    2913    2970       4    2919    2922    2928      40    2919    2922
    2976       4    2913    2919    2922      41    2913    2970    2976      38
    2913    2970    2988       4    2904    2913    2919      45    2904    2913
    2970      46    2901    2904    2913      51    2898    2892    2901       1
    2895    2892    2898      52    2895    2892    2901       1    2892    2901
    2904      53    3087    3090    3093       1    3087    3090    3096       1
    3087    3090    3099       2    3075    3069    3087       4    3069    3075
    3081       8    3069    3087    3090       9    3057    3063    3066      55
    3054    3057    3063      56    3045    3042    3054      11    3042    3039
    3066      57    3042    3054    3057      58    3039    3042    3045      59
    3039    3042    3054      60    3039    3066    3063      23    3036    3039
    3042      61    3036    3039    3066      25    3030    3027    3066      63
    3030    3036    3039      64    3027    3021    3075      29    3027    3030
    3036      66    3027    3066    3039      32    3027    3066    3063      33
    3021    3027    3030      67    3021    3027    3066      37    3021    3075
    3069      38    3021    3075    3081       8    3018    3012    3069       4
    3018    3021    3027      40    3018    3021    3075       4    3012    3018
    3021      41    3012    3069    3075      38    3012    3069    3087       4
    3003    3012    3018      45    3003    3012    3069      46    3000    3003
    3012      51    2997    2991    3000       1    2994    2991    2997      52
    2994    2991    3000       1    2991    3000    3003      53    3189    3192
    3195       1    3189    3192    3198       1    3189    3192    3201       2
    3177    3171    3189       4    3171    3177    3183       8    3171    3189
    3192       9    3156    3153    3165      11    3153    3165    3168      13
    3147    3153    3156      15    3147    3153    3165      16    3144    3141
    3147      17    3141    3138    3168      18    3141    3147    3153      20
    3138    3141    3144      21    3138    3141    3147      22    3138    3168
    3165      23    3135    3138    3141      24    3135    3138    3168      25
    3129    3126    3168      27    3129    3135    3138      28    3126    3120
    3177      29    3126    3129    3135      31    3126    3168    3138      32
    3126    3168    3165      33    3120    3126    3129      36    3120    3126
    3168      37    3120    3177    3171      38    3120    3177    3183       8
    3117    3111    3171       4    3117    3120    3126      40    3117    3120
    3177       4    3111    3117    3120      41    3111    3171    3177      38
    3111    3171    3189       4    3102    3111    3117      45    3102    3111
    3171      46    3099    3102    3111      51    3096    3090    3099       1
    3093    3090    3096      52    3093    3090    3099       1    3090    3099
    3102      53    3279    3282    3285       1    3279    3282    3288       1
    3279    3282    3291       2    3267    3261    3279       4    3261    3267
    3273       8    3261    3279    3282       9    3249    3255    3258      17
    3246    3243    3249      17    3243    3249    3255      68    3237    3243
    3246      70    3237    3243    3249      71    3231    3228    3255      73
    3231    3237    3243      75    3228    3222    3267      29    3228    3231
    3237      77    3228    3255    3249      78    3228    3255    3258      79
    3222    3228    3231      80    3222    3228    3255      81    3222    3267
    3261      38    3222    3267    3273       8    3219    3213    3261       4
    3219    3222    3228      40    3219    3222    3267       4    3213    3219
    3222      41    3213    3261    3267      38    3213    3261    3279       4
    3204    3213    3219      45    3204    3213    3261      46    3201    3204
    3213      51    3198    3192    3201       1    3195    3192    3198      52
    3195    3192    3201       1    3192    3201    3204      53    3369    3372
    3375       1    3369    3372    3378       1    3369    3372    3381       2
    3357    3351    3369       4    3351    3357    3363       8    3351    3369
    3372       9    3339    3345    3348      17    3336    3333    3339      17
    3333    3339    3345      68    3327    3333    3336      70    3327    3333
    3339      71    3321    3318    3345      73    3321    3327    3333      75
    3318    3312    3357      29    3318    3321    3327      77    3318    3345
    3339      78    3318    3345    3348      79    3312    3318    3321      80
    3312    3318    3345      81    3312    3357    3351      38    3312    3357
    3363       8    3309    3303    3351       4    3309    3312    3318      40
    3309    3312    3357       4    3303    3309    3312      41    3303    3351
    3357      38    3303    3351    3369       4    3294    3303    3309      45
    3294    3303    3351      46    3291    3294    3303      51    3288    3282
    3291       1    3285    3282    3288      52    3285    3282    3291       1
    3282    3291    3294      53    3459    3462    3465       1    3459    3462
    3468       1    3459    3462    3471       2    3447    3441    3459       4
    3441    3447    3453       8    3441    3459    3462       9    3429    3435
    3438      17    3426    3423    3429      17    3423    3429    3435      68
    3417    3423    3426      70    3417    3423    3429      71    3411    3408
    3435      73    3411    3417    3423      75    3408    3402    3447      29
    3408    3411    3417      77    3408    3435    3429      78    3408    3435
    3438      79    3402    3408    3411      80    3402    3408    3435      81
    3402    3447    3441      38    3402    3447    3453       8    3399    3393
    3441       4    3399    3402    3408      40    3399    3402    3447       4
    3393    3399    3402      41    3393    3441    3447      38    3393    3441
    3459       4    3384    3393    3399      45    3384    3393    3441      46
    3381    3384    3393      51    3378    3372    3381       1    3375    3372
    3378      52    3375    3372    3381       1    3372    3381    3384      53
    3552    3555    3558       1    3552    3555    3561       1    3552    3555
    3564       2    3540    3534    3552       4    3534    3540    3546       8
    3534    3552    3555       9    3525    3528    3531      82    3516    3513
    3525      11    3513    3525    3528      83    3507    3513    3516      85
    3507    3513    3525      86    3501    3498    3528      88    3501    3507
    3513      90    3498    3492    3540      29    3498    3501    3507      92
    3498    3528    3525      93    3498    3528    3531      79    3492    3498
    3501      94    3492    3498    3528      81    3492    3540    3534      38
    3492    3540    3546       8    3489    3483    3534       4    3489    3492
    3498      40    3489    3492    3540       4    3483    3489    3492      41
    3483    3534    3540      38    3483    3534    3552       4    3474    3483
    3489      45    3474    3483    3534      46    3471    3474    3483      51
    3468    3462    3471       1    3465    3462    3468      52    3465    3462
    3471       1    3462    3471    3474      53    3642    3645    3648       1
    3642    3645    3651       1    3642    3645    3654       2    3630    3624
    3642       4    3624    3630    3636       8    3624    3642    3645       9
    3612    3618    3621      17    3609    3606    3612      17    3606    3612
    3618      68    3600    3606    3609      70    3600    3606    3612      71
    3594    3591    3618      73    3594    3600    3606      75    3591    3585
    3630      29    3591    3594    3600      77    3591    3618    3612      78
    3591    3618    3621      79    3585    3591    3594      80    3585    3591
    3618      81    3585    3630    3624      38    3585    3630    3636       8
    3582    3576    3624       4    3582    3585    3591      40    3582    3585
    3630       4    3576    3582    3585      41    3576    3624    3630      38
    3576    3624    3642       4    3567    3576    3582      45    3567    3576
    3624      46    3564    3567    3576      51    3561    3555    3564       1
    3558    3555    3561      52    3558    3555    3564       1    3555    3564
    3567      53    3741    3744    3747       1    3741    3744    3750       1
    3741    3744    3753       2    3729    3723    3741       4    3723    3729
    3735       8    3723    3741    3744       9    3711    3717    3720      55
    3708    3711    3717      56    3699    3696    3708      11    3696    3693
    3720      57    3696    3708    3711      58    3693    3696    3699      59
    3693    3696    3708      60    3693    3720    3717      23    3690    3693
    3696      61    3690    3693    3720      25    3684    3681    3720      63
    3684    3690    3693      64    3681    3675    3729      29    3681    3684
    3690      66    3681    3720    3693      32    3681    3720    3717      33
    3675    3681    3684      67    3675    3681    3720      37    3675    3729
    3723      38    3675    3729    3735       8    3672    3666    3723       4
    3672    3675    3681      40    3672    3675    3729       4    3666    3672
    3675      41    3666    3723    3729      38    3666    3723    3741       4
    3657    3666    3672      45    3657    3666    3723      46    3654    3657
    3666      51    3651    3645    3654       1    3648    3645    3651      52
    3648    3645    3654       1    3645    3654    3657      53    3834    3837
    3840       1    3834    3837    3843       1    3834    3837    3846       2
    3822    3816    3834       4    3816    3822    3828       8    3816    3834
    3837       9    3807    3810    3813      82    3798    3795    3807      11
    3795    3807    3810      83    3789    3795    3798      85    3789    3795
    3807      86    3783    3780    3810      88    3783    3789    3795      90
    3780    3774    3822      29    3780    3783    3789      92    3780    3810
    3807      93    3780    3810    3813      79    3774    3780    3783      94
    3774    3780    3810      81    3774    3822    3816      38    3774    3822
    3828       8    3771    3765    3816       4    3771    3774    3780      40
    3771    3774    3822       4    3765    3771    3774      41    3765    3816
    3822      38    3765    3816    3834       4    3756    3765    3771      45
    3756    3765    3816      46    3753    3756    3765      51    3750    3744
    3753       1    3747    3744    3750      52    3747    3744    3753       1
    3744    3753    3756      53    3927    3930    3933       1    3927    3930
    3936       1    3927    3930    3939       2    3915    3909    3927       4
    3909    3915    3921       8    3909    3927    3930       9    3900    3903
    3906      82    3891    3888    3900      11    3888    3900    3903      83
    3882    3888    3891      85    3882    3888    3900      86    3876    3873
    3903      88    3876    3882    3888      90    3873    3867    3915      29
    3873    3876    3882      92    3873    3903    3900      93    3873    3903
    3906      79    3867    3873    3876      94    3867    3873    3903      81
    3867    3915    3909      38    3867    3915    3921       8    3864    3858
    3909       4    3864    3867    3873      40    3864    3867    3915       4
    3858    3864    3867      41    3858    3909    3915      38    3858    3909
    3927       4    3849    3858    3864      45    3849    3858    3909      46
    3846    3849    3858      51    3843    3837    3846       1    3840    3837
    3843      52    3840    3837    3846       1    3837    3846    3849      53
    4029    4032    4035       1    4029    4032    4038       1    4029    4032
    4041       2    4017    4011    4029       4    4011    4017    4023       8
    4011    4029    4032       9    3996    3993    4005      11    3993    4005
    4008      13    3987    3993    3996      15    3987    3993    4005      16
    3984    3981    3987      17    3981    3978    4008      18    3981    3987
    3993      20    3978    3981    3984      21    3978    3981    3987      22
    3978    4008    4005      23    3975    3978    3981      24    3975    3978
    4008      25    3969    3966    4008      27    3969    3975    3978      28
    3966    3960    4017      29    3966    3969    3975      31    3966    4008
    3978      32    3966    4008    4005      33    3960    3966    3969      36
    3960    3966    4008      37    3960    4017    4011      38    3960    4017
    4023       8    3957    3951    4011       4    3957    3960    3966      40
    3957    3960    4017       4    3951    3957    3960      41    3951    4011
    4017      38    3951    4011    4029       4    3942    3951    3957      45
    3942    3951    4011      46    3939    3942    3951      51    3936    3930
    3939       1    3933    3930    3936      52    3933    3930    3939       1
    3930    3939    3942      53    4131    4134    4137       1    4131    4134
    4140       1    4131    4134    4143       2    4119    4113    4131       4
    4113    4119    4125       8    4113    4131    4134       9    4098    4095
    4107      11    4095    4107    4110      13    4089    4095    4098      15
    4089    4095    4107      16    4086    4083    4089      17    4083    4080
    4110      18    4083    4089    4095      20    4080    4083    4086      21
    4080    4083    4089      22    4080    4110    4107      23    4077    4080
    4083      24    4077    4080    4110      25    4071    4068    4110      27
    4071    4077    4080      28    4068    4062    4119      29    4068    4071
    4077      31    4068    4110    4080      32    4068    4110    4107      33
    4062    4068    4071      36    4062    4068    4110      37    4062    4119
    4113      38    4062    4119    4125       8    4059    4053    4113       4
    4059    4062    4068      40    4059    4062    4119       4    4053    4059
    4062      41    4053    4113    4119      38    4053    4113    4131       4
    4044    4053    4059      45    4044    4053    4113      46    4041    4044
    4053      51    4038    4032    4041       1    4035    4032    4038      52
    4035    4032    4041       1    4032    4041    4044      53    4233    4236
    4239       1    4233    4236    4242       1    4233    4236    4245       2
    4221    4215    4233       4    4215    4221    4227       8    4215    4233
    4236       9    4200    4197    4209      11    4197    4209    4212      13
    4191    4197    4200      15    4191    4197    4209      16    4188    4185
    4191      17    4185    4182    4212      18    4185    4191    4197      20
    4182    4185    4188      21    4182    4185    4191      22    4182    4212
    4209      23    4179    4182    4185      24    4179    4182    4212      25
    4173    4170    4212      27    4173    4179    4182      28    4170    4164
    4221      29    4170    4173    4179      31    4170    4212    4182      32
    4170    4212    4209      33    4164    4170    4173      36    4164    4170
    4212      37    4164    4221    4215      38    4164    4221    4227       8
    4161    4155    4215       4    4161    4164    4170      40    4161    4164
    4221       4    4155    4161    4164      41    4155    4215    4221      38
    4155    4215    4233       4    4146    4155    4161      45    4146    4155
    4215      46    4143    4146    4155      51    4140    4134    4143       1
    4137    4134    4140      52    4137    4134    4143       1    4134    4143
    4146      53    4326    4329    4332       1    4326    4329    4335       1
    4326    4329    4338       2    4314    4308    4326       4    4308    4314
    4320       8    4308    4326    4329       9    4299    4302    4305      82
    4290    4287    4299      11    4287    4299    4302      83    4281    4287
    4290      85    4281    4287    4299      86    4275    4272    4302      88
    4275    4281    4287      90    4272    4266    4314      29    4272    4275
    4281      92    4272    4302    4299      93    4272    4302    4305      79
    4266    4272    4275      94    4266    4272    4302      81    4266    4314
    4308      38    4266    4314    4320       8    4263    4257    4308       4
    4263    4266    4272      40    4263    4266    4314       4    4257    4263
    4266      41    4257    4308    4314      38    4257    4308    4326       4
    4248    4257    4263      45    4248    4257    4308      46    4245    4248
    4257      51    4242    4236    4245       1    4239    4236    4242      52
    4239    4236    4245       1    4236    4245    4248      53    4425    4428
    4431       1    4425    4428    4434       1    4425    4428    4437       2
    4413    4407    4425       4    4407    4413    4419       8    4407    4425
    4428       9    4395    4401    4404      55    4392    4395    4401      56
    4383    4380    4392      11    4380    4377    4404      57    4380    4392
    4395      58    4377    4380    4383      59    4377    4380    4392      60
    4377    4404    4401      23    4374    4377    4380      61    4374    4377
    4404      25    4368    4365    4404      63    4368    4374    4377      64
    4365    4359    4413      29    4365    4368    4374      66    4365    4404
    4377      32    4365    4404    4401      33    4359    4365    4368      67
    4359    4365    4404      37    4359    4413    4407      38    4359    4413
    4419       8    4356    4350    4407       4    4356    4359    4365      40
    4356    4359    4413       4    4350    4356    4359      41    4350    4407
    4413      38    4350    4407    4425       4    4341    4350    4356      45
    4341    4350    4407      46    4338    4341    4350      51    4335    4329
    4338       1    4332    4329    4335      52    4332    4329    4338       1
    4329    4338    4341      53    4518    4521    4524       1    4518    4521
    4527       1    4518    4521    4530       2    4506    4500    4518       4
    4500    4506    4512       8    4500    4518    4521       9    4491    4494
    4497      82    4482    4479    4491      11    4479    4491    4494      83
    4473    4479    4482      85    4473    4479    4491      86    4467    4464
    4494      88    4467    4473    4479      90    4464    4458    4506      29
    4464    4467    4473      92    4464    4494    4491      93    4464    4494
    4497      79    4458    4464    4467      94    4458    4464    4494      81
    4458    4506    4500      38    4458    4506    4512       8    4455    4449
    4500       4    4455    4458    4464      40    4455    4458    4506       4
    4449    4455    4458      41    4449    4500    4506      38    4449    4500
    4518       4    4440    4449    4455      45    4440    4449    4500      46
    4437    4440    4449      51    4434    4428    4437       1    4431    4428
    4434      52    4431    4428    4437       1    4428    4437    4440      53
    4611    4614    4617       1    4611    4614    4620       1    4611    4614
    4623       2    4599    4593    4611       4    4593    4599    4605       8
    4593    4611    4614       9    4584    4587    4590      82    4575    4572
    4584      11    4572    4584    4587      83    4566    4572    4575      85
    4566    4572    4584      86    4560    4557    4587      88    4560    4566
    4572      90    4557    4551    4599      29    4557    4560    4566      92
    4557    4587    4584      93    4557    4587    4590      79    4551    4557
    4560      94    4551    4557    4587      81    4551    4599    4593      38
    4551    4599    4605       8    4548    4542    4593       4    4548    4551
    4557      40    4548    4551    4599       4    4542    4548    4551      41
    4542    4593    4599      38    4542    4593    4611       4    4533    4542
    4548      45    4533    4542    4593      46    4530    4533    4542      51
    4527    4521    4530       1    4524    4521    4527      52    4524    4521
    4530       1    4521    4530    4533      53    4713    4716    4719       1
    4713    4716    4722       1    4713    4716    4725       2    4701    4695
    4713       4    4695    4701    4707       8    4695    4713    4716       9
    4680    4677    4689      11    4677    4689    4692      13    4671    4677
    4680      15    4671    4677    4689      16    4668    4665    4671      17
    4665    4662    4692      18    4665    4671    4677      20    4662    4665
    4668      21    4662    4665    4671      22    4662    4692    4689      23
    4659    4662    4665      24    4659    4662    4692      25    4653    4650
    4692      27    4653    4659    4662      28    4650    4644    4701      29
    4650    4653    4659      31    4650    4692    4662      32    4650    4692
    4689      33    4644    4650    4653      36    4644    4650    4692      37
    4644    4701    4695      38    4644    4701    4707       8    4641    4635
    4695       4    4641    4644    4650      40    4641    4644    4701       4
    4635    4641    4644      41    4635    4695    4701      38    4635    4695
    4713       4    4626    4635    4641      45    4626    4635    4695      46
    4623    4626    4635      51    4620    4614    4623       1    4617    4614
    4620      52    4617    4614    4623       1    4614    4623    4626      53
    4803    4806    4809       1    4803    4806    4812       1    4803    4806
    4815       2    4791    4785    4803       4    4785    4791    4797       8
    4785    4803    4806       9    4773    4779    4782      17    4770    4767
    4773      17    4767    4773    4779      68    4761    4767    4770      70
    4761    4767    4773      71    4755    4752    4779      73    4755    4761
    4767      75    4752    4746    4791      29    4752    4755    4761      77
    4752    4779    4773      78    4752    4779    4782      79    4746    4752
    4755      80    4746    4752    4779      81    4746    4791    4785      38
    4746    4791    4797       8    4743    4737    4785       4    4743    4746
    4752      40    4743    4746    4791       4    4737    4743    4746      41
    4737    4785    4791      38    4737    4785    4803       4    4728    4737
    4743      45    4728    4737    4785      46    4725    4728    4737      51
    4722    4716    4725       1    4719    4716    4722      52    4719    4716
    4725       1    4716    4725    4728      53    4902    4905    4908       1
    4902    4905    4911       1    4902    4905    4914       2    4890    4884
    4902       4    4884    4890    4896       8    4884    4902    4905       9
    4872    4878    4881      55    4869    4872    4878      56    4860    4857
    4869      11    4857    4854    4881      57    4857    4869    4872      58
    4854    4857    4860      59    4854    4857    4869      60    4854    4881
    4878      23    4851    4854    4857      61    4851    4854    4881      25
    4845    4842    4881      63    4845    4851    4854      64    4842    4836
    4890      29    4842    4845    4851      66    4842    4881    4854      32
    4842    4881    4878      33    4836    4842    4845      67    4836    4842
    4881      37    4836    4890    4884      38    4836    4890    4896       8
    4833    4827    4884       4    4833    4836    4842      40    4833    4836
    4890       4    4827    4833    4836      41    4827    4884    4890      38
    4827    4884    4902       4    4818    4827    4833      45    4818    4827
    4884      46    4815    4818    4827      51    4812    4806    4815       1
    4809    4806    4812      52    4809    4806    4815       1    4806    4815
    4818      53    5001    5004    5007       1    5001    5004    5010       1
    5001    5004    5013       2    4989    4983    5001       4    4983    4989
    4995       8    4983    5001    5004       9    4971    4977    4980      55
    4968    4971    4977      56    4959    4956    4968      11    4956    4953
    4980      57    4956    4968    4971      58    4953    4956    4959      59
    4953    4956    4968      60    4953    4980    4977      23    4950    4953
    4956      61    4950    4953    4980      25    4944    4941    4980      63
    4944    4950    4953      64    4941    4935    4989      29    4941    4944
    4950      66    4941    4980    4953      32    4941    4980    4977      33
    4935    4941    4944      67    4935    4941    4980      37    4935    4989
    4983      38    4935    4989    4995       8    4932    4926    4983       4
    4932    4935    4941      40    4932    4935    4989       4    4926    4932
    4935      41    4926    4983    4989      38    4926    4983    5001       4
    4917    4926    4932      45    4917    4926    4983      46    4914    4917
    4926      51    4911    4905    4914       1    4908    4905    4911      52
    4908    4905    4914       1    4905    4914    4917      53    5100    5103
    5106       1    5100    5103    5109       1    5100    5103    5112       2
    5088    5082    5100       4    5082    5088    5094       8    5082    5100
    5103       9    5070    5076    5079      55    5067    5070    5076      56
    5058    5055    5067      11    5055    5052    5079      57    5055    5067
    5070      58    5052    5055    5058      59    5052    5055    5067      60
    5052    5079    5076      23    5049    5052    5055      61    5049    5052
    5079      25    5043    5040    5079      63    5043    5049    5052      64
    5040    5034    5088      29    5040    5043    5049      66    5040    5079
    5052      32    5040    5079    5076      33    5034    5040    5043      67
    5034    5040    5079      37    5034    5088    5082      38    5034    5088
    5094       8    5031    5025    5082       4    5031    5034    5040      40
    5031    5034    5088       4    5025    5031    5034      41    5025    5082
    5088      38    5025    5082    5100       4    5016    5025    5031      45
    5016    5025    5082      46    5013    5016    5025      51    5010    5004
    5013       1    5007    5004    5010      52    5007    5004    5013       1
    5004    5013    5016      53    5190    5193    5196       1    5190    5193
    5199       1    5190    5193    5202       2    5178    5172    5190       4
    5172    5178    5184       8    5172    5190    5193       9    5160    5166
    5169      17    5157    5154    5160      17    5154    5160    5166      68
    5148    5154    5157      70    5148    5154    5160      71    5142    5139
    5166      73    5142    5148    5154      75    5139    5133    5178      29
    5139    5142    5148      77    5139    5166    5160      78    5139    5166
    5169      79    5133    5139    5142      80    5133    5139    5166      81
    5133    5178    5172      38    5133    5178    5184       8    5130    5124
    5172       4    5130    5133    5139      40    5130    5133    5178       4
    5124    5130    5133      41    5124    5172    5178      38    5124    5172
    5190       4    5115    5124    5130      45    5115    5124    5172      46
    5112    5115    5124      51    5109    5103    5112       1    5106    5103
    5109      52    5106    5103    5112       1    5103    5112    5115      53
    5292    5295    5298       1    5292    5295    5301       1    5292    5295
    5304       2    5280    5274    5292       4    5274    5280    5286       8
    5274    5292    5295       9    5259    5256    5268      11    5256    5268
    5271      13    5250    5256    5259      15    5250    5256    5268      16
    5247    5244    5250      17    5244    5241    5271      18    5244    5250
    5256      20    5241    5244    5247      21    5241    5244    5250      22
    5241    5271    5268      23    5238    5241    5244      24    5238    5241
    5271      25    5232    5229    5271      27    5232    5238    5241      28
    5229    5223    5280      29    5229    5232    5238      31    5229    5271
    5241      32    5229    5271    5268      33    5223    5229    5232      36
    5223    5229    5271      37    5223    5280    5274      38    5223    5280
    5286       8    5220    5214    5274       4    5220    5223    5229      40
    5220    5223    5280       4    5214    5220    5223      41    5214    5274
    5280      38    5214    5274    5292       4    5205    5214    5220      45
    5205    5214    5274      46    5202    5205    5214      51    5199    5193
    5202       1    5196    5193    5199      52    5196    5193    5202       1
    5193    5202    5205      53    5382    5385    5388       1    5382    5385
    5391       1    5382    5385    5394       2    5370    5364    5382       4
    5364    5370    5376       8    5364    5382    5385       9    5352    5358
    5361      17    5349    5346    5352      17    5346    5352    5358      68
    5340    5346    5349      70    5340    5346    5352      71    5334    5331
    5358      73    5334    5340    5346      75    5331    5325    5370      29
    5331    5334    5340      77    5331    5358    5352      78    5331    5358
    5361      79    5325    5331    5334      80    5325    5331    5358      81
    5325    5370    5364      38    5325    5370    5376       8    5322    5316
    5364       4    5322    5325    5331      40    5322    5325    5370       4
    5316    5322    5325      41    5316    5364    5370      38    5316    5364
    5382       4    5307    5316    5322      45    5307    5316    5364      46
    5304    5307    5316      51    5301    5295    5304       1    5298    5295
    5301      52    5298    5295    5304       1    5295    5304    5307      53
    5475    5478    5481       1    5475    5478    5484       1    5475    5478
    5487       2    5463    5457    5475       4    5457    5463    5469       8
    5457    5475    5478       9    5448    5451    5454      82    5439    5436
    5448      11    5436    5448    5451      83    5430    5436    5439      85
    5430    5436    5448      86    5424    5421    5451      88    5424    5430
    5436      90    5421    5415    5463      29    5421    5424    5430      92
    5421    5451    5448      93    5421    5451    5454      79    5415    5421
    5424      94    5415    5421    5451      81    5415    5463    5457      38
    5415    5463    5469       8    5412    5406    5457       4    5412    5415
    5421      40    5412    5415    5463       4    5406    5412    5415      41
    5406    5457    5463      38    5406    5457    5475       4    5397    5406
    5412      45    5397    5406    5457      46    5394    5397    5406      51
    5391    5385    5394       1    5388    5385    5391      52    5388    5385
    5394       1    5385    5394    5397      53    5568    5571    5574       1
    5568    5571    5577       1    5568    5571    5580       2    5556    5550
    5568       4    5550    5556    5562       8    5550    5568    5571       9
    5541    5544    5547      82    5532    5529    5541      11    5529    5541
    5544      83    5523    5529    5532      85    5523    5529    5541      86
    5517    5514    5544      88    5517    5523    5529      90    5514    5508
    5556      29    5514    5517    5523      92    5514    5544    5541      93
    5514    5544    5547      79    5508    5514    5517      94    5508    5514
    5544      81    5508    5556    5550      38    5508    5556    5562       8
    5505    5499    5550       4    5505    5508    5514      40    5505    5508
    5556       4    5499    5505    5508      41    5499    5550    5556      38
    5499    5550    5568       4    5490    5499    5505      45    5490    5499
    5550      46    5487    5490    5499      51    5484    5478    5487       1
    5481    5478    5484      52    5481    5478    5487       1    5478    5487
    5490      53    5670    5673    5676       1    5670    5673    5679       1
    5670    5673    5682       2    5658    5652    5670       4    5652    5658
    5664       8    5652    5670    5673       9    5637    5634    5646      11
    5634    5646    5649      13    5628    5634    5637      15    5628    5634
    5646      16    5625    5622    5628      17    5622    5619    5649      18
    5622    5628    5634      20    5619    5622    5625      21    5619    5622
    5628      22    5619    5649    5646      23    5616    5619    5622      24
    5616    5619    5649      25    5610    5607    5649      27    5610    5616
    5619      28    5607    5601    5658      29    5607    5610    5616      31
    5607    5649    5619      32    5607    5649    5646      33    5601    5607
    5610      36    5601    5607    5649      37    5601    5658    5652      38
    5601    5658    5664       8    5598    5592    5652       4    5598    5601
    5607      40    5598    5601    5658       4    5592    5598    5601      41
    5592    5652    5658      38    5592    5652    5670       4    5583    5592
    5598      45    5583    5592    5652      46    5580    5583    5592      51
    5577    5571    5580       1    5574    5571    5577      52    5574    5571
    5580       1    5571    5580    5583      53    5769    5772    5775       1
    5769    5772    5778       1    5769    5772    5781       2    5757    5751
    5769       4    5751    5757    5763       8    5751    5769    5772       9
    5739    5745    5748      55    5736    5739    5745      56    5727    5724
    5736      11    5724    5721    5748      57    5724    5736    5739      58
    5721    5724    5727      59    5721    5724    5736      60    5721    5748
    5745      23    5718    5721    5724      61    5718    5721    5748      25
    5712    5709    5748      63    5712    5718    5721      64    5709    5703
    5757      29    5709    5712    5718      66    5709    5748    5721      32
    5709    5748    5745      33    5703    5709    5712      67    5703    5709
    5748      37    5703    5757    5751      38    5703    5757    5763       8
    5700    5694    5751       4    5700    5703    5709      40    5700    5703
    5757       4    5694    5700    5703      41    5694    5751    5757      38
    5694    5751    5769       4    5685    5694    5700      45    5685    5694
    5751      46    5682    5685    5694      51    5679    5673    5682       1
    5676    5673    5679      52    5676    5673    5682       1    5673    5682
    5685      53    5862    5865    5868       1    5862    5865    5871       1
    5862    5865    5874       2    5850    5844    5862       4    5844    5850
    5856       8    5844    5862    5865       9    5835    5838    5841      82
    5826    5823    5835      11    5823    5835    5838      83    5817    5823
    5826      85    5817    5823    5835      86    5811    5808    5838      88
    5811    5817    5823      90    5808    5802    5850      29    5808    5811
    5817      92    5808    5838    5835      93    5808    5838    5841      79
    5802    5808    5811      94    5802    5808    5838      81    5802    5850
    5844      38    5802    5850    5856       8    5799    5793    5844       4
    5799    5802    5808      40    5799    5802    5850       4    5793    5799
    5802      41    5793    5844    5850      38    5793    5844    5862       4
    5784    5793    5799      45    5784    5793    5844      46    5781    5784
    5793      51    5778    5772    5781       1    5775    5772    5778      52
    5775    5772    5781       1    5772    5781    5784      53    5952    5955
    5958       1    5952    5955    5961       1    5952    5955    5964       2
    5940    5934    5952       4    5934    5940    5946       8    5934    5952
    5955       9    5922    5928    5931      17    5919    5916    5922      17
    5916    5922    5928      68    5910    5916    5919      70    5910    5916
    5922      71    5904    5901    5928      73    5904    5910    5916      75
    5901    5895    5940      29    5901    5904    5910      77    5901    5928
    5922      78    5901    5928    5931      79    5895    5901    5904      80
    5895    5901    5928      81    5895    5940    5934      38    5895    5940
    5946       8    5892    5886    5934       4    5892    5895    5901      40
    5892    5895    5940       4    5886    5892    5895      41    5886    5934
    5940      38    5886    5934    5952       4    5877    5886    5892      45
    5877    5886    5934      46    5874    5877    5886      51    5871    5865
    5874       1    5868    5865    5871      52    5868    5865    5874       1
    5865    5874    5877      53    6051    6054    6057       1    6051    6054
    6060       1    6051    6054    6063       2    6039    6033    6051       4
    6033    6039    6045       8    6033    6051    6054       9    6021    6027
    6030      55    6018    6021    6027      56    6009    6006    6018      11
    6006    6003    6030      57    6006    6018    6021      58    6003    6006
    6009      59    6003    6006    6018      60    6003    6030    6027      23
    6000    6003    6006      61    6000    6003    6030      25    5994    5991
    6030      63    5994    6000    6003      64    5991    5985    6039      29
    5991    5994    6000      66    5991    6030    6003      32    5991    6030
    6027      33    5985    5991    5994      67    5985    5991    6030      37
    5985    6039    6033      38    5985    6039    6045       8    5982    5976
    6033       4    5982    5985    5991      40    5982    5985    6039       4
    5976    5982    5985      41    5976    6033    6039      38    5976    6033
    6051       4    5967    5976    5982      45    5967    5976    6033      46
    5964    5967    5976      51    5961    5955    5964       1    5958    5955
    5961      52    5958    5955    5964       1    5955    5964    5967      53
    6141    6144    6147       1    6141    6144    6150       1    6141    6144
    6153       2    6129    6123    6141       4    6123    6129    6135       8
    6123    6141    6144       9    6111    6117    6120      17    6108    6105
    6111      17    6105    6111    6117      68    6099    6105    6108      70
    6099    6105    6111      71    6093    6090    6117      73    6093    6099
    6105      75    6090    6084    6129      29    6090    6093    6099      77
    6090    6117    6111      78    6090    6117    6120      79    6084    6090
    6093      80    6084    6090    6117      81    6084    6129    6123      38
    6084    6129    6135       8    6081    6075    6123       4    6081    6084
    6090      40    6081    6084    6129       4    6075    6081    6084      41
    6075    6123    6129      38    6075    6123    6141       4    6066    6075
    6081      45    6066    6075    6123      46    6063    6066    6075      51
    6060    6054    6063       1    6057    6054    6060      52    6057    6054
    6063       1    6054    6063    6066      53    6243    6246    6249       1
    6243    6246    6252       1    6243    6246    6255       2    6231    6225
    6243       4    6225    6231    6237       8    6225    6243    6246       9
    6210    6207    6219      11    6207    6219    6222      13    6201    6207
    6210      15    6201    6207    6219      16    6198    6195    6201      17
    6195    6192    6222      18    6195    6201    6207      20    6192    6195
    6198      21    6192    6195    6201      22    6192    6222    6219      23
    6189    6192    6195      24    6189    6192    6222      25    6183    6180
    6222      27    6183    6189    6192      28    6180    6174    6231      29
    6180    6183    6189      31    6180    6222    6192      32    6180    6222
    6219      33    6174    6180    6183      36    6174    6180    6222      37
    6174    6231    6225      38    6174    6231    6237       8    6171    6165
    6225       4    6171    6174    6180      40    6171    6174    6231       4
    6165    6171    6174      41    6165    6225    6231      38    6165    6225
    6243       4    6156    6165    6171      45    6156    6165    6225      46
    6153    6156    6165      51    6150    6144    6153       1    6147    6144
    6150      52    6147    6144    6153       1    6144    6153    6156      53
    6345    6348    6351       1    6345    6348    6354       1    6345    6348
    6357       2    6333    6327    6345       4    6327    6333    6339       8
    6327    6345    6348       9    6312    6309    6321      11    6309    6321
    6324      13    6303    6309    6312      15    6303    6309    6321      16
    6300    6297    6303      17    6297    6294    6324      18    6297    6303
    6309      20    6294    6297    6300      21    6294    6297    6303      22
    6294    6324    6321      23    6291    6294    6297      24    6291    6294
    6324      25    6285    6282    6324      27    6285    6291    6294      28
    6282    6276    6333      29    6282    6285    6291      31    6282    6324
    6294      32    6282    6324    6321      33    6276    6282    6285      36
    6276    6282    6324      37    6276    6333    6327      38    6276    6333
    6339       8    6273    6267    6327       4    6273    6276    6282      40
    6273    6276    6333       4    6267    6273    6276      41    6267    6327
    6333      38    6267    6327    6345       4    6258    6267    6273      45
    6258    6267    6327      46    6255    6258    6267      51    6252    6246
    6255       1    6249    6246    6252      52    6249    6246    6255       1
    6246    6255    6258      53    6435    6438    6441       1    6435    6438
    6444       1    6435    6438    6447       2    6423    6417    6435       4
    6417    6423    6429       8    6417    6435    6438       9    6405    6411
    6414      17    6402    6399    6405      17    6399    6405    6411      68
    6393    6399    6402      70    6393    6399    6405      71    6387    6384
    6411      73    6387    6393    6399      75    6384    6378    6423      29
    6384    6387    6393      77    6384    6411    6405      78    6384    6411
    6414      79    6378    6384    6387      80    6378    6384    6411      81
    6378    6423    6417      38    6378    6423    6429       8    6375    6369
    6417       4    6375    6378    6384      40    6375    6378    6423       4
    6369    6375    6378      41    6369    6417    6423      38    6369    6417
    6435       4    6360    6369    6375      45    6360    6369    6417      46
    6357    6360    6369      51    6354    6348    6357       1    6351    6348
    6354      52    6351    6348    6357       1    6348    6357    6360      53
    6516    6510    6528       8    6510    6516    6522       8    6501    6504
    6507      82    6492    6489    6501      11    6489    6501    6504      83
    6483    6489    6492      85    6483    6489    6501      86    6477    6474
    6504      88    6477    6483    6489      90    6474    6468    6516      29
    6474    6477    6483      92    6474    6504    6501      93    6474    6504
    6507      79    6468    6474    6477      94    6468    6474    6504      81
    6468    6516    6510      38    6468    6516    6522       8    6465    6459
    6510       4    6465    6468    6474      40    6465    6468    6516       4
    6459    6465    6468      41    6459    6510    6516      38    6459    6510
    6528       8    6450    6459    6465      45    6450    6459    6510      46
    6447    6450    6459      51    6444    6438    6447       1    6441    6438
    6444      52    6441    6438    6447       1    6438    6447    6450      53
    6975    6978    6981      98    6972    6969    6981     100    6972    6975
    6978     101    6969    6972    6975     102    6969    6981    6978     103
    6966    6969    6972     104    6966    6969    6981     105    6957    6960
    6963     107    6954    6957    6960     107    6951    6948    6963     107
    6951    6954    6957     107    6948    6951    6954     107    6948    6963
    6960     107    6945    6948    6951     109    6945    6948    6963     109
    6942    6945    6948     111    6939    6936    6966     113    6939    6942
    6945     114    6936    6939    6942     116    6936    6966    6969     118
    6933    6930    6972     119    6933    6936    6939     120    6933    6936
    6966     121    6930    6933    6936     122    6930    6972    6969     124
    6930    6972    6975     125    6927    6930    6933     126    6927    6930
    6972     127
%FLAG DIHEDRALS_INC_HYDROGEN                                                    
%FORMAT(10I8)                                                                   
      84      81      75      93       6      84      81     -75      93       7
      84      81      87      90       8      78      75      81      84      10
      78      75      81      87       6      78      75     -81      87       7
      78      75      93      96       9      75      81      87      90       6
      75      81     -87      90      11      66      60      57      69      15
      63      60      57      69      15      54      51      57      60      17
      54      51      57      69      17      51      57      60      63      15
      51      57      60      66      15      48      45      51      54      19
      42      45      51      54      19      36      33      30      72      22
      36      33      39      42      23      30      24      81      84      10
      27      24      30      33      14      27      24      30      72      14
      27      24      81      75      10      27      24      81      84      10
      27      24      81      87      10      24      30      33      36      22
      24      81      75      78      10      24      81      87      90       6
      24      81     -87      90      11      21      15      75      78       6
      21      15     -75      78       7      21      24      81      84       6
      21      24     -81      84       7      18      15      21      24       9
      18      15      75      78      10      18      15      75      81      10
      18      15      75      93       6      18      15     -75      93       7
      15      21      24      27       9      15      75      81      84      10
      12       6      15      18      10      12       6      15      21       6
      12       6     -15      21       7      12       6      15      75      10
       9       6      15      18      10       9       6      15      21       6
       9       6     -15      21       7       9       6      15      75      10
       6      15      75      78      10       3       6      15      18       6
       3       6     -15      18       7       0       3       6       9       8
       0       3       6      12       8       0       3       6      15       8
     186     183     177     195       6     186     183    -177     195       7
     186     183     189     192       8     180     177     183     186      10
     180     177     183     189       6     180     177    -183     189       7
     180     177     195     198       9     177     183     189     192       6
     177     183    -189     192      11     168     162     159     171      15
     165     162     159     171      15     156     153     159     162      17
     156     153     159     171      17     153     159     162     165      15
     153     159     162     168      15     150     147     153     156      19
     144     147     153     156      19     138     135     132     174      22
     138     135     141     144      23     132     126     183     186      10
     129     126     132     135      14     129     126     132     174      14
     129     126     183     177      10     129     126     183     186      10
     129     126     183     189      10     126     132     135     138      22
     126     183     177     180      10     126     183     189     192       6
     126     183    -189     192      11     123     117     177     180       6
     123     117    -177     180       7     123     126     183     186       6
     123     126    -183     186       7     120     117     123     126       9
     120     117     177     180      10     120     117     177     183      10
     120     117     177     195       6     120     117    -177     195       7
     117     123     126     129       9     117     177     183     186      10
     114     108     117     120      10     114     108     117     123       6
     114     108    -117     123       7     114     108     117     177      10
     111     108     117     120      10     111     108     117     123       6
     111     108    -117     123       7     111     108     117     177      10
     108     117     177     180      10     105     108     117     120       6
     105     108    -117     120       7      96     105     108     111       9
      96     105     108     114       9     285     282     276     294       6
     285     282    -276     294       7     285     282     288     291       8
     279     276     282     285      10     279     276     282     288       6
     279     276    -282     288       7     279     276     294     297       9
     276     282     288     291       6     276     282    -288     291      11
     267     264     270     273      39     258     252     249     261      15
     255     252     249     261      15     249     261     264     267      39
     246     249     252     255      15     246     249     252     258      15
     240     237     234     273      22     240     237     243     246      23
     234     228     282     285      10     231     228     234     237      14
     231     228     234     273      14     231     228     282     276      10
     231     228     282     285      10     231     228     282     288      10
     228     234     237     240      22     228     282     276     279      10
     228     282     288     291       6     228     282    -288     291      11
     225     219     276     279       6     225     219    -276     279       7
     225     228     282     285       6     225     228    -282     285       7
     222     219     225     228       9     222     219     276     279      10
     222     219     276     282      10     222     219     276     294       6
     222     219    -276     294       7     219     225     228     231       9
     219     276     282     285      10     216     210     219     222      10
     216     210     219     225       6     216     210    -219     225       7
     216     210     219     276      10     213     210     219     222      10
     213     210     219     225       6     213     210    -219     225       7
     213     210     219     276      10     210     219     276     279      10
     207     210     219     222       6     207     210    -219     222       7
     198     207     210     213       9     198     207     210     216       9
     375     372     366     384       6     375     372    -366     384       7
     375     372     378     381       8     369     366     372     375      10
     369     366     372     378       6     369     366    -372     378       7
     369     366     384     387       9     366     372     378     381       6
     366     372    -378     381      11     357     354     360     363      19
     351     348     354     357      19     345     342     348     351      45
     345     342     348     354      45     342     348     354     357      19
     339     336     333     360      46     339     336     342     345      47
     339     336     342     348      47     333     327     372     375      10
     333     336     342     345      47     333     360     354     357      19
     330     327     333     336      14     330     327     333     360      14
     330     327     372     366      10     330     327     372     375      10
     330     327     372     378      10     327     333     336     339      46
     327     372     366     369      10     327     372     378     381       6
     327     372    -378     381      11     324     318     366     369       6
     324     318    -366     369       7     324     327     372     375       6
     324     327    -372     375       7     321     318     324     327       9
     321     318     366     369      10     321     318     366     372      10
     321     318     366     384       6     321     318    -366     384       7
     318     324     327     330       9     318     366     372     375      10
     315     309     318     321      10     315     309     318     324       6
     315     309    -318     324       7     315     309     318     366      10
     312     309     318     321      10     312     309     318     324       6
     312     309    -318     324       7     312     309     318     366      10
     309     318     366     369      10     306     309     318     321       6
     306     309    -318     321       7     297     306     309     312       9
     297     306     309     315       9     468     465     459     477       6
     468     465    -459     477       7     468     465     471     474       8
     462     459     465     468      10     462     459     465     471       6
     462     459    -465     471       7     462     459     477     480       9
     459     465     471     474       6     459     465    -471     474      11
     447     441     438     450      15     444     441     438     450      15
     435     432     438     441      25     435     432     438     450      25
     432     438     441     444      15     432     438     441     447      15
     429     426     423     453      46     429     426     432     435      47
     429     426     432     438      47     423     417     465     468      10
     423     426     432     435      47     420     417     423     426      14
     420     417     423     453      14     420     417     465     459      10
     420     417     465     468      10     420     417     465     471      10
     417     423     426     429      46     417     465     459     462      10
     417     465     471     474       6     417     465    -471     474      11
     414     408     459     462       6     414     408    -459     462       7
     414     417     465     468       6     414     417    -465     468       7
     411     408     414     417       9     411     408     459     462      10
     411     408     459     465      10     411     408     459     477       6
     411     408    -459     477       7     408     414     417     420       9
     408     459     465     468      10     405     399     408     411      10
     405     399     408     414       6     405     399    -408     414       7
     405     399     408     459      10     402     399     408     411      10
     402     399     408     414       6     402     399    -408     414       7
     402     399     408     459      10     399     408     459     462      10
     396     399     408     411       6     396     399    -408     411       7
     387     396     399     402       9     387     396     399     405       9
     567     564     558     576       6     567     564    -558     576       7
     567     564     570     573       8     561     558     564     567      10
     561     558     564     570       6     561     558    -564     570       7
     561     558     576     579       9     558     564     570     573       6
     558     564    -570     573      11     549     546     552     555      39
     540     534     531     543      15     537     534     531     543      15
     531     543     546     549      39     528     531     534     537      15
     528     531     534     540      15     522     519     516     555      22
     522     519     525     528      23     516     510     564     567      10
     513     510     516     519      14     513     510     516     555      14
     513     510     564     558      10     513     510     564     567      10
     513     510     564     570      10     510     516     519     522      22
     510     564     558     561      10     510     564     570     573       6
     510     564    -570     573      11     507     501     558     561       6
     507     501    -558     561       7     507     510     564     567       6
     507     510    -564     567       7     504     501     507     510       9
     504     501     558     561      10     504     501     558     564      10
     504     501     558     576       6     504     501    -558     576       7
     501     507     510     513       9     501     558     564     567      10
     498     492     501     504      10     498     492     501     507       6
     498     492    -501     507       7     498     492     501     558      10
     495     492     501     504      10     495     492     501     507       6
     495     492    -501     507       7     495     492     501     558      10
     492     501     558     561      10     489     492     501     504       6
     489     492    -501     504       7     480     489     492     495       9
     480     489     492     498       9     657     654     648     666       6
     657     654    -648     666       7     657     654     660     663       8
     651     648     654     657      10     651     648     654     660       6
     651     648    -654     660       7     651     648     666     669       9
     648     654     660     663       6     648     654    -660     663      11
     639     636     642     645      19     633     630     636     639      19
     627     624     630     633      45     627     624     630     636      45
     624     630     636     639      19     621     618     615     642      46
     621     618     624     627      47     621     618     624     630      47
     615     609     654     657      10     615     618     624     627      47
     615     642     636     639      19     612     609     615     618      14
     612     609     615     642      14     612     609     654     648      10
     612     609     654     657      10     612     609     654     660      10
     609     615     618     621      46     609     654     648     651      10
     609     654     660     663       6     609     654    -660     663      11
     606     600     648     651       6     606     600    -648     651       7
     606     609     654     657       6     606     609    -654     657       7
     603     600     606     609       9     603     600     648     651      10
     603     600     648     654      10     603     600     648     666       6
     603     600    -648     666       7     600     606     609     612       9
     600     648     654     657      10     597     591     600     603      10
     597     591     600     606       6     597     591    -600     606       7
     597     591     600     648      10     594     591     600     603      10
     594     591     600     606       6     594     591    -600     606       7
     594     591     600     648      10     591     600     648     651      10
     588     591     600     603       6     588     591    -600     603       7
     579     588     591     594       9     579     588     591     597       9
     756     753     747     765       6     756     753    -747     765       7
     756     753     759     762       8     750     747     753     756      10
     750     747     753     759       6     750     747    -753     759       7
     750     747     765     768       9     747     753     759     762       6
     747     753    -759     762      11     738     735     741     744      39
     729     723     720     732      15     726     723     720     732      15
     720     732     735     738      39     717     720     723     726      15
     717     720     723     729      15     711     708     705     744      22
     711     708     714     717      23     705     699     753     756      10
     702     699     705     708      14     702     699     705     744      14
     702     699     753     747      10     702     699     753     756      10
     702     699     753     759      10     699     705     708     711      22
     699     753     747     750      10     699     753     759     762       6
     699     753    -759     762      11     696     690     747     750       6
     696     690    -747     750       7     696     699     753     756       6
     696     699    -753     756       7     693     690     696     699       9
     693     690     747     750      10     693     690     747     753      10
     693     690     747     765       6     693     690    -747     765       7
     690     696     699     702       9     690     747     753     756      10
     687     681     690     693      10     687     681     690     696       6
     687     681    -690     696       7     687     681     690     747      10
     684     681     690     693      10     684     681     690     696       6
     684     681    -690     696       7     684     681     690     747      10
     681     690     747     750      10     678     681     690     693       6
     678     681    -690     693       7     669     678     681     684       9
     669     678     681     687       9     846     843     837     855       6
     846     843    -837     855       7     846     843     849     852       8
     840     837     843     846      10     840     837     843     849       6
     840     837    -843     849       7     840     837     855     858       9
     837     843     849     852       6     837     843    -849     852      11
     828     825     831     834      19     822     819     825     828      19
     816     813     819     822      45     816     813     819     825      45
     813     819     825     828      19     810     807     804     831      46
     810     807     813     816      47     810     807     813     819      47
     804     798     843     846      10     804     807     813     816      47
     804     831     825     828      19     801     798     804     807      14
     801     798     804     831      14     801     798     843     837      10
     801     798     843     846      10     801     798     843     849      10
     798     804     807     810      46     798     843     837     840      10
     798     843     849     852       6     798     843    -849     852      11
     795     789     837     840       6     795     789    -837     840       7
     795     798     843     846       6     795     798    -843     846       7
     792     789     795     798       9     792     789     837     840      10
     792     789     837     843      10     792     789     837     855       6
     792     789    -837     855       7     789     795     798     801       9
     789     837     843     846      10     786     780     789     792      10
     786     780     789     795       6     786     780    -789     795       7
     786     780     789     837      10     783     780     789     792      10
     783     780     789     795       6     783     780    -789     795       7
     783     780     789     837      10     780     789     837     840      10
     777     780     789     792       6     777     780    -789     792       7
     768     777     780     783       9     768     777     780     786       9
     945     942     936     954       6     945     942    -936     954       7
     945     942     948     951       8     939     936     942     945      10
     939     936     942     948       6     939     936    -942     948       7
     939     936     954     957       9     936     942     948     951       6
     936     942    -948     951      11     927     924     930     933      39
     918     912     909     921      15     915     912     909     921      15
     909     921     924     927      39     906     909     912     915      15
     906     909     912     918      15     900     897     894     933      22
     900     897     903     906      23     894     888     942     945      10
     891     888     894     897      14     891     888     894     933      14
     891     888     942     936      10     891     888     942     945      10
     891     888     942     948      10     888     894     897     900      22
     888     942     936     939      10     888     942     948     951       6
     888     942    -948     951      11     885     879     936     939       6
     885     879    -936     939       7     885     888     942     945       6
     885     888    -942     945       7     882     879     885     888       9
     882     879     936     939      10     882     879     936     942      10
     882     879     936     954       6     882     879    -936     954       7
     879     885     888     891       9     879     936     942     945      10
     876     870     879     882      10     876     870     879     885       6
     876     870    -879     885       7     876     870     879     936      10
     873     870     879     882      10     873     870     879     885       6
     873     870    -879     885       7     873     870     879     936      10
     870     879     936     939      10     867     870     879     882       6
     867     870    -879     882       7     858     867     870     873       9
     858     867     870     876       9    1044    1041    1035    1053       6
    1044    1041   -1035    1053       7    1044    1041    1047    1050       8
    1038    1035    1041    1044      10    1038    1035    1041    1047       6
    1038    1035   -1041    1047       7    1038    1035    1053    1056       9
    1035    1041    1047    1050       6    1035    1041   -1047    1050      11
    1026    1023    1029    1032      39    1017    1011    1008    1020      15
    1014    1011    1008    1020      15    1008    1020    1023    1026      39
    1005    1008    1011    1014      15    1005    1008    1011    1017      15
     999     996     993    1032      22     999     996    1002    1005      23
     993     987    1041    1044      10     990     987     993     996      14
     990     987     993    1032      14     990     987    1041    1035      10
     990     987    1041    1044      10     990     987    1041    1047      10
     987     993     996     999      22     987    1041    1035    1038      10
     987    1041    1047    1050       6     987    1041   -1047    1050      11
     984     978    1035    1038       6     984     978   -1035    1038       7
     984     987    1041    1044       6     984     987   -1041    1044       7
     981     978     984     987       9     981     978    1035    1038      10
     981     978    1035    1041      10     981     978    1035    1053       6
     981     978   -1035    1053       7     978     984     987     990       9
     978    1035    1041    1044      10     975     969     978     981      10
     975     969     978     984       6     975     969    -978     984       7
     975     969     978    1035      10     972     969     978     981      10
     972     969     978     984       6     972     969    -978     984       7
     972     969     978    1035      10     969     978    1035    1038      10
     966     969     978     981       6     966     969    -978     981       7
     957     966     969     972       9     957     966     969     975       9
    1134    1131    1125    1143       6    1134    1131   -1125    1143       7
    1134    1131    1137    1140       8    1128    1125    1131    1134      10
    1128    1125    1131    1137       6    1128    1125   -1131    1137       7
    1128    1125    1143    1146       9    1125    1131    1137    1140       6
    1125    1131   -1137    1140      11    1116    1113    1119    1122      19
    1110    1107    1113    1116      19    1104    1101    1107    1110      45
    1104    1101    1107    1113      45    1101    1107    1113    1116      19
    1098    1095    1092    1119      46    1098    1095    1101    1104      47
    1098    1095    1101    1107      47    1092    1086    1131    1134      10
    1092    1095    1101    1104      47    1092    1119    1113    1116      19
    1089    1086    1092    1095      14    1089    1086    1092    1119      14
    1089    1086    1131    1125      10    1089    1086    1131    1134      10
    1089    1086    1131    1137      10    1086    1092    1095    1098      46
    1086    1131    1125    1128      10    1086    1131    1137    1140       6
    1086    1131   -1137    1140      11    1083    1077    1125    1128       6
    1083    1077   -1125    1128       7    1083    1086    1131    1134       6
    1083    1086   -1131    1134       7    1080    1077    1083    1086       9
    1080    1077    1125    1128      10    1080    1077    1125    1131      10
    1080    1077    1125    1143       6    1080    1077   -1125    1143       7
    1077    1083    1086    1089       9    1077    1125    1131    1134      10
    1074    1068    1077    1080      10    1074    1068    1077    1083       6
    1074    1068   -1077    1083       7    1074    1068    1077    1125      10
    1071    1068    1077    1080      10    1071    1068    1077    1083       6
    1071    1068   -1077    1083       7    1071    1068    1077    1125      10
    1068    1077    1125    1128      10    1065    1068    1077    1080       6
    1065    1068   -1077    1080       7    1056    1065    1068    1071       9
    1056    1065    1068    1074       9    1227    1224    1218    1236       6
    1227    1224   -1218    1236       7    1227    1224    1230    1233       8
    1221    1218    1224    1227      10    1221    1218    1224    1230       6
    1221    1218   -1224    1230       7    1221    1218    1236    1239       9
    1218    1224    1230    1233       6    1218    1224   -1230    1233      11
    1206    1200    1197    1209      15    1203    1200    1197    1209      15
    1194    1191    1197    1200      25    1194    1191    1197    1209      25
    1191    1197    1200    1203      15    1191    1197    1200    1206      15
    1188    1185    1182    1212      46    1188    1185    1191    1194      47
    1188    1185    1191    1197      47    1182    1176    1224    1227      10
    1182    1185    1191    1194      47    1179    1176    1182    1185      14
    1179    1176    1182    1212      14    1179    1176    1224    1218      10
    1179    1176    1224    1227      10    1179    1176    1224    1230      10
    1176    1182    1185    1188      46    1176    1224    1218    1221      10
    1176    1224    1230    1233       6    1176    1224   -1230    1233      11
    1173    1167    1218    1221       6    1173    1167   -1218    1221       7
    1173    1176    1224    1227       6    1173    1176   -1224    1227       7
    1170    1167    1173    1176       9    1170    1167    1218    1221      10
    1170    1167    1218    1224      10    1170    1167    1218    1236       6
    1170    1167   -1218    1236       7    1167    1173    1176    1179       9
    1167    1218    1224    1227      10    1164    1158    1167    1170      10
    1164    1158    1167    1173       6    1164    1158   -1167    1173       7
    1164    1158    1167    1218      10    1161    1158    1167    1170      10
    1161    1158    1167    1173       6    1161    1158   -1167    1173       7
    1161    1158    1167    1218      10    1158    1167    1218    1221      10
    1155    1158    1167    1170       6    1155    1158   -1167    1170       7
    1146    1155    1158    1161       9    1146    1155    1158    1164       9
    1329    1326    1320    1338       6    1329    1326   -1320    1338       7
    1329    1326    1332    1335       8    1323    1320    1326    1329      10
    1323    1320    1326    1332       6    1323    1320   -1326    1332       7
    1323    1320    1338    1341       9    1320    1326    1332    1335       6
    1320    1326   -1332    1335      11    1311    1305    1302    1314      15
    1308    1305    1302    1314      15    1299    1296    1302    1305      17
    1299    1296    1302    1314      17    1296    1302    1305    1308      15
    1296    1302    1305    1311      15    1293    1290    1296    1299      19
    1287    1290    1296    1299      19    1281    1278    1275    1317      22
    1281    1278    1284    1287      23    1275    1269    1326    1329      10
    1272    1269    1275    1278      14    1272    1269    1275    1317      14
    1272    1269    1326    1320      10    1272    1269    1326    1329      10
    1272    1269    1326    1332      10    1269    1275    1278    1281      22
    1269    1326    1320    1323      10    1269    1326    1332    1335       6
    1269    1326   -1332    1335      11    1266    1260    1320    1323       6
    1266    1260   -1320    1323       7    1266    1269    1326    1329       6
    1266    1269   -1326    1329       7    1263    1260    1266    1269       9
    1263    1260    1320    1323      10    1263    1260    1320    1326      10
    1263    1260    1320    1338       6    1263    1260   -1320    1338       7
    1260    1266    1269    1272       9    1260    1320    1326    1329      10
    1257    1251    1260    1263      10    1257    1251    1260    1266       6
    1257    1251   -1260    1266       7    1257    1251    1260    1320      10
    1254    1251    1260    1263      10    1254    1251    1260    1266       6
    1254    1251   -1260    1266       7    1254    1251    1260    1320      10
    1251    1260    1320    1323      10    1248    1251    1260    1263       6
    1248    1251   -1260    1263       7    1239    1248    1251    1254       9
    1239    1248    1251    1257       9    1422    1419    1413    1431       6
    1422    1419   -1413    1431       7    1422    1419    1425    1428       8
    1416    1413    1419    1422      10    1416    1413    1419    1425       6
    1416    1413   -1419    1425       7    1416    1413    1431    1434       9
    1413    1419    1425    1428       6    1413    1419   -1425    1428      11
    1401    1395    1392    1404      15    1398    1395    1392    1404      15
    1389    1386    1392    1395      25    1389    1386    1392    1404      25
    1386    1392    1395    1398      15    1386    1392    1395    1401      15
    1383    1380    1377    1407      46    1383    1380    1386    1389      47
    1383    1380    1386    1392      47    1377    1371    1419    1422      10
    1377    1380    1386    1389      47    1374    1371    1377    1380      14
    1374    1371    1377    1407      14    1374    1371    1419    1413      10
    1374    1371    1419    1422      10    1374    1371    1419    1425      10
    1371    1377    1380    1383      46    1371    1419    1413    1416      10
    1371    1419    1425    1428       6    1371    1419   -1425    1428      11
    1368    1362    1413    1416       6    1368    1362   -1413    1416       7
    1368    1371    1419    1422       6    1368    1371   -1419    1422       7
    1365    1362    1368    1371       9    1365    1362    1413    1416      10
    1365    1362    1413    1419      10    1365    1362    1413    1431       6
    1365    1362   -1413    1431       7    1362    1368    1371    1374       9
    1362    1413    1419    1422      10    1359    1353    1362    1365      10
    1359    1353    1362    1368       6    1359    1353   -1362    1368       7
    1359    1353    1362    1413      10    1356    1353    1362    1365      10
    1356    1353    1362    1368       6    1356    1353   -1362    1368       7
    1356    1353    1362    1413      10    1353    1362    1413    1416      10
    1350    1353    1362    1365       6    1350    1353   -1362    1365       7
    1341    1350    1353    1356       9    1341    1350    1353    1359       9
    1524    1521    1515    1533       6    1524    1521   -1515    1533       7
    1524    1521    1527    1530       8    1518    1515    1521    1524      10
    1518    1515    1521    1527       6    1518    1515   -1521    1527       7
    1518    1515    1533    1536       9    1515    1521    1527    1530       6
    1515    1521   -1527    1530      11    1506    1500    1497    1509      15
    1503    1500    1497    1509      15    1494    1491    1497    1500      17
    1494    1491    1497    1509      17    1491    1497    1500    1503      15
    1491    1497    1500    1506      15    1488    1485    1491    1494      19
    1482    1485    1491    1494      19    1476    1473    1470    1512      22
    1476    1473    1479    1482      23    1470    1464    1521    1524      10
    1467    1464    1470    1473      14    1467    1464    1470    1512      14
    1467    1464    1521    1515      10    1467    1464    1521    1524      10
    1467    1464    1521    1527      10    1464    1470    1473    1476      22
    1464    1521    1515    1518      10    1464    1521    1527    1530       6
    1464    1521   -1527    1530      11    1461    1455    1515    1518       6
    1461    1455   -1515    1518       7    1461    1464    1521    1524       6
    1461    1464   -1521    1524       7    1458    1455    1461    1464       9
    1458    1455    1515    1518      10    1458    1455    1515    1521      10
    1458    1455    1515    1533       6    1458    1455   -1515    1533       7
    1455    1461    1464    1467       9    1455    1515    1521    1524      10
    1452    1446    1455    1458      10    1452    1446    1455    1461       6
    1452    1446   -1455    1461       7    1452    1446    1455    1515      10
    1449    1446    1455    1458      10    1449    1446    1455    1461       6
    1449    1446   -1455    1461       7    1449    1446    1455    1515      10
    1446    1455    1515    1518      10    1443    1446    1455    1458       6
    1443    1446   -1455    1458       7    1434    1443    1446    1449       9
    1434    1443    1446    1452       9    1614    1611    1605    1623       6
    1614    1611   -1605    1623       7    1614    1611    1617    1620       8
    1608    1605    1611    1614      10    1608    1605    1611    1617       6
    1608    1605   -1611    1617       7    1608    1605    1623    1626       9
    1605    1611    1617    1620       6    1605    1611   -1617    1620      11
    1596    1593    1599    1602      19    1590    1587    1593    1596      19
    1584    1581    1587    1590      45    1584    1581    1587    1593      45
    1581    1587    1593    1596      19    1578    1575    1572    1599      46
    1578    1575    1581    1584      47    1578    1575    1581    1587      47
    1572    1566    1611    1614      10    1572    1575    1581    1584      47
    1572    1599    1593    1596      19    1569    1566    1572    1575      14
    1569    1566    1572    1599      14    1569    1566    1611    1605      10
    1569    1566    1611    1614      10    1569    1566    1611    1617      10
    1566    1572    1575    1578      46    1566    1611    1605    1608      10
    1566    1611    1617    1620       6    1566    1611   -1617    1620      11
    1563    1557    1605    1608       6    1563    1557   -1605    1608       7
    1563    1566    1611    1614       6    1563    1566   -1611    1614       7
    1560    1557    1563    1566       9    1560    1557    1605    1608      10
    1560    1557    1605    1611      10    1560    1557    1605    1623       6
    1560    1557   -1605    1623       7    1557    1563    1566    1569       9
    1557    1605    1611    1614      10    1554    1548    1557    1560      10
    1554    1548    1557    1563       6    1554    1548   -1557    1563       7
    1554    1548    1557    1605      10    1551    1548    1557    1560      10
    1551    1548    1557    1563       6    1551    1548   -1557    1563       7
    1551    1548    1557    1605      10    1548    1557    1605    1608      10
    1545    1548    1557    1560       6    1545    1548   -1557    1560       7
    1536    1545    1548    1551       9    1536    1545    1548    1554       9
    1716    1713    1707    1725       6    1716    1713   -1707    1725       7
    1716    1713    1719    1722       8    1710    1707    1713    1716      10
    1710    1707    1713    1719       6    1710    1707   -1713    1719       7
    1710    1707    1725    1728       9    1707    1713    1719    1722       6
    1707    1713   -1719    1722      11    1698    1692    1689    1701      15
    1695    1692    1689    1701      15    1686    1683    1689    1692      17
    1686    1683    1689    1701      17    1683    1689    1692    1695      15
    1683    1689    1692    1698      15    1680    1677    1683    1686      19
    1674    1677    1683    1686      19    1668    1665    1662    1704      22
    1668    1665    1671    1674      23    1662    1656    1713    1716      10
    1659    1656    1662    1665      14    1659    1656    1662    1704      14
    1659    1656    1713    1707      10    1659    1656    1713    1716      10
    1659    1656    1713    1719      10    1656    1662    1665    1668      22
    1656    1713    1707    1710      10    1656    1713    1719    1722       6
    1656    1713   -1719    1722      11    1653    1647    1707    1710       6
    1653    1647   -1707    1710       7    1653    1656    1713    1716       6
    1653    1656   -1713    1716       7    1650    1647    1653    1656       9
    1650    1647    1707    1710      10    1650    1647    1707    1713      10
    1650    1647    1707    1725       6    1650    1647   -1707    1725       7
    1647    1653    1656    1659       9    1647    1707    1713    1716      10
    1644    1638    1647    1650      10    1644    1638    1647    1653       6
    1644    1638   -1647    1653       7    1644    1638    1647    1707      10
    1641    1638    1647    1650      10    1641    1638    1647    1653       6
    1641    1638   -1647    1653       7    1641    1638    1647    1707      10
    1638    1647    1707    1710      10    1635    1638    1647    1650       6
    1635    1638   -1647    1650       7    1626    1635    1638    1641       9
    1626    1635    1638    1644       9    1818    1815    1809    1827       6
    1818    1815   -1809    1827       7    1818    1815    1821    1824       8
    1812    1809    1815    1818      10    1812    1809    1815    1821       6
    1812    1809   -1815    1821       7    1812    1809    1827    1830       9
    1809    1815    1821    1824       6    1809    1815   -1821    1824      11
    1800    1794    1791    1803      15    1797    1794    1791    1803      15
    1788    1785    1791    1794      17    1788    1785    1791    1803      17
    1785    1791    1794    1797      15    1785    1791    1794    1800      15
    1782    1779    1785    1788      19    1776    1779    1785    1788      19
    1770    1767    1764    1806      22    1770    1767    1773    1776      23
    1764    1758    1815    1818      10    1761    1758    1764    1767      14
    1761    1758    1764    1806      14    1761    1758    1815    1809      10
    1761    1758    1815    1818      10    1761    1758    1815    1821      10
    1758    1764    1767    1770      22    1758    1815    1809    1812      10
    1758    1815    1821    1824       6    1758    1815   -1821    1824      11
    1755    1749    1809    1812       6    1755    1749   -1809    1812       7
    1755    1758    1815    1818       6    1755    1758   -1815    1818       7
    1752    1749    1755    1758       9    1752    1749    1809    1812      10
    1752    1749    1809    1815      10    1752    1749    1809    1827       6
    1752    1749   -1809    1827       7    1749    1755    1758    1761       9
    1749    1809    1815    1818      10    1746    1740    1749    1752      10
    1746    1740    1749    1755       6    1746    1740   -1749    1755       7
    1746    1740    1749    1809      10    1743    1740    1749    1752      10
    1743    1740    1749    1755       6    1743    1740   -1749    1755       7
    1743    1740    1749    1809      10    1740    1749    1809    1812      10
    1737    1740    1749    1752       6    1737    1740   -1749    1752       7
    1728    1737    1740    1743       9    1728    1737    1740    1746       9
    1917    1914    1908    1926       6    1917    1914   -1908    1926       7
    1917    1914    1920    1923       8    1911    1908    1914    1917      10
    1911    1908    1914    1920       6    1911    1908   -1914    1920       7
    1911    1908    1926    1929       9    1908    1914    1920    1923       6
    1908    1914   -1920    1923      11    1899    1896    1902    1905      39
    1890    1884    1881    1893      15    1887    1884    1881    1893      15
    1881    1893    1896    1899      39    1878    1881    1884    1887      15
    1878    1881    1884    1890      15    1872    1869    1866    1905      22
    1872    1869    1875    1878      23    1866    1860    1914    1917      10
    1863    1860    1866    1869      14    1863    1860    1866    1905      14
    1863    1860    1914    1908      10    1863    1860    1914    1917      10
    1863    1860    1914    1920      10    1860    1866    1869    1872      22
    1860    1914    1908    1911      10    1860    1914    1920    1923       6
    1860    1914   -1920    1923      11    1857    1851    1908    1911       6
    1857    1851   -1908    1911       7    1857    1860    1914    1917       6
    1857    1860   -1914    1917       7    1854    1851    1857    1860       9
    1854    1851    1908    1911      10    1854    1851    1908    1914      10
    1854    1851    1908    1926       6    1854    1851   -1908    1926       7
    1851    1857    1860    1863       9    1851    1908    1914    1917      10
    1848    1842    1851    1854      10    1848    1842    1851    1857       6
    1848    1842   -1851    1857       7    1848    1842    1851    1908      10
    1845    1842    1851    1854      10    1845    1842    1851    1857       6
    1845    1842   -1851    1857       7    1845    1842    1851    1908      10
    1842    1851    1908    1911      10    1839    1842    1851    1854       6
    1839    1842   -1851    1854       7    1830    1839    1842    1845       9
    1830    1839    1842    1848       9    2007    2004    1998    2016       6
    2007    2004   -1998    2016       7    2007    2004    2010    2013       8
    2001    1998    2004    2007      10    2001    1998    2004    2010       6
    2001    1998   -2004    2010       7    2001    1998    2016    2019       9
    1998    2004    2010    2013       6    1998    2004   -2010    2013      11
    1989    1986    1992    1995      19    1983    1980    1986    1989      19
    1977    1974    1980    1983      45    1977    1974    1980    1986      45
    1974    1980    1986    1989      19    1971    1968    1965    1992      46
    1971    1968    1974    1977      47    1971    1968    1974    1980      47
    1965    1959    2004    2007      10    1965    1968    1974    1977      47
    1965    1992    1986    1989      19    1962    1959    1965    1968      14
    1962    1959    1965    1992      14    1962    1959    2004    1998      10
    1962    1959    2004    2007      10    1962    1959    2004    2010      10
    1959    1965    1968    1971      46    1959    2004    1998    2001      10
    1959    2004    2010    2013       6    1959    2004   -2010    2013      11
    1956    1950    1998    2001       6    1956    1950   -1998    2001       7
    1956    1959    2004    2007       6    1956    1959   -2004    2007       7
    1953    1950    1956    1959       9    1953    1950    1998    2001      10
    1953    1950    1998    2004      10    1953    1950    1998    2016       6
    1953    1950   -1998    2016       7    1950    1956    1959    1962       9
    1950    1998    2004    2007      10    1947    1941    1950    1953      10
    1947    1941    1950    1956       6    1947    1941   -1950    1956       7
    1947    1941    1950    1998      10    1944    1941    1950    1953      10
    1944    1941    1950    1956       6    1944    1941   -1950    1956       7
    1944    1941    1950    1998      10    1941    1950    1998    2001      10
    1938    1941    1950    1953       6    1938    1941   -1950    1953       7
    1929    1938    1941    1944       9    1929    1938    1941    1947       9
    2106    2103    2097    2115       6    2106    2103   -2097    2115       7
    2106    2103    2109    2112       8    2100    2097    2103    2106      10
    2100    2097    2103    2109       6    2100    2097   -2103    2109       7
    2100    2097    2115    2118       9    2097    2103    2109    2112       6
    2097    2103   -2109    2112      11    2088    2085    2091    2094      39
    2079    2073    2070    2082      15    2076    2073    2070    2082      15
    2070    2082    2085    2088      39    2067    2070    2073    2076      15
    2067    2070    2073    2079      15    2061    2058    2055    2094      22
    2061    2058    2064    2067      23    2055    2049    2103    2106      10
    2052    2049    2055    2058      14    2052    2049    2055    2094      14
    2052    2049    2103    2097      10    2052    2049    2103    2106      10
    2052    2049    2103    2109      10    2049    2055    2058    2061      22
    2049    2103    2097    2100      10    2049    2103    2109    2112       6
    2049    2103   -2109    2112      11    2046    2040    2097    2100       6
    2046    2040   -2097    2100       7    2046    2049    2103    2106       6
    2046    2049   -2103    2106       7    2043    2040    2046    2049       9
    2043    2040    2097    2100      10    2043    2040    2097    2103      10
    2043    2040    2097    2115       6    2043    2040   -2097    2115       7
    2040    2046    2049    2052       9    2040    2097    2103    2106      10
    2037    2031    2040    2043      10    2037    2031    2040    2046       6
    2037    2031   -2040    2046       7    2037    2031    2040    2097      10
    2034    2031    2040    2043      10    2034    2031    2040    2046       6
    2034    2031   -2040    2046       7    2034    2031    2040    2097      10
    2031    2040    2097    2100      10    2028    2031    2040    2043       6
    2028    2031   -2040    2043       7    2019    2028    2031    2034       9
    2019    2028    2031    2037       9    2196    2193    2187    2205       6
    2196    2193   -2187    2205       7    2196    2193    2199    2202       8
    2190    2187    2193    2196      10    2190    2187    2193    2199       6
    2190    2187   -2193    2199       7    2190    2187    2205    2208       9
    2187    2193    2199    2202       6    2187    2193   -2199    2202      11
    2178    2175    2181    2184      19    2172    2169    2175    2178      19
    2166    2163    2169    2172      45    2166    2163    2169    2175      45
    2163    2169    2175    2178      19    2160    2157    2154    2181      46
    2160    2157    2163    2166      47    2160    2157    2163    2169      47
    2154    2148    2193    2196      10    2154    2157    2163    2166      47
    2154    2181    2175    2178      19    2151    2148    2154    2157      14
    2151    2148    2154    2181      14    2151    2148    2193    2187      10
    2151    2148    2193    2196      10    2151    2148    2193    2199      10
    2148    2154    2157    2160      46    2148    2193    2187    2190      10
    2148    2193    2199    2202       6    2148    2193   -2199    2202      11
    2145    2139    2187    2190       6    2145    2139   -2187    2190       7
    2145    2148    2193    2196       6    2145    2148   -2193    2196       7
    2142    2139    2145    2148       9    2142    2139    2187    2190      10
    2142    2139    2187    2193      10    2142    2139    2187    2205       6
    2142    2139   -2187    2205       7    2139    2145    2148    2151       9
    2139    2187    2193    2196      10    2136    2130    2139    2142      10
    2136    2130    2139    2145       6    2136    2130   -2139    2145       7
    2136    2130    2139    2187      10    2133    2130    2139    2142      10
    2133    2130    2139    2145       6    2133    2130   -2139    2145       7
    2133    2130    2139    2187      10    2130    2139    2187    2190      10
    2127    2130    2139    2142       6    2127    2130   -2139    2142       7
    2118    2127    2130    2133       9    2118    2127    2130    2136       9
    2298    2295    2289    2307       6    2298    2295   -2289    2307       7
    2298    2295    2301    2304       8    2292    2289    2295    2298      10
    2292    2289    2295    2301       6    2292    2289   -2295    2301       7
    2292    2289    2307    2310       9    2289    2295    2301    2304       6
    2289    2295   -2301    2304      11    2280    2274    2271    2283      15
    2277    2274    2271    2283      15    2268    2265    2271    2274      17
    2268    2265    2271    2283      17    2265    2271    2274    2277      15
    2265    2271    2274    2280      15    2262    2259    2265    2268      19
    2256    2259    2265    2268      19    2250    2247    2244    2286      22
    2250    2247    2253    2256      23    2244    2238    2295    2298      10
    2241    2238    2244    2247      14    2241    2238    2244    2286      14
    2241    2238    2295    2289      10    2241    2238    2295    2298      10
    2241    2238    2295    2301      10    2238    2244    2247    2250      22
    2238    2295    2289    2292      10    2238    2295    2301    2304       6
    2238    2295   -2301    2304      11    2235    2229    2289    2292       6
    2235    2229   -2289    2292       7    2235    2238    2295    2298       6
    2235    2238   -2295    2298       7    2232    2229    2235    2238       9
    2232    2229    2289    2292      10    2232    2229    2289    2295      10
    2232    2229    2289    2307       6    2232    2229   -2289    2307       7
    2229    2235    2238    2241       9    2229    2289    2295    2298      10
    2226    2220    2229    2232      10    2226    2220    2229    2235       6
    2226    2220   -2229    2235       7    2226    2220    2229    2289      10
    2223    2220    2229    2232      10    2223    2220    2229    2235       6
    2223    2220   -2229    2235       7    2223    2220    2229    2289      10
    2220    2229    2289    2292      10    2217    2220    2229    2232       6
    2217    2220   -2229    2232       7    2208    2217    2220    2223       9
    2208    2217    2220    2226       9    2400    2397    2391    2409       6
    2400    2397   -2391    2409       7    2400    2397    2403    2406       8
    2394    2391    2397    2400      10    2394    2391    2397    2403       6
    2394    2391   -2397    2403       7    2394    2391    2409    2412       9
    2391    2397    2403    2406       6    2391    2397   -2403    2406      11
    2382    2376    2373    2385      15    2379    2376    2373    2385      15
    2370    2367    2373    2376      17    2370    2367    2373    2385      17
    2367    2373    2376    2379      15    2367    2373    2376    2382      15
    2364    2361    2367    2370      19    2358    2361    2367    2370      19
    2352    2349    2346    2388      22    2352    2349    2355    2358      23
    2346    2340    2397    2400      10    2343    2340    2346    2349      14
    2343    2340    2346    2388      14    2343    2340    2397    2391      10
    2343    2340    2397    2400      10    2343    2340    2397    2403      10
    2340    2346    2349    2352      22    2340    2397    2391    2394      10
    2340    2397    2403    2406       6    2340    2397   -2403    2406      11
    2337    2331    2391    2394       6    2337    2331   -2391    2394       7
    2337    2340    2397    2400       6    2337    2340   -2397    2400       7
    2334    2331    2337    2340       9    2334    2331    2391    2394      10
    2334    2331    2391    2397      10    2334    2331    2391    2409       6
    2334    2331   -2391    2409       7    2331    2337    2340    2343       9
    2331    2391    2397    2400      10    2328    2322    2331    2334      10
    2328    2322    2331    2337       6    2328    2322   -2331    2337       7
    2328    2322    2331    2391      10    2325    2322    2331    2334      10
    2325    2322    2331    2337       6    2325    2322   -2331    2337       7
    2325    2322    2331    2391      10    2322    2331    2391    2394      10
    2319    2322    2331    2334       6    2319    2322   -2331    2334       7
    2310    2319    2322    2325       9    2310    2319    2322    2328       9
    2493    2490    2484    2502       6    2493    2490   -2484    2502       7
    2493    2490    2496    2499       8    2487    2484    2490    2493      10
    2487    2484    2490    2496       6    2487    2484   -2490    2496       7
    2487    2484    2502    2505       9    2484    2490    2496    2499       6
    2484    2490   -2496    2499      11    2472    2466    2463    2475      15
    2469    2466    2463    2475      15    2460    2457    2463    2466      25
    2460    2457    2463    2475      25    2457    2463    2466    2469      15
    2457    2463    2466    2472      15    2454    2451    2448    2478      46
    2454    2451    2457    2460      47    2454    2451    2457    2463      47
    2448    2442    2490    2493      10    2448    2451    2457    2460      47
    2445    2442    2448    2451      14    2445    2442    2448    2478      14
    2445    2442    2490    2484      10    2445    2442    2490    2493      10
    2445    2442    2490    2496      10    2442    2448    2451    2454      46
    2442    2490    2484    2487      10    2442    2490    2496    2499       6
    2442    2490   -2496    2499      11    2439    2433    2484    2487       6
    2439    2433   -2484    2487       7    2439    2442    2490    2493       6
    2439    2442   -2490    2493       7    2436    2433    2439    2442       9
    2436    2433    2484    2487      10    2436    2433    2484    2490      10
    2436    2433    2484    2502       6    2436    2433   -2484    2502       7
    2433    2439    2442    2445       9    2433    2484    2490    2493      10
    2430    2424    2433    2436      10    2430    2424    2433    2439       6
    2430    2424   -2433    2439       7    2430    2424    2433    2484      10
    2427    2424    2433    2436      10    2427    2424    2433    2439       6
    2427    2424   -2433    2439       7    2427    2424    2433    2484      10
    2424    2433    2484    2487      10    2421    2424    2433    2436       6
    2421    2424   -2433    2436       7    2412    2421    2424    2427       9
    2412    2421    2424    2430       9    2592    2589    2583    2601       6
    2592    2589   -2583    2601       7    2592    2589    2595    2598       8
    2586    2583    2589    2592      10    2586    2583    2589    2595       6
    2586    2583   -2589    2595       7    2586    2583    2601    2604       9
    2583    2589    2595    2598       6    2583    2589   -2595    2598      11
    2574    2571    2577    2580      39    2565    2559    2556    2568      15
    2562    2559    2556    2568      15    2556    2568    2571    2574      39
    2553    2556    2559    2562      15    2553    2556    2559    2565      15
    2547    2544    2541    2580      22    2547    2544    2550    2553      23
    2541    2535    2589    2592      10    2538    2535    2541    2544      14
    2538    2535    2541    2580      14    2538    2535    2589    2583      10
    2538    2535    2589    2592      10    2538    2535    2589    2595      10
    2535    2541    2544    2547      22    2535    2589    2583    2586      10
    2535    2589    2595    2598       6    2535    2589   -2595    2598      11
    2532    2526    2583    2586       6    2532    2526   -2583    2586       7
    2532    2535    2589    2592       6    2532    2535   -2589    2592       7
    2529    2526    2532    2535       9    2529    2526    2583    2586      10
    2529    2526    2583    2589      10    2529    2526    2583    2601       6
    2529    2526   -2583    2601       7    2526    2532    2535    2538       9
    2526    2583    2589    2592      10    2523    2517    2526    2529      10
    2523    2517    2526    2532       6    2523    2517   -2526    2532       7
    2523    2517    2526    2583      10    2520    2517    2526    2529      10
    2520    2517    2526    2532       6    2520    2517   -2526    2532       7
    2520    2517    2526    2583      10    2517    2526    2583    2586      10
    2514    2517    2526    2529       6    2514    2517   -2526    2529       7
    2505    2514    2517    2520       9    2505    2514    2517    2523       9
    2685    2682    2676    2694       6    2685    2682   -2676    2694       7
    2685    2682    2688    2691       8    2679    2676    2682    2685      10
    2679    2676    2682    2688       6    2679    2676   -2682    2688       7
    2679    2676    2694    2697       9    2676    2682    2688    2691       6
    2676    2682   -2688    2691      11    2664    2658    2655    2667      15
    2661    2658    2655    2667      15    2652    2649    2655    2658      25
    2652    2649    2655    2667      25    2649    2655    2658    2661      15
    2649    2655    2658    2664      15    2646    2643    2640    2670      46
    2646    2643    2649    2652      47    2646    2643    2649    2655      47
    2640    2634    2682    2685      10    2640    2643    2649    2652      47
    2637    2634    2640    2643      14    2637    2634    2640    2670      14
    2637    2634    2682    2676      10    2637    2634    2682    2685      10
    2637    2634    2682    2688      10    2634    2640    2643    2646      46
    2634    2682    2676    2679      10    2634    2682    2688    2691       6
    2634    2682   -2688    2691      11    2631    2625    2676    2679       6
    2631    2625   -2676    2679       7    2631    2634    2682    2685       6
    2631    2634   -2682    2685       7    2628    2625    2631    2634       9
    2628    2625    2676    2679      10    2628    2625    2676    2682      10
    2628    2625    2676    2694       6    2628    2625   -2676    2694       7
    2625    2631    2634    2637       9    2625    2676    2682    2685      10
    2622    2616    2625    2628      10    2622    2616    2625    2631       6
    2622    2616   -2625    2631       7    2622    2616    2625    2676      10
    2619    2616    2625    2628      10    2619    2616    2625    2631       6
    2619    2616   -2625    2631       7    2619    2616    2625    2676      10
    2616    2625    2676    2679      10    2613    2616    2625    2628       6
    2613    2616   -2625    2628       7    2604    2613    2616    2619       9
    2604    2613    2616    2622       9    2787    2784    2778    2796       6
    2787    2784   -2778    2796       7    2787    2784    2790    2793       8
    2781    2778    2784    2787      10    2781    2778    2784    2790       6
    2781    2778   -2784    2790       7    2781    2778    2796    2799       9
    2778    2784    2790    2793       6    2778    2784   -2790    2793      11
    2769    2763    2760    2772      15    2766    2763    2760    2772      15
    2757    2754    2760    2763      17    2757    2754    2760    2772      17
    2754    2760    2763    2766      15    2754    2760    2763    2769      15
    2751    2748    2754    2757      19    2745    2748    2754    2757      19
    2739    2736    2733    2775      22    2739    2736    2742    2745      23
    2733    2727    2784    2787      10    2730    2727    2733    2736      14
    2730    2727    2733    2775      14    2730    2727    2784    2778      10
    2730    2727    2784    2787      10    2730    2727    2784    2790      10
    2727    2733    2736    2739      22    2727    2784    2778    2781      10
    2727    2784    2790    2793       6    2727    2784   -2790    2793      11
    2724    2718    2778    2781       6    2724    2718   -2778    2781       7
    2724    2727    2784    2787       6    2724    2727   -2784    2787       7
    2721    2718    2724    2727       9    2721    2718    2778    2781      10
    2721    2718    2778    2784      10    2721    2718    2778    2796       6
    2721    2718   -2778    2796       7    2718    2724    2727    2730       9
    2718    2778    2784    2787      10    2715    2709    2718    2721      10
    2715    2709    2718    2724       6    2715    2709   -2718    2724       7
    2715    2709    2718    2778      10    2712    2709    2718    2721      10
    2712    2709    2718    2724       6    2712    2709   -2718    2724       7
    2712    2709    2718    2778      10    2709    2718    2778    2781      10
    2706    2709    2718    2721       6    2706    2709   -2718    2721       7
    2697    2706    2709    2712       9    2697    2706    2709    2715       9
    2880    2877    2871    2889       6    2880    2877   -2871    2889       7
    2880    2877    2883    2886       8    2874    2871    2877    2880      10
    2874    2871    2877    2883       6    2874    2871   -2877    2883       7
    2874    2871    2889    2892       9    2871    2877    2883    2886       6
    2871    2877   -2883    2886      11    2859    2853    2850    2862      15
    2856    2853    2850    2862      15    2847    2844    2850    2853      25
    2847    2844    2850    2862      25    2844    2850    2853    2856      15
    2844    2850    2853    2859      15    2841    2838    2835    2865      46
    2841    2838    2844    2847      47    2841    2838    2844    2850      47
    2835    2829    2877    2880      10    2835    2838    2844    2847      47
    2832    2829    2835    2838      14    2832    2829    2835    2865      14
    2832    2829    2877    2871      10    2832    2829    2877    2880      10
    2832    2829    2877    2883      10    2829    2835    2838    2841      46
    2829    2877    2871    2874      10    2829    2877    2883    2886       6
    2829    2877   -2883    2886      11    2826    2820    2871    2874       6
    2826    2820   -2871    2874       7    2826    2829    2877    2880       6
    2826    2829   -2877    2880       7    2823    2820    2826    2829       9
    2823    2820    2871    2874      10    2823    2820    2871    2877      10
    2823    2820    2871    2889       6    2823    2820   -2871    2889       7
    2820    2826    2829    2832       9    2820    2871    2877    2880      10
    2817    2811    2820    2823      10    2817    2811    2820    2826       6
    2817    2811   -2820    2826       7    2817    2811    2820    2871      10
    2814    2811    2820    2823      10    2814    2811    2820    2826       6
    2814    2811   -2820    2826       7    2814    2811    2820    2871      10
    2811    2820    2871    2874      10    2808    2811    2820    2823       6
    2808    2811   -2820    2823       7    2799    2808    2811    2814       9
    2799    2808    2811    2817       9    2979    2976    2970    2988       6
    2979    2976   -2970    2988       7    2979    2976    2982    2985       8
    2973    2970    2976    2979      10    2973    2970    2976    2982       6
    2973    2970   -2976    2982       7    2973    2970    2988    2991       9
    2970    2976    2982    2985       6    2970    2976   -2982    2985      11
    2961    2958    2964    2967      39    2952    2946    2943    2955      15
    2949    2946    2943    2955      15    2943    2955    2958    2961      39
    2940    2943    2946    2949      15    2940    2943    2946    2952      15
    2934    2931    2928    2967      22    2934    2931    2937    2940      23
    2928    2922    2976    2979      10    2925    2922    2928    2931      14
    2925    2922    2928    2967      14    2925    2922    2976    2970      10
    2925    2922    2976    2979      10    2925    2922    2976    2982      10
    2922    2928    2931    2934      22    2922    2976    2970    2973      10
    2922    2976    2982    2985       6    2922    2976   -2982    2985      11
    2919    2913    2970    2973       6    2919    2913   -2970    2973       7
    2919    2922    2976    2979       6    2919    2922   -2976    2979       7
    2916    2913    2919    2922       9    2916    2913    2970    2973      10
    2916    2913    2970    2976      10    2916    2913    2970    2988       6
    2916    2913   -2970    2988       7    2913    2919    2922    2925       9
    2913    2970    2976    2979      10    2910    2904    2913    2916      10
    2910    2904    2913    2919       6    2910    2904   -2913    2919       7
    2910    2904    2913    2970      10    2907    2904    2913    2916      10
    2907    2904    2913    2919       6    2907    2904   -2913    2919       7
    2907    2904    2913    2970      10    2904    2913    2970    2973      10
    2901    2904    2913    2916       6    2901    2904   -2913    2916       7
    2892    2901    2904    2907       9    2892    2901    2904    2910       9
    3078    3075    3069    3087       6    3078    3075   -3069    3087       7
    3078    3075    3081    3084       8    3072    3069    3075    3078      10
    3072    3069    3075    3081       6    3072    3069   -3075    3081       7
    3072    3069    3087    3090       9    3069    3075    3081    3084       6
    3069    3075   -3081    3084      11    3060    3057    3063    3066      39
    3051    3045    3042    3054      15    3048    3045    3042    3054      15
    3042    3054    3057    3060      39    3039    3042    3045    3048      15
    3039    3042    3045    3051      15    3033    3030    3027    3066      22
    3033    3030    3036    3039      23    3027    3021    3075    3078      10
    3024    3021    3027    3030      14    3024    3021    3027    3066      14
    3024    3021    3075    3069      10    3024    3021    3075    3078      10
    3024    3021    3075    3081      10    3021    3027    3030    3033      22
    3021    3075    3069    3072      10    3021    3075    3081    3084       6
    3021    3075   -3081    3084      11    3018    3012    3069    3072       6
    3018    3012   -3069    3072       7    3018    3021    3075    3078       6
    3018    3021   -3075    3078       7    3015    3012    3018    3021       9
    3015    3012    3069    3072      10    3015    3012    3069    3075      10
    3015    3012    3069    3087       6    3015    3012   -3069    3087       7
    3012    3018    3021    3024       9    3012    3069    3075    3078      10
    3009    3003    3012    3015      10    3009    3003    3012    3018       6
    3009    3003   -3012    3018       7    3009    3003    3012    3069      10
    3006    3003    3012    3015      10    3006    3003    3012    3018       6
    3006    3003   -3012    3018       7    3006    3003    3012    3069      10
    3003    3012    3069    3072      10    3000    3003    3012    3015       6
    3000    3003   -3012    3015       7    2991    3000    3003    3006       9
    2991    3000    3003    3009       9    3180    3177    3171    3189       6
    3180    3177   -3171    3189       7    3180    3177    3183    3186       8
    3174    3171    3177    3180      10    3174    3171    3177    3183       6
    3174    3171   -3177    3183       7    3174    3171    3189    3192       9
    3171    3177    3183    3186       6    3171    3177   -3183    3186      11
    3162    3156    3153    3165      15    3159    3156    3153    3165      15
    3150    3147    3153    3156      17    3150    3147    3153    3165      17
    3147    3153    3156    3159      15    3147    3153    3156    3162      15
    3144    3141    3147    3150      19    3138    3141    3147    3150      19
    3132    3129    3126    3168      22    3132    3129    3135    3138      23
    3126    3120    3177    3180      10    3123    3120    3126    3129      14
    3123    3120    3126    3168      14    3123    3120    3177    3171      10
    3123    3120    3177    3180      10    3123    3120    3177    3183      10
    3120    3126    3129    3132      22    3120    3177    3171    3174      10
    3120    3177    3183    3186       6    3120    3177   -3183    3186      11
    3117    3111    3171    3174       6    3117    3111   -3171    3174       7
    3117    3120    3177    3180       6    3117    3120   -3177    3180       7
    3114    3111    3117    3120       9    3114    3111    3171    3174      10
    3114    3111    3171    3177      10    3114    3111    3171    3189       6
    3114    3111   -3171    3189       7    3111    3117    3120    3123       9
    3111    3171    3177    3180      10    3108    3102    3111    3114      10
    3108    3102    3111    3117       6    3108    3102   -3111    3117       7
    3108    3102    3111    3171      10    3105    3102    3111    3114      10
    3105    3102    3111    3117       6    3105    3102   -3111    3117       7
    3105    3102    3111    3171      10    3102    3111    3171    3174      10
    3099    3102    3111    3114       6    3099    3102   -3111    3114       7
    3090    3099    3102    3105       9    3090    3099    3102    3108       9
    3270    3267    3261    3279       6    3270    3267   -3261    3279       7
    3270    3267    3273    3276       8    3264    3261    3267    3270      10
    3264    3261    3267    3273       6    3264    3261   -3267    3273       7
    3264    3261    3279    3282       9    3261    3267    3273    3276       6
    3261    3267   -3273    3276      11    3252    3249    3255    3258      19
    3246    3243    3249    3252      19    3240    3237    3243    3246      45
    3240    3237    3243    3249      45    3237    3243    3249    3252      19
    3234    3231    3228    3255      46    3234    3231    3237    3240      47
    3234    3231    3237    3243      47    3228    3222    3267    3270      10
    3228    3231    3237    3240      47    3228    3255    3249    3252      19
    3225    3222    3228    3231      14    3225    3222    3228    3255      14
    3225    3222    3267    3261      10    3225    3222    3267    3270      10
    3225    3222    3267    3273      10    3222    3228    3231    3234      46
    3222    3267    3261    3264      10    3222    3267    3273    3276       6
    3222    3267   -3273    3276      11    3219    3213    3261    3264       6
    3219    3213   -3261    3264       7    3219    3222    3267    3270       6
    3219    3222   -3267    3270       7    3216    3213    3219    3222       9
    3216    3213    3261    3264      10    3216    3213    3261    3267      10
    3216    3213    3261    3279       6    3216    3213   -3261    3279       7
    3213    3219    3222    3225       9    3213    3261    3267    3270      10
    3210    3204    3213    3216      10    3210    3204    3213    3219       6
    3210    3204   -3213    3219       7    3210    3204    3213    3261      10
    3207    3204    3213    3216      10    3207    3204    3213    3219       6
    3207    3204   -3213    3219       7    3207    3204    3213    3261      10
    3204    3213    3261    3264      10    3201    3204    3213    3216       6
    3201    3204   -3213    3216       7    3192    3201    3204    3207       9
    3192    3201    3204    3210       9    3360    3357    3351    3369       6
    3360    3357   -3351    3369       7    3360    3357    3363    3366       8
    3354    3351    3357    3360      10    3354    3351    3357    3363       6
    3354    3351   -3357    3363       7    3354    3351    3369    3372       9
    3351    3357    3363    3366       6    3351    3357   -3363    3366      11
    3342    3339    3345    3348      19    3336    3333    3339    3342      19
    3330    3327    3333    3336      45    3330    3327    3333    3339      45
    3327    3333    3339    3342      19    3324    3321    3318    3345      46
    3324    3321    3327    3330      47    3324    3321    3327    3333      47
    3318    3312    3357    3360      10    3318    3321    3327    3330      47
    3318    3345    3339    3342      19    3315    3312    3318    3321      14
    3315    3312    3318    3345      14    3315    3312    3357    3351      10
    3315    3312    3357    3360      10    3315    3312    3357    3363      10
    3312    3318    3321    3324      46    3312    3357    3351    3354      10
    3312    3357    3363    3366       6    3312    3357   -3363    3366      11
    3309    3303    3351    3354       6    3309    3303   -3351    3354       7
    3309    3312    3357    3360       6    3309    3312   -3357    3360       7
    3306    3303    3309    3312       9    3306    3303    3351    3354      10
    3306    3303    3351    3357      10    3306    3303    3351    3369       6
    3306    3303   -3351    3369       7    3303    3309    3312    3315       9
    3303    3351    3357    3360      10    3300    3294    3303    3306      10
    3300    3294    3303    3309       6    3300    3294   -3303    3309       7
    3300    3294    3303    3351      10    3297    3294    3303    3306      10
    3297    3294    3303    3309       6    3297    3294   -3303    3309       7
    3297    3294    3303    3351      10    3294    3303    3351    3354      10
    3291    3294    3303    3306       6    3291    3294   -3303    3306       7
    3282    3291    3294    3297       9    3282    3291    3294    3300       9
    3450    3447    3441    3459       6    3450    3447   -3441    3459       7
    3450    3447    3453    3456       8    3444    3441    3447    3450      10
    3444    3441    3447    3453       6    3444    3441   -3447    3453       7
    3444    3441    3459    3462       9    3441    3447    3453    3456       6
    3441    3447   -3453    3456      11    3432    3429    3435    3438      19
    3426    3423    3429    3432      19    3420    3417    3423    3426      45
    3420    3417    3423    3429      45    3417    3423    3429    3432      19
    3414    3411    3408    3435      46    3414    3411    3417    3420      47
    3414    3411    3417    3423      47    3408    3402    3447    3450      10
    3408    3411    3417    3420      47    3408    3435    3429    3432      19
    3405    3402    3408    3411      14    3405    3402    3408    3435      14
    3405    3402    3447    3441      10    3405    3402    3447    3450      10
    3405    3402    3447    3453      10    3402    3408    3411    3414      46
    3402    3447    3441    3444      10    3402    3447    3453    3456       6
    3402    3447   -3453    3456      11    3399    3393    3441    3444       6
    3399    3393   -3441    3444       7    3399    3402    3447    3450       6
    3399    3402   -3447    3450       7    3396    3393    3399    3402       9
    3396    3393    3441    3444      10    3396    3393    3441    3447      10
    3396    3393    3441    3459       6    3396    3393   -3441    3459       7
    3393    3399    3402    3405       9    3393    3441    3447    3450      10
    3390    3384    3393    3396      10    3390    3384    3393    3399       6
    3390    3384   -3393    3399       7    3390    3384    3393    3441      10
    3387    3384    3393    3396      10    3387    3384    3393    3399       6
    3387    3384   -3393    3399       7    3387    3384    3393    3441      10
    3384    3393    3441    3444      10    3381    3384    3393    3396       6
    3381    3384   -3393    3396       7    3372    3381    3384    3387       9
    3372    3381    3384    3390       9    3543    3540    3534    3552       6
    3543    3540   -3534    3552       7    3543    3540    3546    3549       8
    3537    3534    3540    3543      10    3537    3534    3540    3546       6
    3537    3534   -3540    3546       7    3537    3534    3552    3555       9
    3534    3540    3546    3549       6    3534    3540   -3546    3549      11
    3522    3516    3513    3525      15    3519    3516    3513    3525      15
    3510    3507    3513    3516      25    3510    3507    3513    3525      25
    3507    3513    3516    3519      15    3507    3513    3516    3522      15
    3504    3501    3498    3528      46    3504    3501    3507    3510      47
    3504    3501    3507    3513      47    3498    3492    3540    3543      10
    3498    3501    3507    3510      47    3495    3492    3498    3501      14
    3495    3492    3498    3528      14    3495    3492    3540    3534      10
    3495    3492    3540    3543      10    3495    3492    3540    3546      10
    3492    3498    3501    3504      46    3492    3540    3534    3537      10
    3492    3540    3546    3549       6    3492    3540   -3546    3549      11
    3489    3483    3534    3537       6    3489    3483   -3534    3537       7
    3489    3492    3540    3543       6    3489    3492   -3540    3543       7
    3486    3483    3489    3492       9    3486    3483    3534    3537      10
    3486    3483    3534    3540      10    3486    3483    3534    3552       6
    3486    3483   -3534    3552       7    3483    3489    3492    3495       9
    3483    3534    3540    3543      10    3480    3474    3483    3486      10
    3480    3474    3483    3489       6    3480    3474   -3483    3489       7
    3480    3474    3483    3534      10    3477    3474    3483    3486      10
    3477    3474    3483    3489       6    3477    3474   -3483    3489       7
    3477    3474    3483    3534      10    3474    3483    3534    3537      10
    3471    3474    3483    3486       6    3471    3474   -3483    3486       7
    3462    3471    3474    3477       9    3462    3471    3474    3480       9
    3633    3630    3624    3642       6    3633    3630   -3624    3642       7
    3633    3630    3636    3639       8    3627    3624    3630    3633      10
    3627    3624    3630    3636       6    3627    3624   -3630    3636       7
    3627    3624    3642    3645       9    3624    3630    3636    3639       6
    3624    3630   -3636    3639      11    3615    3612    3618    3621      19
    3609    3606    3612    3615      19    3603    3600    3606    3609      45
    3603    3600    3606    3612      45    3600    3606    3612    3615      19
    3597    3594    3591    3618      46    3597    3594    3600    3603      47
    3597    3594    3600    3606      47    3591    3585    3630    3633      10
    3591    3594    3600    3603      47    3591    3618    3612    3615      19
    3588    3585    3591    3594      14    3588    3585    3591    3618      14
    3588    3585    3630    3624      10    3588    3585    3630    3633      10
    3588    3585    3630    3636      10    3585    3591    3594    3597      46
    3585    3630    3624    3627      10    3585    3630    3636    3639       6
    3585    3630   -3636    3639      11    3582    3576    3624    3627       6
    3582    3576   -3624    3627       7    3582    3585    3630    3633       6
    3582    3585   -3630    3633       7    3579    3576    3582    3585       9
    3579    3576    3624    3627      10    3579    3576    3624    3630      10
    3579    3576    3624    3642       6    3579    3576   -3624    3642       7
    3576    3582    3585    3588       9    3576    3624    3630    3633      10
    3573    3567    3576    3579      10    3573    3567    3576    3582       6
    3573    3567   -3576    3582       7    3573    3567    3576    3624      10
    3570    3567    3576    3579      10    3570    3567    3576    3582       6
    3570    3567   -3576    3582       7    3570    3567    3576    3624      10
    3567    3576    3624    3627      10    3564    3567    3576    3579       6
    3564    3567   -3576    3579       7    3555    3564    3567    3570       9
    3555    3564    3567    3573       9    3732    3729    3723    3741       6
    3732    3729   -3723    3741       7    3732    3729    3735    3738       8
    3726    3723    3729    3732      10    3726    3723    3729    3735       6
    3726    3723   -3729    3735       7    3726    3723    3741    3744       9
    3723    3729    3735    3738       6    3723    3729   -3735    3738      11
    3714    3711    3717    3720      39    3705    3699    3696    3708      15
    3702    3699    3696    3708      15    3696    3708    3711    3714      39
    3693    3696    3699    3702      15    3693    3696    3699    3705      15
    3687    3684    3681    3720      22    3687    3684    3690    3693      23
    3681    3675    3729    3732      10    3678    3675    3681    3684      14
    3678    3675    3681    3720      14    3678    3675    3729    3723      10
    3678    3675    3729    3732      10    3678    3675    3729    3735      10
    3675    3681    3684    3687      22    3675    3729    3723    3726      10
    3675    3729    3735    3738       6    3675    3729   -3735    3738      11
    3672    3666    3723    3726       6    3672    3666   -3723    3726       7
    3672    3675    3729    3732       6    3672    3675   -3729    3732       7
    3669    3666    3672    3675       9    3669    3666    3723    3726      10
    3669    3666    3723    3729      10    3669    3666    3723    3741       6
    3669    3666   -3723    3741       7    3666    3672    3675    3678       9
    3666    3723    3729    3732      10    3663    3657    3666    3669      10
    3663    3657    3666    3672       6    3663    3657   -3666    3672       7
    3663    3657    3666    3723      10    3660    3657    3666    3669      10
    3660    3657    3666    3672       6    3660    3657   -3666    3672       7
    3660    3657    3666    3723      10    3657    3666    3723    3726      10
    3654    3657    3666    3669       6    3654    3657   -3666    3669       7
    3645    3654    3657    3660       9    3645    3654    3657    3663       9
    3825    3822    3816    3834       6    3825    3822   -3816    3834       7
    3825    3822    3828    3831       8    3819    3816    3822    3825      10
    3819    3816    3822    3828       6    3819    3816   -3822    3828       7
    3819    3816    3834    3837       9    3816    3822    3828    3831       6
    3816    3822   -3828    3831      11    3804    3798    3795    3807      15
    3801    3798    3795    3807      15    3792    3789    3795    3798      25
    3792    3789    3795    3807      25    3789    3795    3798    3801      15
    3789    3795    3798    3804      15    3786    3783    3780    3810      46
    3786    3783    3789    3792      47    3786    3783    3789    3795      47
    3780    3774    3822    3825      10    3780    3783    3789    3792      47
    3777    3774    3780    3783      14    3777    3774    3780    3810      14
    3777    3774    3822    3816      10    3777    3774    3822    3825      10
    3777    3774    3822    3828      10    3774    3780    3783    3786      46
    3774    3822    3816    3819      10    3774    3822    3828    3831       6
    3774    3822   -3828    3831      11    3771    3765    3816    3819       6
    3771    3765   -3816    3819       7    3771    3774    3822    3825       6
    3771    3774   -3822    3825       7    3768    3765    3771    3774       9
    3768    3765    3816    3819      10    3768    3765    3816    3822      10
    3768    3765    3816    3834       6    3768    3765   -3816    3834       7
    3765    3771    3774    3777       9    3765    3816    3822    3825      10
    3762    3756    3765    3768      10    3762    3756    3765    3771       6
    3762    3756   -3765    3771       7    3762    3756    3765    3816      10
    3759    3756    3765    3768      10    3759    3756    3765    3771       6
    3759    3756   -3765    3771       7    3759    3756    3765    3816      10
    3756    3765    3816    3819      10    3753    3756    3765    3768       6
    3753    3756   -3765    3768       7    3744    3753    3756    3759       9
    3744    3753    3756    3762       9    3918    3915    3909    3927       6
    3918    3915   -3909    3927       7    3918    3915    3921    3924       8
    3912    3909    3915    3918      10    3912    3909    3915    3921       6
    3912    3909   -3915    3921       7    3912    3909    3927    3930       9
    3909    3915    3921    3924       6    3909    3915   -3921    3924      11
    3897    3891    3888    3900      15    3894    3891    3888    3900      15
    3885    3882    3888    3891      25    3885    3882    3888    3900      25
    3882    3888    3891    3894      15    3882    3888    3891    3897      15
    3879    3876    3873    3903      46    3879    3876    3882    3885      47
    3879    3876    3882    3888      47    3873    3867    3915    3918      10
    3873    3876    3882    3885      47    3870    3867    3873    3876      14
    3870    3867    3873    3903      14    3870    3867    3915    3909      10
    3870    3867    3915    3918      10    3870    3867    3915    3921      10
    3867    3873    3876    3879      46    3867    3915    3909    3912      10
    3867    3915    3921    3924       6    3867    3915   -3921    3924      11
    3864    3858    3909    3912       6    3864    3858   -3909    3912       7
    3864    3867    3915    3918       6    3864    3867   -3915    3918       7
    3861    3858    3864    3867       9    3861    3858    3909    3912      10
    3861    3858    3909    3915      10    3861    3858    3909    3927       6
    3861    3858   -3909    3927       7    3858    3864    3867    3870       9
    3858    3909    3915    3918      10    3855    3849    3858    3861      10
    3855    3849    3858    3864       6    3855    3849   -3858    3864       7
    3855    3849    3858    3909      10    3852    3849    3858    3861      10
    3852    3849    3858    3864       6    3852    3849   -3858    3864       7
    3852    3849    3858    3909      10    3849    3858    3909    3912      10
    3846    3849    3858    3861       6    3846    3849   -3858    3861       7
    3837    3846    3849    3852       9    3837    3846    3849    3855       9
    4020    4017    4011    4029       6    4020    4017   -4011    4029       7
    4020    4017    4023    4026       8    4014    4011    4017    4020      10
    4014    4011    4017    4023       6    4014    4011   -4017    4023       7
    4014    4011    4029    4032       9    4011    4017    4023    4026       6
    4011    4017   -4023    4026      11    4002    3996    3993    4005      15
    3999    3996    3993    4005      15    3990    3987    3993    3996      17
    3990    3987    3993    4005      17    3987    3993    3996    3999      15
    3987    3993    3996    4002      15    3984    3981    3987    3990      19
    3978    3981    3987    3990      19    3972    3969    3966    4008      22
    3972    3969    3975    3978      23    3966    3960    4017    4020      10
    3963    3960    3966    3969      14    3963    3960    3966    4008      14
    3963    3960    4017    4011      10    3963    3960    4017    4020      10
    3963    3960    4017    4023      10    3960    3966    3969    3972      22
    3960    4017    4011    4014      10    3960    4017    4023    4026       6
    3960    4017   -4023    4026      11    3957    3951    4011    4014       6
    3957    3951   -4011    4014       7    3957    3960    4017    4020       6
    3957    3960   -4017    4020       7    3954    3951    3957    3960       9
    3954    3951    4011    4014      10    3954    3951    4011    4017      10
    3954    3951    4011    4029       6    3954    3951   -4011    4029       7
    3951    3957    3960    3963       9    3951    4011    4017    4020      10
    3948    3942    3951    3954      10    3948    3942    3951    3957       6
    3948    3942   -3951    3957       7    3948    3942    3951    4011      10
    3945    3942    3951    3954      10    3945    3942    3951    3957       6
    3945    3942   -3951    3957       7    3945    3942    3951    4011      10
    3942    3951    4011    4014      10    3939    3942    3951    3954       6
    3939    3942   -3951    3954       7    3930    3939    3942    3945       9
    3930    3939    3942    3948       9    4122    4119    4113    4131       6
    4122    4119   -4113    4131       7    4122    4119    4125    4128       8
    4116    4113    4119    4122      10    4116    4113    4119    4125       6
    4116    4113   -4119    4125       7    4116    4113    4131    4134       9
    4113    4119    4125    4128       6    4113    4119   -4125    4128      11
    4104    4098    4095    4107      15    4101    4098    4095    4107      15
    4092    4089    4095    4098      17    4092    4089    4095    4107      17
    4089    4095    4098    4101      15    4089    4095    4098    4104      15
    4086    4083    4089    4092      19    4080    4083    4089    4092      19
    4074    4071    4068    4110      22    4074    4071    4077    4080      23
    4068    4062    4119    4122      10    4065    4062    4068    4071      14
    4065    4062    4068    4110      14    4065    4062    4119    4113      10
    4065    4062    4119    4122      10    4065    4062    4119    4125      10
    4062    4068    4071    4074      22    4062    4119    4113    4116      10
    4062    4119    4125    4128       6    4062    4119   -4125    4128      11
    4059    4053    4113    4116       6    4059    4053   -4113    4116       7
    4059    4062    4119    4122       6    4059    4062   -4119    4122       7
    4056    4053    4059    4062       9    4056    4053    4113    4116      10
    4056    4053    4113    4119      10    4056    4053    4113    4131       6
    4056    4053   -4113    4131       7    4053    4059    4062    4065       9
    4053    4113    4119    4122      10    4050    4044    4053    4056      10
    4050    4044    4053    4059       6    4050    4044   -4053    4059       7
    4050    4044    4053    4113      10    4047    4044    4053    4056      10
    4047    4044    4053    4059       6    4047    4044   -4053    4059       7
    4047    4044    4053    4113      10    4044    4053    4113    4116      10
    4041    4044    4053    4056       6    4041    4044   -4053    4056       7
    4032    4041    4044    4047       9    4032    4041    4044    4050       9
    4224    4221    4215    4233       6    4224    4221   -4215    4233       7
    4224    4221    4227    4230       8    4218    4215    4221    4224      10
    4218    4215    4221    4227       6    4218    4215   -4221    4227       7
    4218    4215    4233    4236       9    4215    4221    4227    4230       6
    4215    4221   -4227    4230      11    4206    4200    4197    4209      15
    4203    4200    4197    4209      15    4194    4191    4197    4200      17
    4194    4191    4197    4209      17    4191    4197    4200    4203      15
    4191    4197    4200    4206      15    4188    4185    4191    4194      19
    4182    4185    4191    4194      19    4176    4173    4170    4212      22
    4176    4173    4179    4182      23    4170    4164    4221    4224      10
    4167    4164    4170    4173      14    4167    4164    4170    4212      14
    4167    4164    4221    4215      10    4167    4164    4221    4224      10
    4167    4164    4221    4227      10    4164    4170    4173    4176      22
    4164    4221    4215    4218      10    4164    4221    4227    4230       6
    4164    4221   -4227    4230      11    4161    4155    4215    4218       6
    4161    4155   -4215    4218       7    4161    4164    4221    4224       6
    4161    4164   -4221    4224       7    4158    4155    4161    4164       9
    4158    4155    4215    4218      10    4158    4155    4215    4221      10
    4158    4155    4215    4233       6    4158    4155   -4215    4233       7
    4155    4161    4164    4167       9    4155    4215    4221    4224      10
    4152    4146    4155    4158      10    4152    4146    4155    4161       6
    4152    4146   -4155    4161       7    4152    4146    4155    4215      10
    4149    4146    4155    4158      10    4149    4146    4155    4161       6
    4149    4146   -4155    4161       7    4149    4146    4155    4215      10
    4146    4155    4215    4218      10    4143    4146    4155    4158       6
    4143    4146   -4155    4158       7    4134    4143    4146    4149       9
    4134    4143    4146    4152       9    4317    4314    4308    4326       6
    4317    4314   -4308    4326       7    4317    4314    4320    4323       8
    4311    4308    4314    4317      10    4311    4308    4314    4320       6
    4311    4308   -4314    4320       7    4311    4308    4326    4329       9
    4308    4314    4320    4323       6    4308    4314   -4320    4323      11
    4296    4290    4287    4299      15    4293    4290    4287    4299      15
    4284    4281    4287    4290      25    4284    4281    4287    4299      25
    4281    4287    4290    4293      15    4281    4287    4290    4296      15
    4278    4275    4272    4302      46    4278    4275    4281    4284      47
    4278    4275    4281    4287      47    4272    4266    4314    4317      10
    4272    4275    4281    4284      47    4269    4266    4272    4275      14
    4269    4266    4272    4302      14    4269    4266    4314    4308      10
    4269    4266    4314    4317      10    4269    4266    4314    4320      10
    4266    4272    4275    4278      46    4266    4314    4308    4311      10
    4266    4314    4320    4323       6    4266    4314   -4320    4323      11
    4263    4257    4308    4311       6    4263    4257   -4308    4311       7
    4263    4266    4314    4317       6    4263    4266   -4314    4317       7
    4260    4257    4263    4266       9    4260    4257    4308    4311      10
    4260    4257    4308    4314      10    4260    4257    4308    4326       6
    4260    4257   -4308    4326       7    4257    4263    4266    4269       9
    4257    4308    4314    4317      10    4254    4248    4257    4260      10
    4254    4248    4257    4263       6    4254    4248   -4257    4263       7
    4254    4248    4257    4308      10    4251    4248    4257    4260      10
    4251    4248    4257    4263       6    4251    4248   -4257    4263       7
    4251    4248    4257    4308      10    4248    4257    4308    4311      10
    4245    4248    4257    4260       6    4245    4248   -4257    4260       7
    4236    4245    4248    4251       9    4236    4245    4248    4254       9
    4416    4413    4407    4425       6    4416    4413   -4407    4425       7
    4416    4413    4419    4422       8    4410    4407    4413    4416      10
    4410    4407    4413    4419       6    4410    4407   -4413    4419       7
    4410    4407    4425    4428       9    4407    4413    4419    4422       6
    4407    4413   -4419    4422      11    4398    4395    4401    4404      39
    4389    4383    4380    4392      15    4386    4383    4380    4392      15
    4380    4392    4395    4398      39    4377    4380    4383    4386      15
    4377    4380    4383    4389      15    4371    4368    4365    4404      22
    4371    4368    4374    4377      23    4365    4359    4413    4416      10
    4362    4359    4365    4368      14    4362    4359    4365    4404      14
    4362    4359    4413    4407      10    4362    4359    4413    4416      10
    4362    4359    4413    4419      10    4359    4365    4368    4371      22
    4359    4413    4407    4410      10    4359    4413    4419    4422       6
    4359    4413   -4419    4422      11    4356    4350    4407    4410       6
    4356    4350   -4407    4410       7    4356    4359    4413    4416       6
    4356    4359   -4413    4416       7    4353    4350    4356    4359       9
    4353    4350    4407    4410      10    4353    4350    4407    4413      10
    4353    4350    4407    4425       6    4353    4350   -4407    4425       7
    4350    4356    4359    4362       9    4350    4407    4413    4416      10
    4347    4341    4350    4353      10    4347    4341    4350    4356       6
    4347    4341   -4350    4356       7    4347    4341    4350    4407      10
    4344    4341    4350    4353      10    4344    4341    4350    4356       6
    4344    4341   -4350    4356       7    4344    4341    4350    4407      10
    4341    4350    4407    4410      10    4338    4341    4350    4353       6
    4338    4341   -4350    4353       7    4329    4338    4341    4344       9
    4329    4338    4341    4347       9    4509    4506    4500    4518       6
    4509    4506   -4500    4518       7    4509    4506    4512    4515       8
    4503    4500    4506    4509      10    4503    4500    4506    4512       6
    4503    4500   -4506    4512       7    4503    4500    4518    4521       9
    4500    4506    4512    4515       6    4500    4506   -4512    4515      11
    4488    4482    4479    4491      15    4485    4482    4479    4491      15
    4476    4473    4479    4482      25    4476    4473    4479    4491      25
    4473    4479    4482    4485      15    4473    4479    4482    4488      15
    4470    4467    4464    4494      46    4470    4467    4473    4476      47
    4470    4467    4473    4479      47    4464    4458    4506    4509      10
    4464    4467    4473    4476      47    4461    4458    4464    4467      14
    4461    4458    4464    4494      14    4461    4458    4506    4500      10
    4461    4458    4506    4509      10    4461    4458    4506    4512      10
    4458    4464    4467    4470      46    4458    4506    4500    4503      10
    4458    4506    4512    4515       6    4458    4506   -4512    4515      11
    4455    4449    4500    4503       6    4455    4449   -4500    4503       7
    4455    4458    4506    4509       6    4455    4458   -4506    4509       7
    4452    4449    4455    4458       9    4452    4449    4500    4503      10
    4452    4449    4500    4506      10    4452    4449    4500    4518       6
    4452    4449   -4500    4518       7    4449    4455    4458    4461       9
    4449    4500    4506    4509      10    4446    4440    4449    4452      10
    4446    4440    4449    4455       6    4446    4440   -4449    4455       7
    4446    4440    4449    4500      10    4443    4440    4449    4452      10
    4443    4440    4449    4455       6    4443    4440   -4449    4455       7
    4443    4440    4449    4500      10    4440    4449    4500    4503      10
    4437    4440    4449    4452       6    4437    4440   -4449    4452       7
    4428    4437    4440    4443       9    4428    4437    4440    4446       9
    4602    4599    4593    4611       6    4602    4599   -4593    4611       7
    4602    4599    4605    4608       8    4596    4593    4599    4602      10
    4596    4593    4599    4605       6    4596    4593   -4599    4605       7
    4596    4593    4611    4614       9    4593    4599    4605    4608       6
    4593    4599   -4605    4608      11    4581    4575    4572    4584      15
    4578    4575    4572    4584      15    4569    4566    4572    4575      25
    4569    4566    4572    4584      25    4566    4572    4575    4578      15
    4566    4572    4575    4581      15    4563    4560    4557    4587      46
    4563    4560    4566    4569      47    4563    4560    4566    4572      47
    4557    4551    4599    4602      10    4557    4560    4566    4569      47
    4554    4551    4557    4560      14    4554    4551    4557    4587      14
    4554    4551    4599    4593      10    4554    4551    4599    4602      10
    4554    4551    4599    4605      10    4551    4557    4560    4563      46
    4551    4599    4593    4596      10    4551    4599    4605    4608       6
    4551    4599   -4605    4608      11    4548    4542    4593    4596       6
    4548    4542   -4593    4596       7    4548    4551    4599    4602       6
    4548    4551   -4599    4602       7    4545    4542    4548    4551       9
    4545    4542    4593    4596      10    4545    4542    4593    4599      10
    4545    4542    4593    4611       6    4545    4542   -4593    4611       7
    4542    4548    4551    4554       9    4542    4593    4599    4602      10
    4539    4533    4542    4545      10    4539    4533    4542    4548       6
    4539    4533   -4542    4548       7    4539    4533    4542    4593      10
    4536    4533    4542    4545      10    4536    4533    4542    4548       6
    4536    4533   -4542    4548       7    4536    4533    4542    4593      10
    4533    4542    4593    4596      10    4530    4533    4542    4545       6
    4530    4533   -4542    4545       7    4521    4530    4533    4536       9
    4521    4530    4533    4539       9    4704    4701    4695    4713       6
    4704    4701   -4695    4713       7    4704    4701    4707    4710       8
    4698    4695    4701    4704      10    4698    4695    4701    4707       6
    4698    4695   -4701    4707       7    4698    4695    4713    4716       9
    4695    4701    4707    4710       6    4695    4701   -4707    4710      11
    4686    4680    4677    4689      15    4683    4680    4677    4689      15
    4674    4671    4677    4680      17    4674    4671    4677    4689      17
    4671    4677    4680    4683      15    4671    4677    4680    4686      15
    4668    4665    4671    4674      19    4662    4665    4671    4674      19
    4656    4653    4650    4692      22    4656    4653    4659    4662      23
    4650    4644    4701    4704      10    4647    4644    4650    4653      14
    4647    4644    4650    4692      14    4647    4644    4701    4695      10
    4647    4644    4701    4704      10    4647    4644    4701    4707      10
    4644    4650    4653    4656      22    4644    4701    4695    4698      10
    4644    4701    4707    4710       6    4644    4701   -4707    4710      11
    4641    4635    4695    4698       6    4641    4635   -4695    4698       7
    4641    4644    4701    4704       6    4641    4644   -4701    4704       7
    4638    4635    4641    4644       9    4638    4635    4695    4698      10
    4638    4635    4695    4701      10    4638    4635    4695    4713       6
    4638    4635   -4695    4713       7    4635    4641    4644    4647       9
    4635    4695    4701    4704      10    4632    4626    4635    4638      10
    4632    4626    4635    4641       6    4632    4626   -4635    4641       7
    4632    4626    4635    4695      10    4629    4626    4635    4638      10
    4629    4626    4635    4641       6    4629    4626   -4635    4641       7
    4629    4626    4635    4695      10    4626    4635    4695    4698      10
    4623    4626    4635    4638       6    4623    4626   -4635    4638       7
    4614    4623    4626    4629       9    4614    4623    4626    4632       9
    4794    4791    4785    4803       6    4794    4791   -4785    4803       7
    4794    4791    4797    4800       8    4788    4785    4791    4794      10
    4788    4785    4791    4797       6    4788    4785   -4791    4797       7
    4788    4785    4803    4806       9    4785    4791    4797    4800       6
    4785    4791   -4797    4800      11    4776    4773    4779    4782      19
    4770    4767    4773    4776      19    4764    4761    4767    4770      45
    4764    4761    4767    4773      45    4761    4767    4773    4776      19
    4758    4755    4752    4779      46    4758    4755    4761    4764      47
    4758    4755    4761    4767      47    4752    4746    4791    4794      10
    4752    4755    4761    4764      47    4752    4779    4773    4776      19
    4749    4746    4752    4755      14    4749    4746    4752    4779      14
    4749    4746    4791    4785      10    4749    4746    4791    4794      10
    4749    4746    4791    4797      10    4746    4752    4755    4758      46
    4746    4791    4785    4788      10    4746    4791    4797    4800       6
    4746    4791   -4797    4800      11    4743    4737    4785    4788       6
    4743    4737   -4785    4788       7    4743    4746    4791    4794       6
    4743    4746   -4791    4794       7    4740    4737    4743    4746       9
    4740    4737    4785    4788      10    4740    4737    4785    4791      10
    4740    4737    4785    4803       6    4740    4737   -4785    4803       7
    4737    4743    4746    4749       9    4737    4785    4791    4794      10
    4734    4728    4737    4740      10    4734    4728    4737    4743       6
    4734    4728   -4737    4743       7    4734    4728    4737    4785      10
    4731    4728    4737    4740      10    4731    4728    4737    4743       6
    4731    4728   -4737    4743       7    4731    4728    4737    4785      10
    4728    4737    4785    4788      10    4725    4728    4737    4740       6
    4725    4728   -4737    4740       7    4716    4725    4728    4731       9
    4716    4725    4728    4734       9    4893    4890    4884    4902       6
    4893    4890   -4884    4902       7    4893    4890    4896    4899       8
    4887    4884    4890    4893      10    4887    4884    4890    4896       6
    4887    4884   -4890    4896       7    4887    4884    4902    4905       9
    4884    4890    4896    4899       6    4884    4890   -4896    4899      11
    4875    4872    4878    4881      39    4866    4860    4857    4869      15
    4863    4860    4857    4869      15    4857    4869    4872    4875      39
    4854    4857    4860    4863      15    4854    4857    4860    4866      15
    4848    4845    4842    4881      22    4848    4845    4851    4854      23
    4842    4836    4890    4893      10    4839    4836    4842    4845      14
    4839    4836    4842    4881      14    4839    4836    4890    4884      10
    4839    4836    4890    4893      10    4839    4836    4890    4896      10
    4836    4842    4845    4848      22    4836    4890    4884    4887      10
    4836    4890    4896    4899       6    4836    4890   -4896    4899      11
    4833    4827    4884    4887       6    4833    4827   -4884    4887       7
    4833    4836    4890    4893       6    4833    4836   -4890    4893       7
    4830    4827    4833    4836       9    4830    4827    4884    4887      10
    4830    4827    4884    4890      10    4830    4827    4884    4902       6
    4830    4827   -4884    4902       7    4827    4833    4836    4839       9
    4827    4884    4890    4893      10    4824    4818    4827    4830      10
    4824    4818    4827    4833       6    4824    4818   -4827    4833       7
    4824    4818    4827    4884      10    4821    4818    4827    4830      10
    4821    4818    4827    4833       6    4821    4818   -4827    4833       7
    4821    4818    4827    4884      10    4818    4827    4884    4887      10
    4815    4818    4827    4830       6    4815    4818   -4827    4830       7
    4806    4815    4818    4821       9    4806    4815    4818    4824       9
    4992    4989    4983    5001       6    4992    4989   -4983    5001       7
    4992    4989    4995    4998       8    4986    4983    4989    4992      10
    4986    4983    4989    4995       6    4986    4983   -4989    4995       7
    4986    4983    5001    5004       9    4983    4989    4995    4998       6
    4983    4989   -4995    4998      11    4974    4971    4977    4980      39
    4965    4959    4956    4968      15    4962    4959    4956    4968      15
    4956    4968    4971    4974      39    4953    4956    4959    4962      15
    4953    4956    4959    4965      15    4947    4944    4941    4980      22
    4947    4944    4950    4953      23    4941    4935    4989    4992      10
    4938    4935    4941    4944      14    4938    4935    4941    4980      14
    4938    4935    4989    4983      10    4938    4935    4989    4992      10
    4938    4935    4989    4995      10    4935    4941    4944    4947      22
    4935    4989    4983    4986      10    4935    4989    4995    4998       6
    4935    4989   -4995    4998      11    4932    4926    4983    4986       6
    4932    4926   -4983    4986       7    4932    4935    4989    4992       6
    4932    4935   -4989    4992       7    4929    4926    4932    4935       9
    4929    4926    4983    4986      10    4929    4926    4983    4989      10
    4929    4926    4983    5001       6    4929    4926   -4983    5001       7
    4926    4932    4935    4938       9    4926    4983    4989    4992      10
    4923    4917    4926    4929      10    4923    4917    4926    4932       6
    4923    4917   -4926    4932       7    4923    4917    4926    4983      10
    4920    4917    4926    4929      10    4920    4917    4926    4932       6
    4920    4917   -4926    4932       7    4920    4917    4926    4983      10
    4917    4926    4983    4986      10    4914    4917    4926    4929       6
    4914    4917   -4926    4929       7    4905    4914    4917    4920       9
    4905    4914    4917    4923       9    5091    5088    5082    5100       6
    5091    5088   -5082    5100       7    5091    5088    5094    5097       8
    5085    5082    5088    5091      10    5085    5082    5088    5094       6
    5085    5082   -5088    5094       7    5085    5082    5100    5103       9
    5082    5088    5094    5097       6    5082    5088   -5094    5097      11
    5073    5070    5076    5079      39    5064    5058    5055    5067      15
    5061    5058    5055    5067      15    5055    5067    5070    5073      39
    5052    5055    5058    5061      15    5052    5055    5058    5064      15
    5046    5043    5040    5079      22    5046    5043    5049    5052      23
    5040    5034    5088    5091      10    5037    5034    5040    5043      14
    5037    5034    5040    5079      14    5037    5034    5088    5082      10
    5037    5034    5088    5091      10    5037    5034    5088    5094      10
    5034    5040    5043    5046      22    5034    5088    5082    5085      10
    5034    5088    5094    5097       6    5034    5088   -5094    5097      11
    5031    5025    5082    5085       6    5031    5025   -5082    5085       7
    5031    5034    5088    5091       6    5031    5034   -5088    5091       7
    5028    5025    5031    5034       9    5028    5025    5082    5085      10
    5028    5025    5082    5088      10    5028    5025    5082    5100       6
    5028    5025   -5082    5100       7    5025    5031    5034    5037       9
    5025    5082    5088    5091      10    5022    5016    5025    5028      10
    5022    5016    5025    5031       6    5022    5016   -5025    5031       7
    5022    5016    5025    5082      10    5019    5016    5025    5028      10
    5019    5016    5025    5031       6    5019    5016   -5025    5031       7
    5019    5016    5025    5082      10    5016    5025    5082    5085      10
    5013    5016    5025    5028       6    5013    5016   -5025    5028       7
    5004    5013    5016    5019       9    5004    5013    5016    5022       9
    5181    5178    5172    5190       6    5181    5178   -5172    5190       7
    5181    5178    5184    5187       8    5175    5172    5178    5181      10
    5175    5172    5178    5184       6    5175    5172   -5178    5184       7
    5175    5172    5190    5193       9    5172    5178    5184    5187       6
    5172    5178   -5184    5187      11    5163    5160    5166    5169      19
    5157    5154    5160    5163      19    5151    5148    5154    5157      45
    5151    5148    5154    5160      45    5148    5154    5160    5163      19
    5145    5142    5139    5166      46    5145    5142    5148    5151      47
    5145    5142    5148    5154      47    5139    5133    5178    5181      10
    5139    5142    5148    5151      47    5139    5166    5160    5163      19
    5136    5133    5139    5142      14    5136    5133    5139    5166      14
    5136    5133    5178    5172      10    5136    5133    5178    5181      10
    5136    5133    5178    5184      10    5133    5139    5142    5145      46
    5133    5178    5172    5175      10    5133    5178    5184    5187       6
    5133    5178   -5184    5187      11    5130    5124    5172    5175       6
    5130    5124   -5172    5175       7    5130    5133    5178    5181       6
    5130    5133   -5178    5181       7    5127    5124    5130    5133       9
    5127    5124    5172    5175      10    5127    5124    5172    5178      10
    5127    5124    5172    5190       6    5127    5124   -5172    5190       7
    5124    5130    5133    5136       9    5124    5172    5178    5181      10
    5121    5115    5124    5127      10    5121    5115    5124    5130       6
    5121    5115   -5124    5130       7    5121    5115    5124    5172      10
    5118    5115    5124    5127      10    5118    5115    5124    5130       6
    5118    5115   -5124    5130       7    5118    5115    5124    5172      10
    5115    5124    5172    5175      10    5112    5115    5124    5127       6
    5112    5115   -5124    5127       7    5103    5112    5115    5118       9
    5103    5112    5115    5121       9    5283    5280    5274    5292       6
    5283    5280   -5274    5292       7    5283    5280    5286    5289       8
    5277    5274    5280    5283      10    5277    5274    5280    5286       6
    5277    5274   -5280    5286       7    5277    5274    5292    5295       9
    5274    5280    5286    5289       6    5274    5280   -5286    5289      11
    5265    5259    5256    5268      15    5262    5259    5256    5268      15
    5253    5250    5256    5259      17    5253    5250    5256    5268      17
    5250    5256    5259    5262      15    5250    5256    5259    5265      15
    5247    5244    5250    5253      19    5241    5244    5250    5253      19
    5235    5232    5229    5271      22    5235    5232    5238    5241      23
    5229    5223    5280    5283      10    5226    5223    5229    5232      14
    5226    5223    5229    5271      14    5226    5223    5280    5274      10
    5226    5223    5280    5283      10    5226    5223    5280    5286      10
    5223    5229    5232    5235      22    5223    5280    5274    5277      10
    5223    5280    5286    5289       6    5223    5280   -5286    5289      11
    5220    5214    5274    5277       6    5220    5214   -5274    5277       7
    5220    5223    5280    5283       6    5220    5223   -5280    5283       7
    5217    5214    5220    5223       9    5217    5214    5274    5277      10
    5217    5214    5274    5280      10    5217    5214    5274    5292       6
    5217    5214   -5274    5292       7    5214    5220    5223    5226       9
    5214    5274    5280    5283      10    5211    5205    5214    5217      10
    5211    5205    5214    5220       6    5211    5205   -5214    5220       7
    5211    5205    5214    5274      10    5208    5205    5214    5217      10
    5208    5205    5214    5220       6    5208    5205   -5214    5220       7
    5208    5205    5214    5274      10    5205    5214    5274    5277      10
    5202    5205    5214    5217       6    5202    5205   -5214    5217       7
    5193    5202    5205    5208       9    5193    5202    5205    5211       9
    5373    5370    5364    5382       6    5373    5370   -5364    5382       7
    5373    5370    5376    5379       8    5367    5364    5370    5373      10
    5367    5364    5370    5376       6    5367    5364   -5370    5376       7
    5367    5364    5382    5385       9    5364    5370    5376    5379       6
    5364    5370   -5376    5379      11    5355    5352    5358    5361      19
    5349    5346    5352    5355      19    5343    5340    5346    5349      45
    5343    5340    5346    5352      45    5340    5346    5352    5355      19
    5337    5334    5331    5358      46    5337    5334    5340    5343      47
    5337    5334    5340    5346      47    5331    5325    5370    5373      10
    5331    5334    5340    5343      47    5331    5358    5352    5355      19
    5328    5325    5331    5334      14    5328    5325    5331    5358      14
    5328    5325    5370    5364      10    5328    5325    5370    5373      10
    5328    5325    5370    5376      10    5325    5331    5334    5337      46
    5325    5370    5364    5367      10    5325    5370    5376    5379       6
    5325    5370   -5376    5379      11    5322    5316    5364    5367       6
    5322    5316   -5364    5367       7    5322    5325    5370    5373       6
    5322    5325   -5370    5373       7    5319    5316    5322    5325       9
    5319    5316    5364    5367      10    5319    5316    5364    5370      10
    5319    5316    5364    5382       6    5319    5316   -5364    5382       7
    5316    5322    5325    5328       9    5316    5364    5370    5373      10
    5313    5307    5316    5319      10    5313    5307    5316    5322       6
    5313    5307   -5316    5322       7    5313    5307    5316    5364      10
    5310    5307    5316    5319      10    5310    5307    5316    5322       6
    5310    5307   -5316    5322       7    5310    5307    5316    5364      10
    5307    5316    5364    5367      10    5304    5307    5316    5319       6
    5304    5307   -5316    5319       7    5295    5304    5307    5310       9
    5295    5304    5307    5313       9    5466    5463    5457    5475       6
    5466    5463   -5457    5475       7    5466    5463    5469    5472       8
    5460    5457    5463    5466      10    5460    5457    5463    5469       6
    5460    5457   -5463    5469       7    5460    5457    5475    5478       9
    5457    5463    5469    5472       6    5457    5463   -5469    5472      11
    5445    5439    5436    5448      15    5442    5439    5436    5448      15
    5433    5430    5436    5439      25    5433    5430    5436    5448      25
    5430    5436    5439    5442      15    5430    5436    5439    5445      15
    5427    5424    5421    5451      46    5427    5424    5430    5433      47
    5427    5424    5430    5436      47    5421    5415    5463    5466      10
    5421    5424    5430    5433      47    5418    5415    5421    5424      14
    5418    5415    5421    5451      14    5418    5415    5463    5457      10
    5418    5415    5463    5466      10    5418    5415    5463    5469      10
    5415    5421    5424    5427      46    5415    5463    5457    5460      10
    5415    5463    5469    5472       6    5415    5463   -5469    5472      11
    5412    5406    5457    5460       6    5412    5406   -5457    5460       7
    5412    5415    5463    5466       6    5412    5415   -5463    5466       7
    5409    5406    5412    5415       9    5409    5406    5457    5460      10
    5409    5406    5457    5463      10    5409    5406    5457    5475       6
    5409    5406   -5457    5475       7    5406    5412    5415    5418       9
    5406    5457    5463    5466      10    5403    5397    5406    5409      10
    5403    5397    5406    5412       6    5403    5397   -5406    5412       7
    5403    5397    5406    5457      10    5400    5397    5406    5409      10
    5400    5397    5406    5412       6    5400    5397   -5406    5412       7
    5400    5397    5406    5457      10    5397    5406    5457    5460      10
    5394    5397    5406    5409       6    5394    5397   -5406    5409       7
    5385    5394    5397    5400       9    5385    5394    5397    5403       9
    5559    5556    5550    5568       6    5559    5556   -5550    5568       7
    5559    5556    5562    5565       8    5553    5550    5556    5559      10
    5553    5550    5556    5562       6    5553    5550   -5556    5562       7
    5553    5550    5568    5571       9    5550    5556    5562    5565       6
    5550    5556   -5562    5565      11    5538    5532    5529    5541      15
    5535    5532    5529    5541      15    5526    5523    5529    5532      25
    5526    5523    5529    5541      25    5523    5529    5532    5535      15
    5523    5529    5532    5538      15    5520    5517    5514    5544      46
    5520    5517    5523    5526      47    5520    5517    5523    5529      47
    5514    5508    5556    5559      10    5514    5517    5523    5526      47
    5511    5508    5514    5517      14    5511    5508    5514    5544      14
    5511    5508    5556    5550      10    5511    5508    5556    5559      10
    5511    5508    5556    5562      10    5508    5514    5517    5520      46
    5508    5556    5550    5553      10    5508    5556    5562    5565       6
    5508    5556   -5562    5565      11    5505    5499    5550    5553       6
    5505    5499   -5550    5553       7    5505    5508    5556    5559       6
    5505    5508   -5556    5559       7    5502    5499    5505    5508       9
    5502    5499    5550    5553      10    5502    5499    5550    5556      10
    5502    5499    5550    5568       6    5502    5499   -5550    5568       7
    5499    5505    5508    5511       9    5499    5550    5556    5559      10
    5496    5490    5499    5502      10    5496    5490    5499    5505       6
    5496    5490   -5499    5505       7    5496    5490    5499    5550      10
    5493    5490    5499    5502      10    5493    5490    5499    5505       6
    5493    5490   -5499    5505       7    5493    5490    5499    5550      10
    5490    5499    5550    5553      10    5487    5490    5499    5502       6
    5487    5490   -5499    5502       7    5478    5487    5490    5493       9
    5478    5487    5490    5496       9    5661    5658    5652    5670       6
    5661    5658   -5652    5670       7    5661    5658    5664    5667       8
    5655    5652    5658    5661      10    5655    5652    5658    5664       6
    5655    5652   -5658    5664       7    5655    5652    5670    5673       9
    5652    5658    5664    5667       6    5652    5658   -5664    5667      11
    5643    5637    5634    5646      15    5640    5637    5634    5646      15
    5631    5628    5634    5637      17    5631    5628    5634    5646      17
    5628    5634    5637    5640      15    5628    5634    5637    5643      15
    5625    5622    5628    5631      19    5619    5622    5628    5631      19
    5613    5610    5607    5649      22    5613    5610    5616    5619      23
    5607    5601    5658    5661      10    5604    5601    5607    5610      14
    5604    5601    5607    5649      14    5604    5601    5658    5652      10
    5604    5601    5658    5661      10    5604    5601    5658    5664      10
    5601    5607    5610    5613      22    5601    5658    5652    5655      10
    5601    5658    5664    5667       6    5601    5658   -5664    5667      11
    5598    5592    5652    5655       6    5598    5592   -5652    5655       7
    5598    5601    5658    5661       6    5598    5601   -5658    5661       7
    5595    5592    5598    5601       9    5595    5592    5652    5655      10
    5595    5592    5652    5658      10    5595    5592    5652    5670       6
    5595    5592   -5652    5670       7    5592    5598    5601    5604       9
    5592    5652    5658    5661      10    5589    5583    5592    5595      10
    5589    5583    5592    5598       6    5589    5583   -5592    5598       7
    5589    5583    5592    5652      10    5586    5583    5592    5595      10
    5586    5583    5592    5598       6    5586    5583   -5592    5598       7
    5586    5583    5592    5652      10    5583    5592    5652    5655      10
    5580    5583    5592    5595       6    5580    5583   -5592    5595       7
    5571    5580    5583    5586       9    5571    5580    5583    5589       9
    5760    5757    5751    5769       6    5760    5757   -5751    5769       7
    5760    5757    5763    5766       8    5754    5751    5757    5760      10
    5754    5751    5757    5763       6    5754    5751   -5757    5763       7
    5754    5751    5769    5772       9    5751    5757    5763    5766       6
    5751    5757   -5763    5766      11    5742    5739    5745    5748      39
    5733    5727    5724    5736      15    5730    5727    5724    5736      15
    5724    5736    5739    5742      39    5721    5724    5727    5730      15
    5721    5724    5727    5733      15    5715    5712    5709    5748      22
    5715    5712    5718    5721      23    5709    5703    5757    5760      10
    5706    5703    5709    5712      14    5706    5703    5709    5748      14
    5706    5703    5757    5751      10    5706    5703    5757    5760      10
    5706    5703    5757    5763      10    5703    5709    5712    5715      22
    5703    5757    5751    5754      10    5703    5757    5763    5766       6
    5703    5757   -5763    5766      11    5700    5694    5751    5754       6
    5700    5694   -5751    5754       7    5700    5703    5757    5760       6
    5700    5703   -5757    5760       7    5697    5694    5700    5703       9
    5697    5694    5751    5754      10    5697    5694    5751    5757      10
    5697    5694    5751    5769       6    5697    5694   -5751    5769       7
    5694    5700    5703    5706       9    5694    5751    5757    5760      10
    5691    5685    5694    5697      10    5691    5685    5694    5700       6
    5691    5685   -5694    5700       7    5691    5685    5694    5751      10
    5688    5685    5694    5697      10    5688    5685    5694    5700       6
    5688    5685   -5694    5700       7    5688    5685    5694    5751      10
    5685    5694    5751    5754      10    5682    5685    5694    5697       6
    5682    5685   -5694    5697       7    5673    5682    5685    5688       9
    5673    5682    5685    5691       9    5853    5850    5844    5862       6
    5853    5850   -5844    5862       7    5853    5850    5856    5859       8
    5847    5844    5850    5853      10    5847    5844    5850    5856       6
    5847    5844   -5850    5856       7    5847    5844    5862    5865       9
    5844    5850    5856    5859       6    5844    5850   -5856    5859      11
    5832    5826    5823    5835      15    5829    5826    5823    5835      15
    5820    5817    5823    5826      25    5820    5817    5823    5835      25
    5817    5823    5826    5829      15    5817    5823    5826    5832      15
    5814    5811    5808    5838      46    5814    5811    5817    5820      47
    5814    5811    5817    5823      47    5808    5802    5850    5853      10
    5808    5811    5817    5820      47    5805    5802    5808    5811      14
    5805    5802    5808    5838      14    5805    5802    5850    5844      10
    5805    5802    5850    5853      10    5805    5802    5850    5856      10
    5802    5808    5811    5814      46    5802    5850    5844    5847      10
    5802    5850    5856    5859       6    5802    5850   -5856    5859      11
    5799    5793    5844    5847       6    5799    5793   -5844    5847       7
    5799    5802    5850    5853       6    5799    5802   -5850    5853       7
    5796    5793    5799    5802       9    5796    5793    5844    5847      10
    5796    5793    5844    5850      10    5796    5793    5844    5862       6
    5796    5793   -5844    5862       7    5793    5799    5802    5805       9
    5793    5844    5850    5853      10    5790    5784    5793    5796      10
    5790    5784    5793    5799       6    5790    5784   -5793    5799       7
    5790    5784    5793    5844      10    5787    5784    5793    5796      10
    5787    5784    5793    5799       6    5787    5784   -5793    5799       7
    5787    5784    5793    5844      10    5784    5793    5844    5847      10
    5781    5784    5793    5796       6    5781    5784   -5793    5796       7
    5772    5781    5784    5787       9    5772    5781    5784    5790       9
    5943    5940    5934    5952       6    5943    5940   -5934    5952       7
    5943    5940    5946    5949       8    5937    5934    5940    5943      10
    5937    5934    5940    5946       6    5937    5934   -5940    5946       7
    5937    5934    5952    5955       9    5934    5940    5946    5949       6
    5934    5940   -5946    5949      11    5925    5922    5928    5931      19
    5919    5916    5922    5925      19    5913    5910    5916    5919      45
    5913    5910    5916    5922      45    5910    5916    5922    5925      19
    5907    5904    5901    5928      46    5907    5904    5910    5913      47
    5907    5904    5910    5916      47    5901    5895    5940    5943      10
    5901    5904    5910    5913      47    5901    5928    5922    5925      19
    5898    5895    5901    5904      14    5898    5895    5901    5928      14
    5898    5895    5940    5934      10    5898    5895    5940    5943      10
    5898    5895    5940    5946      10    5895    5901    5904    5907      46
    5895    5940    5934    5937      10    5895    5940    5946    5949       6
    5895    5940   -5946    5949      11    5892    5886    5934    5937       6
    5892    5886   -5934    5937       7    5892    5895    5940    5943       6
    5892    5895   -5940    5943       7    5889    5886    5892    5895       9
    5889    5886    5934    5937      10    5889    5886    5934    5940      10
    5889    5886    5934    5952       6    5889    5886   -5934    5952       7
    5886    5892    5895    5898       9    5886    5934    5940    5943      10
    5883    5877    5886    5889      10    5883    5877    5886    5892       6
    5883    5877   -5886    5892       7    5883    5877    5886    5934      10
    5880    5877    5886    5889      10    5880    5877    5886    5892       6
    5880    5877   -5886    5892       7    5880    5877    5886    5934      10
    5877    5886    5934    5937      10    5874    5877    5886    5889       6
    5874    5877   -5886    5889       7    5865    5874    5877    5880       9
    5865    5874    5877    5883       9    6042    6039    6033    6051       6
    6042    6039   -6033    6051       7    6042    6039    6045    6048       8
    6036    6033    6039    6042      10    6036    6033    6039    6045       6
    6036    6033   -6039    6045       7    6036    6033    6051    6054       9
    6033    6039    6045    6048       6    6033    6039   -6045    6048      11
    6024    6021    6027    6030      39    6015    6009    6006    6018      15
    6012    6009    6006    6018      15    6006    6018    6021    6024      39
    6003    6006    6009    6012      15    6003    6006    6009    6015      15
    5997    5994    5991    6030      22    5997    5994    6000    6003      23
    5991    5985    6039    6042      10    5988    5985    5991    5994      14
    5988    5985    5991    6030      14    5988    5985    6039    6033      10
    5988    5985    6039    6042      10    5988    5985    6039    6045      10
    5985    5991    5994    5997      22    5985    6039    6033    6036      10
    5985    6039    6045    6048       6    5985    6039   -6045    6048      11
    5982    5976    6033    6036       6    5982    5976   -6033    6036       7
    5982    5985    6039    6042       6    5982    5985   -6039    6042       7
    5979    5976    5982    5985       9    5979    5976    6033    6036      10
    5979    5976    6033    6039      10    5979    5976    6033    6051       6
    5979    5976   -6033    6051       7    5976    5982    5985    5988       9
    5976    6033    6039    6042      10    5973    5967    5976    5979      10
    5973    5967    5976    5982       6    5973    5967   -5976    5982       7
    5973    5967    5976    6033      10    5970    5967    5976    5979      10
    5970    5967    5976    5982       6    5970    5967   -5976    5982       7
    5970    5967    5976    6033      10    5967    5976    6033    6036      10
    5964    5967    5976    5979       6    5964    5967   -5976    5979       7
    5955    5964    5967    5970       9    5955    5964    5967    5973       9
    6132    6129    6123    6141       6    6132    6129   -6123    6141       7
    6132    6129    6135    6138       8    6126    6123    6129    6132      10
    6126    6123    6129    6135       6    6126    6123   -6129    6135       7
    6126    6123    6141    6144       9    6123    6129    6135    6138       6
    6123    6129   -6135    6138      11    6114    6111    6117    6120      19
    6108    6105    6111    6114      19    6102    6099    6105    6108      45
    6102    6099    6105    6111      45    6099    6105    6111    6114      19
    6096    6093    6090    6117      46    6096    6093    6099    6102      47
    6096    6093    6099    6105      47    6090    6084    6129    6132      10
    6090    6093    6099    6102      47    6090    6117    6111    6114      19
    6087    6084    6090    6093      14    6087    6084    6090    6117      14
    6087    6084    6129    6123      10    6087    6084    6129    6132      10
    6087    6084    6129    6135      10    6084    6090    6093    6096      46
    6084    6129    6123    6126      10    6084    6129    6135    6138       6
    6084    6129   -6135    6138      11    6081    6075    6123    6126       6
    6081    6075   -6123    6126       7    6081    6084    6129    6132       6
    6081    6084   -6129    6132       7    6078    6075    6081    6084       9
    6078    6075    6123    6126      10    6078    6075    6123    6129      10
    6078    6075    6123    6141       6    6078    6075   -6123    6141       7
    6075    6081    6084    6087       9    6075    6123    6129    6132      10
    6072    6066    6075    6078      10    6072    6066    6075    6081       6
    6072    6066   -6075    6081       7    6072    6066    6075    6123      10
    6069    6066    6075    6078      10    6069    6066    6075    6081       6
    6069    6066   -6075    6081       7    6069    6066    6075    6123      10
    6066    6075    6123    6126      10    6063    6066    6075    6078       6
    6063    6066   -6075    6078       7    6054    6063    6066    6069       9
    6054    6063    6066    6072       9    6234    6231    6225    6243       6
    6234    6231   -6225    6243       7    6234    6231    6237    6240       8
    6228    6225    6231    6234      10    6228    6225    6231    6237       6
    6228    6225   -6231    6237       7    6228    6225    6243    6246       9
    6225    6231    6237    6240       6    6225    6231   -6237    6240      11
    6216    6210    6207    6219      15    6213    6210    6207    6219      15
    6204    6201    6207    6210      17    6204    6201    6207    6219      17
    6201    6207    6210    6213      15    6201    6207    6210    6216      15
    6198    6195    6201    6204      19    6192    6195    6201    6204      19
    6186    6183    6180    6222      22    6186    6183    6189    6192      23
    6180    6174    6231    6234      10    6177    6174    6180    6183      14
    6177    6174    6180    6222      14    6177    6174    6231    6225      10
    6177    6174    6231    6234      10    6177    6174    6231    6237      10
    6174    6180    6183    6186      22    6174    6231    6225    6228      10
    6174    6231    6237    6240       6    6174    6231   -6237    6240      11
    6171    6165    6225    6228       6    6171    6165   -6225    6228       7
    6171    6174    6231    6234       6    6171    6174   -6231    6234       7
    6168    6165    6171    6174       9    6168    6165    6225    6228      10
    6168    6165    6225    6231      10    6168    6165    6225    6243       6
    6168    6165   -6225    6243       7    6165    6171    6174    6177       9
    6165    6225    6231    6234      10    6162    6156    6165    6168      10
    6162    6156    6165    6171       6    6162    6156   -6165    6171       7
    6162    6156    6165    6225      10    6159    6156    6165    6168      10
    6159    6156    6165    6171       6    6159    6156   -6165    6171       7
    6159    6156    6165    6225      10    6156    6165    6225    6228      10
    6153    6156    6165    6168       6    6153    6156   -6165    6168       7
    6144    6153    6156    6159       9    6144    6153    6156    6162       9
    6336    6333    6327    6345       6    6336    6333   -6327    6345       7
    6336    6333    6339    6342       8    6330    6327    6333    6336      10
    6330    6327    6333    6339       6    6330    6327   -6333    6339       7
    6330    6327    6345    6348       9    6327    6333    6339    6342       6
    6327    6333   -6339    6342      11    6318    6312    6309    6321      15
    6315    6312    6309    6321      15    6306    6303    6309    6312      17
    6306    6303    6309    6321      17    6303    6309    6312    6315      15
    6303    6309    6312    6318      15    6300    6297    6303    6306      19
    6294    6297    6303    6306      19    6288    6285    6282    6324      22
    6288    6285    6291    6294      23    6282    6276    6333    6336      10
    6279    6276    6282    6285      14    6279    6276    6282    6324      14
    6279    6276    6333    6327      10    6279    6276    6333    6336      10
    6279    6276    6333    6339      10    6276    6282    6285    6288      22
    6276    6333    6327    6330      10    6276    6333    6339    6342       6
    6276    6333   -6339    6342      11    6273    6267    6327    6330       6
    6273    6267   -6327    6330       7    6273    6276    6333    6336       6
    6273    6276   -6333    6336       7    6270    6267    6273    6276       9
    6270    6267    6327    6330      10    6270    6267    6327    6333      10
    6270    6267    6327    6345       6    6270    6267   -6327    6345       7
    6267    6273    6276    6279       9    6267    6327    6333    6336      10
    6264    6258    6267    6270      10    6264    6258    6267    6273       6
    6264    6258   -6267    6273       7    6264    6258    6267    6327      10
    6261    6258    6267    6270      10    6261    6258    6267    6273       6
    6261    6258   -6267    6273       7    6261    6258    6267    6327      10
    6258    6267    6327    6330      10    6255    6258    6267    6270       6
    6255    6258   -6267    6270       7    6246    6255    6258    6261       9
    6246    6255    6258    6264       9    6426    6423    6417    6435       6
    6426    6423   -6417    6435       7    6426    6423    6429    6432       8
    6420    6417    6423    6426      10    6420    6417    6423    6429       6
    6420    6417   -6423    6429       7    6420    6417    6435    6438       9
    6417    6423    6429    6432       6    6417    6423   -6429    6432      11
    6408    6405    6411    6414      19    6402    6399    6405    6408      19
    6396    6393    6399    6402      45    6396    6393    6399    6405      45
    6393    6399    6405    6408      19    6390    6387    6384    6411      46
    6390    6387    6393    6396      47    6390    6387    6393    6399      47
    6384    6378    6423    6426      10    6384    6387    6393    6396      47
    6384    6411    6405    6408      19    6381    6378    6384    6387      14
    6381    6378    6384    6411      14    6381    6378    6423    6417      10
    6381    6378    6423    6426      10    6381    6378    6423    6429      10
    6378    6384    6387    6390      46    6378    6423    6417    6420      10
    6378    6423    6429    6432       6    6378    6423   -6429    6432      11
    6375    6369    6417    6420       6    6375    6369   -6417    6420       7
    6375    6378    6423    6426       6    6375    6378   -6423    6426       7
    6372    6369    6375    6378       9    6372    6369    6417    6420      10
    6372    6369    6417    6423      10    6372    6369    6417    6435       6
    6372    6369   -6417    6435       7    6369    6375    6378    6381       9
    6369    6417    6423    6426      10    6366    6360    6369    6372      10
    6366    6360    6369    6375       6    6366    6360   -6369    6375       7
    6366    6360    6369    6417      10    6363    6360    6369    6372      10
    6363    6360    6369    6375       6    6363    6360   -6369    6375       7
    6363    6360    6369    6417      10    6360    6369    6417    6420      10
    6357    6360    6369    6372       6    6357    6360   -6369    6372       7
    6348    6357    6360    6363       9    6348    6357    6360    6366       9
    6519    6516    6510    6528       6    6519    6516   -6510    6528       7
    6519    6516    6522    6525       8    6516    6510    6528    6531       6
    6516    6510   -6528    6531      11    6513    6510    6516    6519      10
    6513    6510    6516    6522       6    6513    6510   -6516    6522       7
    6513    6510    6528    6531       8    6510    6516    6522    6525       6
    6510    6516   -6522    6525      11    6498    6492    6489    6501      15
    6495    6492    6489    6501      15    6486    6483    6489    6492      25
    6486    6483    6489    6501      25    6483    6489    6492    6495      15
    6483    6489    6492    6498      15    6480    6477    6474    6504      46
    6480    6477    6483    6486      47    6480    6477    6483    6489      47
    6474    6468    6516    6519      10    6474    6477    6483    6486      47
    6471    6468    6474    6477      14    6471    6468    6474    6504      14
    6471    6468    6516    6510      10    6471    6468    6516    6519      10
    6471    6468    6516    6522      10    6468    6474    6477    6480      46
    6468    6516    6510    6513      10    6468    6516    6522    6525       6
    6468    6516   -6522    6525      11    6465    6459    6510    6513       6
    6465    6459   -6510    6513       7    6465    6468    6516    6519       6
    6465    6468   -6516    6519       7    6462    6459    6465    6468       9
    6462    6459    6510    6513      10    6462    6459    6510    6516      10
    6462    6459    6510    6528       6    6462    6459   -6510    6528       7
    6459    6465    6468    6471       9    6459    6510    6516    6519      10
    6459    6510    6528    6531       6    6459    6510   -6528    6531      11
    6456    6450    6459    6462      10    6456    6450    6459    6465       6
    6456    6450   -6459    6465       7    6456    6450    6459    6510      10
    6453    6450    6459    6462      10    6453    6450    6459    6465       6
    6453    6450   -6459    6465       7    6453    6450    6459    6510      10
    6450    6459    6510    6513      10    6447    6450    6459    6462       6
    6447    6450   -6459    6462       7    6438    6447    6450    6453       9
    6438    6447    6450    6456       9    7011    6978    6981    7014      22
    7005    6960    6963    7008      59    7002    6957    6960    7005      59
    6999    6954    6957    7002      59    6996    6951    6954    6999      59
    6975    6978    6981    7014      22    6972    6930    6933    6984      60
    6972    6969    6981    7014      22    6972    6975    6978    7011      61
    6969    6981    6978    7011      22    6966    6936    6933    6984      24
    6966    6936    6939    6987      62    6966    6969    6981    7014      22
    6963    6948    6945    6990      14    6963    6948    6945    6993      14
    6963    6948    6951    6996      59    6963    6960    6957    7002      59
    6960    6957    6954    6999      59    6957    6954    6951    6996      59
    6957    6960    6963    7008      59    6954    6957    6960    7005      59
    6951    6948    6945    6990      14    6951    6948    6945    6993      14
    6951    6948    6963    7008      59    6951    6954    6957    7002      59
    6948    6951    6954    6999      59    6948    6963    6960    7005      59
    6945    6942    6939    6987      63    6945    6948    6951    6996      59
    6945    6948    6963    7008      59    6939    6936    6933    6984      24
    6939    6942    6945    6990       9    6939    6942    6945    6993       9
    6933    6936    6939    6987      62    6927    6930    6933    6984      65
    6927    6930   -6933    6984      60      57      63     -60     -66      67
      45      57     -51     -54      67      30      39     -33     -36      68
     159     165    -162    -168      67     147     159    -153    -156      67
     132     141    -135    -138      68     261     270    -264    -267      68
     249     255    -252    -258      67     234     243    -237    -240      68
     348     360    -354    -357      67     336     348    -342    -345      68
     333     342    -336    -339      68     438     444    -441    -447      67
     426     438    -432    -435      68     423     432    -426    -429      68
     543     552    -546    -549      68     531     537    -534    -540      67
     516     525    -519    -522      68     630     642    -636    -639      67
     618     630    -624    -627      68     615     624    -618    -621      68
     732     741    -735    -738      68     720     726    -723    -729      67
     705     714    -708    -711      68     819     831    -825    -828      67
     807     819    -813    -816      68     804     813    -807    -810      68
     921     930    -924    -927      68     909     915    -912    -918      67
     894     903    -897    -900      68    1020    1029   -1023   -1026      68
    1008    1014   -1011   -1017      67     993    1002    -996    -999      68
    1107    1119   -1113   -1116      67    1095    1107   -1101   -1104      68
    1092    1101   -1095   -1098      68    1197    1203   -1200   -1206      67
    1185    1197   -1191   -1194      68    1182    1191   -1185   -1188      68
    1302    1308   -1305   -1311      67    1290    1302   -1296   -1299      67
    1275    1284   -1278   -1281      68    1392    1398   -1395   -1401      67
    1380    1392   -1386   -1389      68    1377    1386   -1380   -1383      68
    1497    1503   -1500   -1506      67    1485    1497   -1491   -1494      67
    1470    1479   -1473   -1476      68    1587    1599   -1593   -1596      67
    1575    1587   -1581   -1584      68    1572    1581   -1575   -1578      68
    1689    1695   -1692   -1698      67    1677    1689   -1683   -1686      67
    1662    1671   -1665   -1668      68    1791    1797   -1794   -1800      67
    1779    1791   -1785   -1788      67    1764    1773   -1767   -1770      68
    1893    1902   -1896   -1899      68    1881    1887   -1884   -1890      67
    1866    1875   -1869   -1872      68    1980    1992   -1986   -1989      67
    1968    1980   -1974   -1977      68    1965    1974   -1968   -1971      68
    2082    2091   -2085   -2088      68    2070    2076   -2073   -2079      67
    2055    2064   -2058   -2061      68    2169    2181   -2175   -2178      67
    2157    2169   -2163   -2166      68    2154    2163   -2157   -2160      68
    2271    2277   -2274   -2280      67    2259    2271   -2265   -2268      67
    2244    2253   -2247   -2250      68    2373    2379   -2376   -2382      67
    2361    2373   -2367   -2370      67    2346    2355   -2349   -2352      68
    2463    2469   -2466   -2472      67    2451    2463   -2457   -2460      68
    2448    2457   -2451   -2454      68    2568    2577   -2571   -2574      68
    2556    2562   -2559   -2565      67    2541    2550   -2544   -2547      68
    2655    2661   -2658   -2664      67    2643    2655   -2649   -2652      68
    2640    2649   -2643   -2646      68    2760    2766   -2763   -2769      67
    2748    2760   -2754   -2757      67    2733    2742   -2736   -2739      68
    2850    2856   -2853   -2859      67    2838    2850   -2844   -2847      68
    2835    2844   -2838   -2841      68    2955    2964   -2958   -2961      68
    2943    2949   -2946   -2952      67    2928    2937   -2931   -2934      68
    3054    3063   -3057   -3060      68    3042    3048   -3045   -3051      67
    3027    3036   -3030   -3033      68    3153    3159   -3156   -3162      67
    3141    3153   -3147   -3150      67    3126    3135   -3129   -3132      68
    3243    3255   -3249   -3252      67    3231    3243   -3237   -3240      68
    3228    3237   -3231   -3234      68    3333    3345   -3339   -3342      67
    3321    3333   -3327   -3330      68    3318    3327   -3321   -3324      68
    3423    3435   -3429   -3432      67    3411    3423   -3417   -3420      68
    3408    3417   -3411   -3414      68    3513    3519   -3516   -3522      67
    3501    3513   -3507   -3510      68    3498    3507   -3501   -3504      68
    3606    3618   -3612   -3615      67    3594    3606   -3600   -3603      68
    3591    3600   -3594   -3597      68    3708    3717   -3711   -3714      68
    3696    3702   -3699   -3705      67    3681    3690   -3684   -3687      68
    3795    3801   -3798   -3804      67    3783    3795   -3789   -3792      68
    3780    3789   -3783   -3786      68    3888    3894   -3891   -3897      67
    3876    3888   -3882   -3885      68    3873    3882   -3876   -3879      68
    3993    3999   -3996   -4002      67    3981    3993   -3987   -3990      67
    3966    3975   -3969   -3972      68    4095    4101   -4098   -4104      67
    4083    4095   -4089   -4092      67    4068    4077   -4071   -4074      68
    4197    4203   -4200   -4206      67    4185    4197   -4191   -4194      67
    4170    4179   -4173   -4176      68    4287    4293   -4290   -4296      67
    4275    4287   -4281   -4284      68    4272    4281   -4275   -4278      68
    4392    4401   -4395   -4398      68    4380    4386   -4383   -4389      67
    4365    4374   -4368   -4371      68    4479    4485   -4482   -4488      67
    4467    4479   -4473   -4476      68    4464    4473   -4467   -4470      68
    4572    4578   -4575   -4581      67    4560    4572   -4566   -4569      68
    4557    4566   -4560   -4563      68    4677    4683   -4680   -4686      67
    4665    4677   -4671   -4674      67    4650    4659   -4653   -4656      68
    4767    4779   -4773   -4776      67    4755    4767   -4761   -4764      68
    4752    4761   -4755   -4758      68    4869    4878   -4872   -4875      68
    4857    4863   -4860   -4866      67    4842    4851   -4845   -4848      68
    4968    4977   -4971   -4974      68    4956    4962   -4959   -4965      67
    4941    4950   -4944   -4947      68    5067    5076   -5070   -5073      68
    5055    5061   -5058   -5064      67    5040    5049   -5043   -5046      68
    5154    5166   -5160   -5163      67    5142    5154   -5148   -5151      68
    5139    5148   -5142   -5145      68    5256    5262   -5259   -5265      67
    5244    5256   -5250   -5253      67    5229    5238   -5232   -5235      68
    5346    5358   -5352   -5355      67    5334    5346   -5340   -5343      68
    5331    5340   -5334   -5337      68    5436    5442   -5439   -5445      67
    5424    5436   -5430   -5433      68    5421    5430   -5424   -5427      68
    5529    5535   -5532   -5538      67    5517    5529   -5523   -5526      68
    5514    5523   -5517   -5520      68    5634    5640   -5637   -5643      67
    5622    5634   -5628   -5631      67    5607    5616   -5610   -5613      68
    5736    5745   -5739   -5742      68    5724    5730   -5727   -5733      67
    5709    5718   -5712   -5715      68    5823    5829   -5826   -5832      67
    5811    5823   -5817   -5820      68    5808    5817   -5811   -5814      68
    5916    5928   -5922   -5925      67    5904    5916   -5910   -5913      68
    5901    5910   -5904   -5907      68    6018    6027   -6021   -6024      68
    6006    6012   -6009   -6015      67    5991    6000   -5994   -5997      68
    6105    6117   -6111   -6114      67    6093    6105   -6099   -6102      68
    6090    6099   -6093   -6096      68    6207    6213   -6210   -6216      67
    6195    6207   -6201   -6204      67    6180    6189   -6183   -6186      68
    6309    6315   -6312   -6318      67    6297    6309   -6303   -6306      67
    6282    6291   -6285   -6288      68    6399    6411   -6405   -6408      67
    6387    6399   -6393   -6396      68    6384    6393   -6387   -6390      68
    6489    6495   -6492   -6498      67    6477    6489   -6483   -6486      68
    6474    6483   -6477   -6480      68    6969    6978   -6981   -7014      68
    7011    6981   -6978   -6975      68    6948    6960   -6963   -7008      68
    6957    6963   -6960   -7005      68    6954    6960   -6957   -7002      68
    6951    6957   -6954   -6999      68    6948    6954   -6951   -6996      68
    6936    6987   -6939   -6942      68    6930    6936   -6933   -6984      68
%FLAG DIHEDRALS_WITHOUT_HYDROGEN                                                
%FORMAT(10I8)                                                                   
      93      96     105     108       1      93      96    -105     108       2
      93      96    -105     108       3      87      81      75      93       4
      87      81     -75      93       5      81      75      93      96       9
      75      93      96      99      12      75      93      96     102      12
      75      93      96     105      13      75      93     -96     105      12
      72      30      24      81      14      60      57      69      72      16
      51      45      42      72      18      51      57     -69      72      16
      48      45      42      72      18      48      45      51      57      19
      45      42      72      69      20      45      51      57      60      17
      45      51     -57      69      17      42      45      51      57      19
      42      72     -69      57      21      39      33     -30      72      22
      39      42      45      48      18      39      42      45      51      18
      39      42      72      69      20      33      30      24      81      14
      33      30     -72      42      24      33      30      72      69      24
      33      39      42      45      25      33      39     -42      72      25
      30      24      81      75      10      30      24      81      87      10
      30      33     -39      42      23      30      72     -42      39      20
      30      72      42      45      20      30      72      69      57      21
      24      21     -15      75      26      24      21     -15      75      27
      24      30      33      39      22      24      30      72      42      24
      24      30      72      69      24      24      81      75      93      10
      21      15     -75      81      10      21      15      75      93       4
      21      15     -75      93       5      21      24      30      33      28
      21      24     -30      33      29      21      24     -30      33      30
      21      24     -30      33      31      21      24      30      72      14
      21      24     -81      75      10      21      24      81      87       4
      21      24     -81      87       5      15      21      24      30      32
      15      21     -24      30      27      15      21     -24      81      26
      15      21     -24      81      27      15      75     -81      24      33
      15      75     -81      24      34      15      75     -81      24      35
      15      75      81      87      10      15      75      93      96       9
       6      15      21      24      26       6      15     -21      24      27
       6      15      75      81      33       6      15     -75      81      34
       6      15     -75      81      35       6      15      75      93      10
       3       6      15      21      10       3       6      15      75      36
       3       6     -15      75      37       3       6     -15      75      38
     195     198     207     210       1     195     198    -207     210       2
     195     198    -207     210       3     189     183     177     195       4
     189     183    -177     195       5     183     177     195     198       9
     177     195     198     201      12     177     195     198     204      12
     177     195     198     207      13     177     195    -198     207      12
     174     132     126     183      14     162     159     171     174      16
     153     147     144     174      18     153     159    -171     174      16
     150     147     144     174      18     150     147     153     159      19
     147     144     174     171      20     147     153     159     162      17
     147     153    -159     171      17     144     147     153     159      19
     144     174    -171     159      21     141     135    -132     174      22
     141     144     147     150      18     141     144     147     153      18
     141     144     174     171      20     135     132     126     183      14
     135     132    -174     144      24     135     132     174     171      24
     135     141     144     147      25     135     141    -144     174      25
     132     126     183     177      10     132     126     183     189      10
     132     135    -141     144      23     132     174    -144     141      20
     132     174     144     147      20     132     174     171     159      21
     126     123    -117     177      26     126     123    -117     177      27
     126     132     135     141      22     126     132     174     144      24
     126     132     174     171      24     126     183     177     195      10
     123     117    -177     183      10     123     117     177     195       4
     123     117    -177     195       5     123     126     132     135      28
     123     126    -132     135      29     123     126    -132     135      30
     123     126    -132     135      31     123     126     132     174      14
     123     126    -183     177      10     123     126     183     189       4
     123     126    -183     189       5     117     123     126     132      32
     117     123    -126     132      27     117     123    -126     183      26
     117     123    -126     183      27     117     177    -183     126      33
     117     177    -183     126      34     117     177    -183     126      35
     117     177     183     189      10     117     177     195     198       9
     108     117     123     126      26     108     117    -123     126      27
     108     117     177     183      33     108     117    -177     183      34
     108     117    -177     183      35     108     117     177     195      10
     105     108     117     123      10     105     108     117     177      36
     105     108    -117     177      37     105     108    -117     177      38
     102      96     105     108      12      99      96     105     108      12
      96     105     108     117       9     294     297     306     309       1
     294     297    -306     309       2     294     297    -306     309       3
     288     282     276     294       4     288     282    -276     294       5
     282     276     294     297       9     276     294     297     300      12
     276     294     297     303      12     276     294     297     306      13
     276     294    -297     306      12     273     234     228     282      14
     261     249     246     273      40     261     264    -270     273      39
     252     249     246     273      40     252     249     261     264      16
     249     246     273     270      20     249     261    -264     270      39
     246     249     261     264      16     246     273    -270     264      21
     243     237    -234     273      22     243     246     249     252      40
     243     246     249     261      40     243     246     273     270      20
     237     234     228     282      14     237     234    -273     246      24
     237     234     273     270      24     237     243     246     249      25
     237     243    -246     273      25     234     228     282     276      10
     234     228     282     288      10     234     237    -243     246      23
     234     273    -246     243      20     234     273     246     249      20
     234     273     270     264      21     228     225    -219     276      26
     228     225    -219     276      27     228     234     237     243      22
     228     234     273     246      24     228     234     273     270      24
     228     282     276     294      10     225     219    -276     282      10
     225     219     276     294       4     225     219    -276     294       5
     225     228     234     237      41     225     228    -234     237      42
     225     228    -234     237      43     225     228    -234     237      44
     225     228     234     273      14     225     228    -282     276      10
     225     228     282     288       4     225     228    -282     288       5
     219     225     228     234      32     219     225    -228     234      27
     219     225    -228     282      26     219     225    -228     282      27
     219     276    -282     228      33     219     276    -282     228      34
     219     276    -282     228      35     219     276     282     288      10
     219     276     294     297       9     210     219     225     228      26
     210     219    -225     228      27     210     219     276     282      33
     210     219    -276     282      34     210     219    -276     282      35
     210     219     276     294      10     207     210     219     225      10
     207     210     219     276      36     207     210    -219     276      37
     207     210    -219     276      38     204     198     207     210      12
     201     198     207     210      12     198     207     210     219       9
     384     387     396     399       1     384     387    -396     399       2
     384     387    -396     399       3     378     372     366     384       4
     378     372    -366     384       5     372     366     384     387       9
     366     384     387     390      12     366     384     387     393      12
     366     384     387     396      13     366     384    -387     396      12
     360     333     327     372      14     351     348     354     360      19
     348     354     360     363      19     342     336     333     360      46
     342     348    -354     360      19     336     333     327     372      14
     336     333     360     354      48     336     333     360     363      48
     336     342     348     351      45     336     342    -348     351      49
     336     342    -348     354      45     333     327     372     366      10
     333     327     372     378      10     333     336     342     348      47
     333     360    -354     348      19     327     324    -318     366      26
     327     324    -318     366      27     327     333     336     342      46
     327     333     360     354      48     327     333     360     363      48
     327     372     366     384      10     324     318    -366     372      10
     324     318     366     384       4     324     318    -366     384       5
     324     327     333     336      50     324     327    -333     336      51
     324     327    -333     336      52     324     327    -333     336      53
     324     327     333     360      14     324     327    -372     366      10
     324     327     372     378       4     324     327    -372     378       5
     318     324     327     333      32     318     324    -327     333      27
     318     324    -327     372      26     318     324    -327     372      27
     318     366    -372     327      33     318     366    -372     327      34
     318     366    -372     327      35     318     366     372     378      10
     318     366     384     387       9     309     318     324     327      26
     309     318    -324     327      27     309     318     366     372      33
     309     318    -366     372      34     309     318    -366     372      35
     309     318     366     384      10     306     309     318     324      10
     306     309     318     366      36     306     309    -318     366      37
     306     309    -318     366      38     303     297     306     309      12
     300     297     306     309      12     297     306     309     318       9
     477     480     489     492       1     477     480    -489     492       2
     477     480    -489     492       3     471     465     459     477       4
     471     465    -459     477       5     465     459     477     480       9
     459     477     480     483      12     459     477     480     486      12
     459     477     480     489      13     459     477    -480     489      12
     453     423     417     465      14     441     438     450     453      16
     438     450     453     456      54     432     426     423     453      46
     432     438    -450     453      16     426     423     417     465      14
     426     423     453     450      48     426     423     453     456      48
     426     432     438     441      25     426     432    -438     450      25
     423     417     465     459      10     423     417     465     471      10
     423     426     432     438      47     423     453    -450     438      54
     417     414    -408     459      26     417     414    -408     459      27
     417     423     426     432      46     417     423     453     450      48
     417     423     453     456      48     417     465     459     477      10
     414     408    -459     465      10     414     408     459     477       4
     414     408    -459     477       5     414     417     423     426      55
     414     417    -423     426      56     414     417    -423     426      57
     414     417    -423     426      58     414     417     423     453      14
     414     417    -465     459      10     414     417     465     471       4
     414     417    -465     471       5     408     414     417     423      32
     408     414    -417     423      27     408     414    -417     465      26
     408     414    -417     465      27     408     459    -465     417      33
     408     459    -465     417      34     408     459    -465     417      35
     408     459     465     471      10     408     459     477     480       9
     399     408     414     417      26     399     408    -414     417      27
     399     408     459     465      33     399     408    -459     465      34
     399     408    -459     465      35     399     408     459     477      10
     396     399     408     414      10     396     399     408     459      36
     396     399    -408     459      37     396     399    -408     459      38
     393     387     396     399      12     390     387     396     399      12
     387     396     399     408       9     576     579     588     591       1
     576     579    -588     591       2     576     579    -588     591       3
     570     564     558     576       4     570     564    -558     576       5
     564     558     576     579       9     558     576     579     582      12
     558     576     579     585      12     558     576     579     588      13
     558     576    -579     588      12     555     516     510     564      14
     543     531     528     555      40     543     546    -552     555      39
     534     531     528     555      40     534     531     543     546      16
     531     528     555     552      20     531     543    -546     552      39
     528     531     543     546      16     528     555    -552     546      21
     525     519    -516     555      22     525     528     531     534      40
     525     528     531     543      40     525     528     555     552      20
     519     516     510     564      14     519     516    -555     528      24
     519     516     555     552      24     519     525     528     531      25
     519     525    -528     555      25     516     510     564     558      10
     516     510     564     570      10     516     519    -525     528      23
     516     555    -528     525      20     516     555     528     531      20
     516     555     552     546      21     510     507    -501     558      26
     510     507    -501     558      27     510     516     519     525      22
     510     516     555     528      24     510     516     555     552      24
     510     564     558     576      10     507     501    -558     564      10
     507     501     558     576       4     507     501    -558     576       5
     507     510     516     519      41     507     510    -516     519      42
     507     510    -516     519      43     507     510    -516     519      44
     507     510     516     555      14     507     510    -564     558      10
     507     510     564     570       4     507     510    -564     570       5
     501     507     510     516      32     501     507    -510     516      27
     501     507    -510     564      26     501     507    -510     564      27
     501     558    -564     510      33     501     558    -564     510      34
     501     558    -564     510      35     501     558     564     570      10
     501     558     576     579       9     492     501     507     510      26
     492     501    -507     510      27     492     501     558     564      33
     492     501    -558     564      34     492     501    -558     564      35
     492     501     558     576      10     489     492     501     507      10
     489     492     501     558      36     489     492    -501     558      37
     489     492    -501     558      38     486     480     489     492      12
     483     480     489     492      12     480     489     492     501       9
     666     669     678     681       1     666     669    -678     681       2
     666     669    -678     681       3     660     654     648     666       4
     660     654    -648     666       5     654     648     666     669       9
     648     666     669     672      12     648     666     669     675      12
     648     666     669     678      13     648     666    -669     678      12
     642     615     609     654      14     633     630     636     642      19
     630     636     642     645      19     624     618     615     642      46
     624     630    -636     642      19     618     615     609     654      14
     618     615     642     636      48     618     615     642     645      48
     618     624     630     633      45     618     624    -630     633      49
     618     624    -630     636      45     615     609     654     648      10
     615     609     654     660      10     615     618     624     630      47
     615     642    -636     630      19     609     606    -600     648      26
     609     606    -600     648      27     609     615     618     624      46
     609     615     642     636      48     609     615     642     645      48
     609     654     648     666      10     606     600    -648     654      10
     606     600     648     666       4     606     600    -648     666       5
     606     609     615     618      50     606     609    -615     618      51
     606     609    -615     618      52     606     609    -615     618      53
     606     609     615     642      14     606     609    -654     648      10
     606     609     654     660       4     606     609    -654     660       5
     600     606     609     615      32     600     606    -609     615      27
     600     606    -609     654      26     600     606    -609     654      27
     600     648    -654     609      33     600     648    -654     609      34
     600     648    -654     609      35     600     648     654     660      10
     600     648     666     669       9     591     600     606     609      26
     591     600    -606     609      27     591     600     648     654      33
     591     600    -648     654      34     591     600    -648     654      35
     591     600     648     666      10     588     591     600     606      10
     588     591     600     648      36     588     591    -600     648      37
     588     591    -600     648      38     585     579     588     591      12
     582     579     588     591      12     579     588     591     600       9
     765     768     777     780       1     765     768    -777     780       2
     765     768    -777     780       3     759     753     747     765       4
     759     753    -747     765       5     753     747     765     768       9
     747     765     768     771      12     747     765     768     774      12
     747     765     768     777      13     747     765    -768     777      12
     744     705     699     753      14     732     720     717     744      40
     732     735    -741     744      39     723     720     717     744      40
     723     720     732     735      16     720     717     744     741      20
     720     732    -735     741      39     717     720     732     735      16
     717     744    -741     735      21     714     708    -705     744      22
     714     717     720     723      40     714     717     720     732      40
     714     717     744     741      20     708     705     699     753      14
     708     705    -744     717      24     708     705     744     741      24
     708     714     717     720      25     708     714    -717     744      25
     705     699     753     747      10     705     699     753     759      10
     705     708    -714     717      23     705     744    -717     714      20
     705     744     717     720      20     705     744     741     735      21
     699     696    -690     747      26     699     696    -690     747      27
     699     705     708     714      22     699     705     744     717      24
     699     705     744     741      24     699     753     747     765      10
     696     690    -747     753      10     696     690     747     765       4
     696     690    -747     765       5     696     699     705     708      41
     696     699    -705     708      42     696     699    -705     708      43
     696     699    -705     708      44     696     699     705     744      14
     696     699    -753     747      10     696     699     753     759       4
     696     699    -753     759       5     690     696     699     705      32
     690     696    -699     705      27     690     696    -699     753      26
     690     696    -699     753      27     690     747    -753     699      33
     690     747    -753     699      34     690     747    -753     699      35
     690     747     753     759      10     690     747     765     768       9
     681     690     696     699      26     681     690    -696     699      27
     681     690     747     753      33     681     690    -747     753      34
     681     690    -747     753      35     681     690     747     765      10
     678     681     690     696      10     678     681     690     747      36
     678     681    -690     747      37     678     681    -690     747      38
     675     669     678     681      12     672     669     678     681      12
     669     678     681     690       9     855     858     867     870       1
     855     858    -867     870       2     855     858    -867     870       3
     849     843     837     855       4     849     843    -837     855       5
     843     837     855     858       9     837     855     858     861      12
     837     855     858     864      12     837     855     858     867      13
     837     855    -858     867      12     831     804     798     843      14
     822     819     825     831      19     819     825     831     834      19
     813     807     804     831      46     813     819    -825     831      19
     807     804     798     843      14     807     804     831     825      48
     807     804     831     834      48     807     813     819     822      45
     807     813    -819     822      49     807     813    -819     825      45
     804     798     843     837      10     804     798     843     849      10
     804     807     813     819      47     804     831    -825     819      19
     798     795    -789     837      26     798     795    -789     837      27
     798     804     807     813      46     798     804     831     825      48
     798     804     831     834      48     798     843     837     855      10
     795     789    -837     843      10     795     789     837     855       4
     795     789    -837     855       5     795     798     804     807      50
     795     798    -804     807      51     795     798    -804     807      52
     795     798    -804     807      53     795     798     804     831      14
     795     798    -843     837      10     795     798     843     849       4
     795     798    -843     849       5     789     795     798     804      32
     789     795    -798     804      27     789     795    -798     843      26
     789     795    -798     843      27     789     837    -843     798      33
     789     837    -843     798      34     789     837    -843     798      35
     789     837     843     849      10     789     837     855     858       9
     780     789     795     798      26     780     789    -795     798      27
     780     789     837     843      33     780     789    -837     843      34
     780     789    -837     843      35     780     789     837     855      10
     777     780     789     795      10     777     780     789     837      36
     777     780    -789     837      37     777     780    -789     837      38
     774     768     777     780      12     771     768     777     780      12
     768     777     780     789       9     954     957     966     969       1
     954     957    -966     969       2     954     957    -966     969       3
     948     942     936     954       4     948     942    -936     954       5
     942     936     954     957       9     936     954     957     960      12
     936     954     957     963      12     936     954     957     966      13
     936     954    -957     966      12     933     894     888     942      14
     921     909     906     933      40     921     924    -930     933      39
     912     909     906     933      40     912     909     921     924      16
     909     906     933     930      20     909     921    -924     930      39
     906     909     921     924      16     906     933    -930     924      21
     903     897    -894     933      22     903     906     909     912      40
     903     906     909     921      40     903     906     933     930      20
     897     894     888     942      14     897     894    -933     906      24
     897     894     933     930      24     897     903     906     909      25
     897     903    -906     933      25     894     888     942     936      10
     894     888     942     948      10     894     897    -903     906      23
     894     933    -906     903      20     894     933     906     909      20
     894     933     930     924      21     888     885    -879     936      26
     888     885    -879     936      27     888     894     897     903      22
     888     894     933     906      24     888     894     933     930      24
     888     942     936     954      10     885     879    -936     942      10
     885     879     936     954       4     885     879    -936     954       5
     885     888     894     897      41     885     888    -894     897      42
     885     888    -894     897      43     885     888    -894     897      44
     885     888     894     933      14     885     888    -942     936      10
     885     888     942     948       4     885     888    -942     948       5
     879     885     888     894      32     879     885    -888     894      27
     879     885    -888     942      26     879     885    -888     942      27
     879     936    -942     888      33     879     936    -942     888      34
     879     936    -942     888      35     879     936     942     948      10
     879     936     954     957       9     870     879     885     888      26
     870     879    -885     888      27     870     879     936     942      33
     870     879    -936     942      34     870     879    -936     942      35
     870     879     936     954      10     867     870     879     885      10
     867     870     879     936      36     867     870    -879     936      37
     867     870    -879     936      38     864     858     867     870      12
     861     858     867     870      12     858     867     870     879       9
    1053    1056    1065    1068       1    1053    1056   -1065    1068       2
    1053    1056   -1065    1068       3    1047    1041    1035    1053       4
    1047    1041   -1035    1053       5    1041    1035    1053    1056       9
    1035    1053    1056    1059      12    1035    1053    1056    1062      12
    1035    1053    1056    1065      13    1035    1053   -1056    1065      12
    1032     993     987    1041      14    1020    1008    1005    1032      40
    1020    1023   -1029    1032      39    1011    1008    1005    1032      40
    1011    1008    1020    1023      16    1008    1005    1032    1029      20
    1008    1020   -1023    1029      39    1005    1008    1020    1023      16
    1005    1032   -1029    1023      21    1002     996    -993    1032      22
    1002    1005    1008    1011      40    1002    1005    1008    1020      40
    1002    1005    1032    1029      20     996     993     987    1041      14
     996     993   -1032    1005      24     996     993    1032    1029      24
     996    1002    1005    1008      25     996    1002   -1005    1032      25
     993     987    1041    1035      10     993     987    1041    1047      10
     993     996   -1002    1005      23     993    1032   -1005    1002      20
     993    1032    1005    1008      20     993    1032    1029    1023      21
     987     984    -978    1035      26     987     984    -978    1035      27
     987     993     996    1002      22     987     993    1032    1005      24
     987     993    1032    1029      24     987    1041    1035    1053      10
     984     978   -1035    1041      10     984     978    1035    1053       4
     984     978   -1035    1053       5     984     987     993     996      41
     984     987    -993     996      42     984     987    -993     996      43
     984     987    -993     996      44     984     987     993    1032      14
     984     987   -1041    1035      10     984     987    1041    1047       4
     984     987   -1041    1047       5     978     984     987     993      32
     978     984    -987     993      27     978     984    -987    1041      26
     978     984    -987    1041      27     978    1035   -1041     987      33
     978    1035   -1041     987      34     978    1035   -1041     987      35
     978    1035    1041    1047      10     978    1035    1053    1056       9
     969     978     984     987      26     969     978    -984     987      27
     969     978    1035    1041      33     969     978   -1035    1041      34
     969     978   -1035    1041      35     969     978    1035    1053      10
     966     969     978     984      10     966     969     978    1035      36
     966     969    -978    1035      37     966     969    -978    1035      38
     963     957     966     969      12     960     957     966     969      12
     957     966     969     978       9    1143    1146    1155    1158       1
    1143    1146   -1155    1158       2    1143    1146   -1155    1158       3
    1137    1131    1125    1143       4    1137    1131   -1125    1143       5
    1131    1125    1143    1146       9    1125    1143    1146    1149      12
    1125    1143    1146    1152      12    1125    1143    1146    1155      13
    1125    1143   -1146    1155      12    1119    1092    1086    1131      14
    1110    1107    1113    1119      19    1107    1113    1119    1122      19
    1101    1095    1092    1119      46    1101    1107   -1113    1119      19
    1095    1092    1086    1131      14    1095    1092    1119    1113      48
    1095    1092    1119    1122      48    1095    1101    1107    1110      45
    1095    1101   -1107    1110      49    1095    1101   -1107    1113      45
    1092    1086    1131    1125      10    1092    1086    1131    1137      10
    1092    1095    1101    1107      47    1092    1119   -1113    1107      19
    1086    1083   -1077    1125      26    1086    1083   -1077    1125      27
    1086    1092    1095    1101      46    1086    1092    1119    1113      48
    1086    1092    1119    1122      48    1086    1131    1125    1143      10
    1083    1077   -1125    1131      10    1083    1077    1125    1143       4
    1083    1077   -1125    1143       5    1083    1086    1092    1095      50
    1083    1086   -1092    1095      51    1083    1086   -1092    1095      52
    1083    1086   -1092    1095      53    1083    1086    1092    1119      14
    1083    1086   -1131    1125      10    1083    1086    1131    1137       4
    1083    1086   -1131    1137       5    1077    1083    1086    1092      32
    1077    1083   -1086    1092      27    1077    1083   -1086    1131      26
    1077    1083   -1086    1131      27    1077    1125   -1131    1086      33
    1077    1125   -1131    1086      34    1077    1125   -1131    1086      35
    1077    1125    1131    1137      10    1077    1125    1143    1146       9
    1068    1077    1083    1086      26    1068    1077   -1083    1086      27
    1068    1077    1125    1131      33    1068    1077   -1125    1131      34
    1068    1077   -1125    1131      35    1068    1077    1125    1143      10
    1065    1068    1077    1083      10    1065    1068    1077    1125      36
    1065    1068   -1077    1125      37    1065    1068   -1077    1125      38
    1062    1056    1065    1068      12    1059    1056    1065    1068      12
    1056    1065    1068    1077       9    1236    1239    1248    1251       1
    1236    1239   -1248    1251       2    1236    1239   -1248    1251       3
    1230    1224    1218    1236       4    1230    1224   -1218    1236       5
    1224    1218    1236    1239       9    1218    1236    1239    1242      12
    1218    1236    1239    1245      12    1218    1236    1239    1248      13
    1218    1236   -1239    1248      12    1212    1182    1176    1224      14
    1200    1197    1209    1212      16    1197    1209    1212    1215      54
    1191    1185    1182    1212      46    1191    1197   -1209    1212      16
    1185    1182    1176    1224      14    1185    1182    1212    1209      48
    1185    1182    1212    1215      48    1185    1191    1197    1200      25
    1185    1191   -1197    1209      25    1182    1176    1224    1218      10
    1182    1176    1224    1230      10    1182    1185    1191    1197      47
    1182    1212   -1209    1197      54    1176    1173   -1167    1218      26
    1176    1173   -1167    1218      27    1176    1182    1185    1191      46
    1176    1182    1212    1209      48    1176    1182    1212    1215      48
    1176    1224    1218    1236      10    1173    1167   -1218    1224      10
    1173    1167    1218    1236       4    1173    1167   -1218    1236       5
    1173    1176    1182    1185      55    1173    1176   -1182    1185      56
    1173    1176   -1182    1185      57    1173    1176   -1182    1185      58
    1173    1176    1182    1212      14    1173    1176   -1224    1218      10
    1173    1176    1224    1230       4    1173    1176   -1224    1230       5
    1167    1173    1176    1182      32    1167    1173   -1176    1182      27
    1167    1173   -1176    1224      26    1167    1173   -1176    1224      27
    1167    1218   -1224    1176      33    1167    1218   -1224    1176      34
    1167    1218   -1224    1176      35    1167    1218    1224    1230      10
    1167    1218    1236    1239       9    1158    1167    1173    1176      26
    1158    1167   -1173    1176      27    1158    1167    1218    1224      33
    1158    1167   -1218    1224      34    1158    1167   -1218    1224      35
    1158    1167    1218    1236      10    1155    1158    1167    1173      10
    1155    1158    1167    1218      36    1155    1158   -1167    1218      37
    1155    1158   -1167    1218      38    1152    1146    1155    1158      12
    1149    1146    1155    1158      12    1146    1155    1158    1167       9
    1338    1341    1350    1353       1    1338    1341   -1350    1353       2
    1338    1341   -1350    1353       3    1332    1326    1320    1338       4
    1332    1326   -1320    1338       5    1326    1320    1338    1341       9
    1320    1338    1341    1344      12    1320    1338    1341    1347      12
    1320    1338    1341    1350      13    1320    1338   -1341    1350      12
    1317    1275    1269    1326      14    1305    1302    1314    1317      16
    1296    1290    1287    1317      18    1296    1302   -1314    1317      16
    1293    1290    1287    1317      18    1293    1290    1296    1302      19
    1290    1287    1317    1314      20    1290    1296    1302    1305      17
    1290    1296   -1302    1314      17    1287    1290    1296    1302      19
    1287    1317   -1314    1302      21    1284    1278   -1275    1317      22
    1284    1287    1290    1293      18    1284    1287    1290    1296      18
    1284    1287    1317    1314      20    1278    1275    1269    1326      14
    1278    1275   -1317    1287      24    1278    1275    1317    1314      24
    1278    1284    1287    1290      25    1278    1284   -1287    1317      25
    1275    1269    1326    1320      10    1275    1269    1326    1332      10
    1275    1278   -1284    1287      23    1275    1317   -1287    1284      20
    1275    1317    1287    1290      20    1275    1317    1314    1302      21
    1269    1266   -1260    1320      26    1269    1266   -1260    1320      27
    1269    1275    1278    1284      22    1269    1275    1317    1287      24
    1269    1275    1317    1314      24    1269    1326    1320    1338      10
    1266    1260   -1320    1326      10    1266    1260    1320    1338       4
    1266    1260   -1320    1338       5    1266    1269    1275    1278      28
    1266    1269   -1275    1278      29    1266    1269   -1275    1278      30
    1266    1269   -1275    1278      31    1266    1269    1275    1317      14
    1266    1269   -1326    1320      10    1266    1269    1326    1332       4
    1266    1269   -1326    1332       5    1260    1266    1269    1275      32
    1260    1266   -1269    1275      27    1260    1266   -1269    1326      26
    1260    1266   -1269    1326      27    1260    1320   -1326    1269      33
    1260    1320   -1326    1269      34    1260    1320   -1326    1269      35
    1260    1320    1326    1332      10    1260    1320    1338    1341       9
    1251    1260    1266    1269      26    1251    1260   -1266    1269      27
    1251    1260    1320    1326      33    1251    1260   -1320    1326      34
    1251    1260   -1320    1326      35    1251    1260    1320    1338      10
    1248    1251    1260    1266      10    1248    1251    1260    1320      36
    1248    1251   -1260    1320      37    1248    1251   -1260    1320      38
    1245    1239    1248    1251      12    1242    1239    1248    1251      12
    1239    1248    1251    1260       9    1431    1434    1443    1446       1
    1431    1434   -1443    1446       2    1431    1434   -1443    1446       3
    1425    1419    1413    1431       4    1425    1419   -1413    1431       5
    1419    1413    1431    1434       9    1413    1431    1434    1437      12
    1413    1431    1434    1440      12    1413    1431    1434    1443      13
    1413    1431   -1434    1443      12    1407    1377    1371    1419      14
    1395    1392    1404    1407      16    1392    1404    1407    1410      54
    1386    1380    1377    1407      46    1386    1392   -1404    1407      16
    1380    1377    1371    1419      14    1380    1377    1407    1404      48
    1380    1377    1407    1410      48    1380    1386    1392    1395      25
    1380    1386   -1392    1404      25    1377    1371    1419    1413      10
    1377    1371    1419    1425      10    1377    1380    1386    1392      47
    1377    1407   -1404    1392      54    1371    1368   -1362    1413      26
    1371    1368   -1362    1413      27    1371    1377    1380    1386      46
    1371    1377    1407    1404      48    1371    1377    1407    1410      48
    1371    1419    1413    1431      10    1368    1362   -1413    1419      10
    1368    1362    1413    1431       4    1368    1362   -1413    1431       5
    1368    1371    1377    1380      55    1368    1371   -1377    1380      56
    1368    1371   -1377    1380      57    1368    1371   -1377    1380      58
    1368    1371    1377    1407      14    1368    1371   -1419    1413      10
    1368    1371    1419    1425       4    1368    1371   -1419    1425       5
    1362    1368    1371    1377      32    1362    1368   -1371    1377      27
    1362    1368   -1371    1419      26    1362    1368   -1371    1419      27
    1362    1413   -1419    1371      33    1362    1413   -1419    1371      34
    1362    1413   -1419    1371      35    1362    1413    1419    1425      10
    1362    1413    1431    1434       9    1353    1362    1368    1371      26
    1353    1362   -1368    1371      27    1353    1362    1413    1419      33
    1353    1362   -1413    1419      34    1353    1362   -1413    1419      35
    1353    1362    1413    1431      10    1350    1353    1362    1368      10
    1350    1353    1362    1413      36    1350    1353   -1362    1413      37
    1350    1353   -1362    1413      38    1347    1341    1350    1353      12
    1344    1341    1350    1353      12    1341    1350    1353    1362       9
    1533    1536    1545    1548       1    1533    1536   -1545    1548       2
    1533    1536   -1545    1548       3    1527    1521    1515    1533       4
    1527    1521   -1515    1533       5    1521    1515    1533    1536       9
    1515    1533    1536    1539      12    1515    1533    1536    1542      12
    1515    1533    1536    1545      13    1515    1533   -1536    1545      12
    1512    1470    1464    1521      14    1500    1497    1509    1512      16
    1491    1485    1482    1512      18    1491    1497   -1509    1512      16
    1488    1485    1482    1512      18    1488    1485    1491    1497      19
    1485    1482    1512    1509      20    1485    1491    1497    1500      17
    1485    1491   -1497    1509      17    1482    1485    1491    1497      19
    1482    1512   -1509    1497      21    1479    1473   -1470    1512      22
    1479    1482    1485    1488      18    1479    1482    1485    1491      18
    1479    1482    1512    1509      20    1473    1470    1464    1521      14
    1473    1470   -1512    1482      24    1473    1470    1512    1509      24
    1473    1479    1482    1485      25    1473    1479   -1482    1512      25
    1470    1464    1521    1515      10    1470    1464    1521    1527      10
    1470    1473   -1479    1482      23    1470    1512   -1482    1479      20
    1470    1512    1482    1485      20    1470    1512    1509    1497      21
    1464    1461   -1455    1515      26    1464    1461   -1455    1515      27
    1464    1470    1473    1479      22    1464    1470    1512    1482      24
    1464    1470    1512    1509      24    1464    1521    1515    1533      10
    1461    1455   -1515    1521      10    1461    1455    1515    1533       4
    1461    1455   -1515    1533       5    1461    1464    1470    1473      28
    1461    1464   -1470    1473      29    1461    1464   -1470    1473      30
    1461    1464   -1470    1473      31    1461    1464    1470    1512      14
    1461    1464   -1521    1515      10    1461    1464    1521    1527       4
    1461    1464   -1521    1527       5    1455    1461    1464    1470      32
    1455    1461   -1464    1470      27    1455    1461   -1464    1521      26
    1455    1461   -1464    1521      27    1455    1515   -1521    1464      33
    1455    1515   -1521    1464      34    1455    1515   -1521    1464      35
    1455    1515    1521    1527      10    1455    1515    1533    1536       9
    1446    1455    1461    1464      26    1446    1455   -1461    1464      27
    1446    1455    1515    1521      33    1446    1455   -1515    1521      34
    1446    1455   -1515    1521      35    1446    1455    1515    1533      10
    1443    1446    1455    1461      10    1443    1446    1455    1515      36
    1443    1446   -1455    1515      37    1443    1446   -1455    1515      38
    1440    1434    1443    1446      12    1437    1434    1443    1446      12
    1434    1443    1446    1455       9    1623    1626    1635    1638       1
    1623    1626   -1635    1638       2    1623    1626   -1635    1638       3
    1617    1611    1605    1623       4    1617    1611   -1605    1623       5
    1611    1605    1623    1626       9    1605    1623    1626    1629      12
    1605    1623    1626    1632      12    1605    1623    1626    1635      13
    1605    1623   -1626    1635      12    1599    1572    1566    1611      14
    1590    1587    1593    1599      19    1587    1593    1599    1602      19
    1581    1575    1572    1599      46    1581    1587   -1593    1599      19
    1575    1572    1566    1611      14    1575    1572    1599    1593      48
    1575    1572    1599    1602      48    1575    1581    1587    1590      45
    1575    1581   -1587    1590      49    1575    1581   -1587    1593      45
    1572    1566    1611    1605      10    1572    1566    1611    1617      10
    1572    1575    1581    1587      47    1572    1599   -1593    1587      19
    1566    1563   -1557    1605      26    1566    1563   -1557    1605      27
    1566    1572    1575    1581      46    1566    1572    1599    1593      48
    1566    1572    1599    1602      48    1566    1611    1605    1623      10
    1563    1557   -1605    1611      10    1563    1557    1605    1623       4
    1563    1557   -1605    1623       5    1563    1566    1572    1575      50
    1563    1566   -1572    1575      51    1563    1566   -1572    1575      52
    1563    1566   -1572    1575      53    1563    1566    1572    1599      14
    1563    1566   -1611    1605      10    1563    1566    1611    1617       4
    1563    1566   -1611    1617       5    1557    1563    1566    1572      32
    1557    1563   -1566    1572      27    1557    1563   -1566    1611      26
    1557    1563   -1566    1611      27    1557    1605   -1611    1566      33
    1557    1605   -1611    1566      34    1557    1605   -1611    1566      35
    1557    1605    1611    1617      10    1557    1605    1623    1626       9
    1548    1557    1563    1566      26    1548    1557   -1563    1566      27
    1548    1557    1605    1611      33    1548    1557   -1605    1611      34
    1548    1557   -1605    1611      35    1548    1557    1605    1623      10
    1545    1548    1557    1563      10    1545    1548    1557    1605      36
    1545    1548   -1557    1605      37    1545    1548   -1557    1605      38
    1542    1536    1545    1548      12    1539    1536    1545    1548      12
    1536    1545    1548    1557       9    1725    1728    1737    1740       1
    1725    1728   -1737    1740       2    1725    1728   -1737    1740       3
    1719    1713    1707    1725       4    1719    1713   -1707    1725       5
    1713    1707    1725    1728       9    1707    1725    1728    1731      12
    1707    1725    1728    1734      12    1707    1725    1728    1737      13
    1707    1725   -1728    1737      12    1704    1662    1656    1713      14
    1692    1689    1701    1704      16    1683    1677    1674    1704      18
    1683    1689   -1701    1704      16    1680    1677    1674    1704      18
    1680    1677    1683    1689      19    1677    1674    1704    1701      20
    1677    1683    1689    1692      17    1677    1683   -1689    1701      17
    1674    1677    1683    1689      19    1674    1704   -1701    1689      21
    1671    1665   -1662    1704      22    1671    1674    1677    1680      18
    1671    1674    1677    1683      18    1671    1674    1704    1701      20
    1665    1662    1656    1713      14    1665    1662   -1704    1674      24
    1665    1662    1704    1701      24    1665    1671    1674    1677      25
    1665    1671   -1674    1704      25    1662    1656    1713    1707      10
    1662    1656    1713    1719      10    1662    1665   -1671    1674      23
    1662    1704   -1674    1671      20    1662    1704    1674    1677      20
    1662    1704    1701    1689      21    1656    1653   -1647    1707      26
    1656    1653   -1647    1707      27    1656    1662    1665    1671      22
    1656    1662    1704    1674      24    1656    1662    1704    1701      24
    1656    1713    1707    1725      10    1653    1647   -1707    1713      10
    1653    1647    1707    1725       4    1653    1647   -1707    1725       5
    1653    1656    1662    1665      28    1653    1656   -1662    1665      29
    1653    1656   -1662    1665      30    1653    1656   -1662    1665      31
    1653    1656    1662    1704      14    1653    1656   -1713    1707      10
    1653    1656    1713    1719       4    1653    1656   -1713    1719       5
    1647    1653    1656    1662      32    1647    1653   -1656    1662      27
    1647    1653   -1656    1713      26    1647    1653   -1656    1713      27
    1647    1707   -1713    1656      33    1647    1707   -1713    1656      34
    1647    1707   -1713    1656      35    1647    1707    1713    1719      10
    1647    1707    1725    1728       9    1638    1647    1653    1656      26
    1638    1647   -1653    1656      27    1638    1647    1707    1713      33
    1638    1647   -1707    1713      34    1638    1647   -1707    1713      35
    1638    1647    1707    1725      10    1635    1638    1647    1653      10
    1635    1638    1647    1707      36    1635    1638   -1647    1707      37
    1635    1638   -1647    1707      38    1632    1626    1635    1638      12
    1629    1626    1635    1638      12    1626    1635    1638    1647       9
    1827    1830    1839    1842       1    1827    1830   -1839    1842       2
    1827    1830   -1839    1842       3    1821    1815    1809    1827       4
    1821    1815   -1809    1827       5    1815    1809    1827    1830       9
    1809    1827    1830    1833      12    1809    1827    1830    1836      12
    1809    1827    1830    1839      13    1809    1827   -1830    1839      12
    1806    1764    1758    1815      14    1794    1791    1803    1806      16
    1785    1779    1776    1806      18    1785    1791   -1803    1806      16
    1782    1779    1776    1806      18    1782    1779    1785    1791      19
    1779    1776    1806    1803      20    1779    1785    1791    1794      17
    1779    1785   -1791    1803      17    1776    1779    1785    1791      19
    1776    1806   -1803    1791      21    1773    1767   -1764    1806      22
    1773    1776    1779    1782      18    1773    1776    1779    1785      18
    1773    1776    1806    1803      20    1767    1764    1758    1815      14
    1767    1764   -1806    1776      24    1767    1764    1806    1803      24
    1767    1773    1776    1779      25    1767    1773   -1776    1806      25
    1764    1758    1815    1809      10    1764    1758    1815    1821      10
    1764    1767   -1773    1776      23    1764    1806   -1776    1773      20
    1764    1806    1776    1779      20    1764    1806    1803    1791      21
    1758    1755   -1749    1809      26    1758    1755   -1749    1809      27
    1758    1764    1767    1773      22    1758    1764    1806    1776      24
    1758    1764    1806    1803      24    1758    1815    1809    1827      10
    1755    1749   -1809    1815      10    1755    1749    1809    1827       4
    1755    1749   -1809    1827       5    1755    1758    1764    1767      28
    1755    1758   -1764    1767      29    1755    1758   -1764    1767      30
    1755    1758   -1764    1767      31    1755    1758    1764    1806      14
    1755    1758   -1815    1809      10    1755    1758    1815    1821       4
    1755    1758   -1815    1821       5    1749    1755    1758    1764      32
    1749    1755   -1758    1764      27    1749    1755   -1758    1815      26
    1749    1755   -1758    1815      27    1749    1809   -1815    1758      33
    1749    1809   -1815    1758      34    1749    1809   -1815    1758      35
    1749    1809    1815    1821      10    1749    1809    1827    1830       9
    1740    1749    1755    1758      26    1740    1749   -1755    1758      27
    1740    1749    1809    1815      33    1740    1749   -1809    1815      34
    1740    1749   -1809    1815      35    1740    1749    1809    1827      10
    1737    1740    1749    1755      10    1737    1740    1749    1809      36
    1737    1740   -1749    1809      37    1737    1740   -1749    1809      38
    1734    1728    1737    1740      12    1731    1728    1737    1740      12
    1728    1737    1740    1749       9    1926    1929    1938    1941       1
    1926    1929   -1938    1941       2    1926    1929   -1938    1941       3
    1920    1914    1908    1926       4    1920    1914   -1908    1926       5
    1914    1908    1926    1929       9    1908    1926    1929    1932      12
    1908    1926    1929    1935      12    1908    1926    1929    1938      13
    1908    1926   -1929    1938      12    1905    1866    1860    1914      14
    1893    1881    1878    1905      40    1893    1896   -1902    1905      39
    1884    1881    1878    1905      40    1884    1881    1893    1896      16
    1881    1878    1905    1902      20    1881    1893   -1896    1902      39
    1878    1881    1893    1896      16    1878    1905   -1902    1896      21
    1875    1869   -1866    1905      22    1875    1878    1881    1884      40
    1875    1878    1881    1893      40    1875    1878    1905    1902      20
    1869    1866    1860    1914      14    1869    1866   -1905    1878      24
    1869    1866    1905    1902      24    1869    1875    1878    1881      25
    1869    1875   -1878    1905      25    1866    1860    1914    1908      10
    1866    1860    1914    1920      10    1866    1869   -1875    1878      23
    1866    1905   -1878    1875      20    1866    1905    1878    1881      20
    1866    1905    1902    1896      21    1860    1857   -1851    1908      26
    1860    1857   -1851    1908      27    1860    1866    1869    1875      22
    1860    1866    1905    1878      24    1860    1866    1905    1902      24
    1860    1914    1908    1926      10    1857    1851   -1908    1914      10
    1857    1851    1908    1926       4    1857    1851   -1908    1926       5
    1857    1860    1866    1869      41    1857    1860   -1866    1869      42
    1857    1860   -1866    1869      43    1857    1860   -1866    1869      44
    1857    1860    1866    1905      14    1857    1860   -1914    1908      10
    1857    1860    1914    1920       4    1857    1860   -1914    1920       5
    1851    1857    1860    1866      32    1851    1857   -1860    1866      27
    1851    1857   -1860    1914      26    1851    1857   -1860    1914      27
    1851    1908   -1914    1860      33    1851    1908   -1914    1860      34
    1851    1908   -1914    1860      35    1851    1908    1914    1920      10
    1851    1908    1926    1929       9    1842    1851    1857    1860      26
    1842    1851   -1857    1860      27    1842    1851    1908    1914      33
    1842    1851   -1908    1914      34    1842    1851   -1908    1914      35
    1842    1851    1908    1926      10    1839    1842    1851    1857      10
    1839    1842    1851    1908      36    1839    1842   -1851    1908      37
    1839    1842   -1851    1908      38    1836    1830    1839    1842      12
    1833    1830    1839    1842      12    1830    1839    1842    1851       9
    2016    2019    2028    2031       1    2016    2019   -2028    2031       2
    2016    2019   -2028    2031       3    2010    2004    1998    2016       4
    2010    2004   -1998    2016       5    2004    1998    2016    2019       9
    1998    2016    2019    2022      12    1998    2016    2019    2025      12
    1998    2016    2019    2028      13    1998    2016   -2019    2028      12
    1992    1965    1959    2004      14    1983    1980    1986    1992      19
    1980    1986    1992    1995      19    1974    1968    1965    1992      46
    1974    1980   -1986    1992      19    1968    1965    1959    2004      14
    1968    1965    1992    1986      48    1968    1965    1992    1995      48
    1968    1974    1980    1983      45    1968    1974   -1980    1983      49
    1968    1974   -1980    1986      45    1965    1959    2004    1998      10
    1965    1959    2004    2010      10    1965    1968    1974    1980      47
    1965    1992   -1986    1980      19    1959    1956   -1950    1998      26
    1959    1956   -1950    1998      27    1959    1965    1968    1974      46
    1959    1965    1992    1986      48    1959    1965    1992    1995      48
    1959    2004    1998    2016      10    1956    1950   -1998    2004      10
    1956    1950    1998    2016       4    1956    1950   -1998    2016       5
    1956    1959    1965    1968      50    1956    1959   -1965    1968      51
    1956    1959   -1965    1968      52    1956    1959   -1965    1968      53
    1956    1959    1965    1992      14    1956    1959   -2004    1998      10
    1956    1959    2004    2010       4    1956    1959   -2004    2010       5
    1950    1956    1959    1965      32    1950    1956   -1959    1965      27
    1950    1956   -1959    2004      26    1950    1956   -1959    2004      27
    1950    1998   -2004    1959      33    1950    1998   -2004    1959      34
    1950    1998   -2004    1959      35    1950    1998    2004    2010      10
    1950    1998    2016    2019       9    1941    1950    1956    1959      26
    1941    1950   -1956    1959      27    1941    1950    1998    2004      33
    1941    1950   -1998    2004      34    1941    1950   -1998    2004      35
    1941    1950    1998    2016      10    1938    1941    1950    1956      10
    1938    1941    1950    1998      36    1938    1941   -1950    1998      37
    1938    1941   -1950    1998      38    1935    1929    1938    1941      12
    1932    1929    1938    1941      12    1929    1938    1941    1950       9
    2115    2118    2127    2130       1    2115    2118   -2127    2130       2
    2115    2118   -2127    2130       3    2109    2103    2097    2115       4
    2109    2103   -2097    2115       5    2103    2097    2115    2118       9
    2097    2115    2118    2121      12    2097    2115    2118    2124      12
    2097    2115    2118    2127      13    2097    2115   -2118    2127      12
    2094    2055    2049    2103      14    2082    2070    2067    2094      40
    2082    2085   -2091    2094      39    2073    2070    2067    2094      40
    2073    2070    2082    2085      16    2070    2067    2094    2091      20
    2070    2082   -2085    2091      39    2067    2070    2082    2085      16
    2067    2094   -2091    2085      21    2064    2058   -2055    2094      22
    2064    2067    2070    2073      40    2064    2067    2070    2082      40
    2064    2067    2094    2091      20    2058    2055    2049    2103      14
    2058    2055   -2094    2067      24    2058    2055    2094    2091      24
    2058    2064    2067    2070      25    2058    2064   -2067    2094      25
    2055    2049    2103    2097      10    2055    2049    2103    2109      10
    2055    2058   -2064    2067      23    2055    2094   -2067    2064      20
    2055    2094    2067    2070      20    2055    2094    2091    2085      21
    2049    2046   -2040    2097      26    2049    2046   -2040    2097      27
    2049    2055    2058    2064      22    2049    2055    2094    2067      24
    2049    2055    2094    2091      24    2049    2103    2097    2115      10
    2046    2040   -2097    2103      10    2046    2040    2097    2115       4
    2046    2040   -2097    2115       5    2046    2049    2055    2058      41
    2046    2049   -2055    2058      42    2046    2049   -2055    2058      43
    2046    2049   -2055    2058      44    2046    2049    2055    2094      14
    2046    2049   -2103    2097      10    2046    2049    2103    2109       4
    2046    2049   -2103    2109       5    2040    2046    2049    2055      32
    2040    2046   -2049    2055      27    2040    2046   -2049    2103      26
    2040    2046   -2049    2103      27    2040    2097   -2103    2049      33
    2040    2097   -2103    2049      34    2040    2097   -2103    2049      35
    2040    2097    2103    2109      10    2040    2097    2115    2118       9
    2031    2040    2046    2049      26    2031    2040   -2046    2049      27
    2031    2040    2097    2103      33    2031    2040   -2097    2103      34
    2031    2040   -2097    2103      35    2031    2040    2097    2115      10
    2028    2031    2040    2046      10    2028    2031    2040    2097      36
    2028    2031   -2040    2097      37    2028    2031   -2040    2097      38
    2025    2019    2028    2031      12    2022    2019    2028    2031      12
    2019    2028    2031    2040       9    2205    2208    2217    2220       1
    2205    2208   -2217    2220       2    2205    2208   -2217    2220       3
    2199    2193    2187    2205       4    2199    2193   -2187    2205       5
    2193    2187    2205    2208       9    2187    2205    2208    2211      12
    2187    2205    2208    2214      12    2187    2205    2208    2217      13
    2187    2205   -2208    2217      12    2181    2154    2148    2193      14
    2172    2169    2175    2181      19    2169    2175    2181    2184      19
    2163    2157    2154    2181      46    2163    2169   -2175    2181      19
    2157    2154    2148    2193      14    2157    2154    2181    2175      48
    2157    2154    2181    2184      48    2157    2163    2169    2172      45
    2157    2163   -2169    2172      49    2157    2163   -2169    2175      45
    2154    2148    2193    2187      10    2154    2148    2193    2199      10
    2154    2157    2163    2169      47    2154    2181   -2175    2169      19
    2148    2145   -2139    2187      26    2148    2145   -2139    2187      27
    2148    2154    2157    2163      46    2148    2154    2181    2175      48
    2148    2154    2181    2184      48    2148    2193    2187    2205      10
    2145    2139   -2187    2193      10    2145    2139    2187    2205       4
    2145    2139   -2187    2205       5    2145    2148    2154    2157      50
    2145    2148   -2154    2157      51    2145    2148   -2154    2157      52
    2145    2148   -2154    2157      53    2145    2148    2154    2181      14
    2145    2148   -2193    2187      10    2145    2148    2193    2199       4
    2145    2148   -2193    2199       5    2139    2145    2148    2154      32
    2139    2145   -2148    2154      27    2139    2145   -2148    2193      26
    2139    2145   -2148    2193      27    2139    2187   -2193    2148      33
    2139    2187   -2193    2148      34    2139    2187   -2193    2148      35
    2139    2187    2193    2199      10    2139    2187    2205    2208       9
    2130    2139    2145    2148      26    2130    2139   -2145    2148      27
    2130    2139    2187    2193      33    2130    2139   -2187    2193      34
    2130    2139   -2187    2193      35    2130    2139    2187    2205      10
    2127    2130    2139    2145      10    2127    2130    2139    2187      36
    2127    2130   -2139    2187      37    2127    2130   -2139    2187      38
    2124    2118    2127    2130      12    2121    2118    2127    2130      12
    2118    2127    2130    2139       9    2307    2310    2319    2322       1
    2307    2310   -2319    2322       2    2307    2310   -2319    2322       3
    2301    2295    2289    2307       4    2301    2295   -2289    2307       5
    2295    2289    2307    2310       9    2289    2307    2310    2313      12
    2289    2307    2310    2316      12    2289    2307    2310    2319      13
    2289    2307   -2310    2319      12    2286    2244    2238    2295      14
    2274    2271    2283    2286      16    2265    2259    2256    2286      18
    2265    2271   -2283    2286      16    2262    2259    2256    2286      18
    2262    2259    2265    2271      19    2259    2256    2286    2283      20
    2259    2265    2271    2274      17    2259    2265   -2271    2283      17
    2256    2259    2265    2271      19    2256    2286   -2283    2271      21
    2253    2247   -2244    2286      22    2253    2256    2259    2262      18
    2253    2256    2259    2265      18    2253    2256    2286    2283      20
    2247    2244    2238    2295      14    2247    2244   -2286    2256      24
    2247    2244    2286    2283      24    2247    2253    2256    2259      25
    2247    2253   -2256    2286      25    2244    2238    2295    2289      10
    2244    2238    2295    2301      10    2244    2247   -2253    2256      23
    2244    2286   -2256    2253      20    2244    2286    2256    2259      20
    2244    2286    2283    2271      21    2238    2235   -2229    2289      26
    2238    2235   -2229    2289      27    2238    2244    2247    2253      22
    2238    2244    2286    2256      24    2238    2244    2286    2283      24
    2238    2295    2289    2307      10    2235    2229   -2289    2295      10
    2235    2229    2289    2307       4    2235    2229   -2289    2307       5
    2235    2238    2244    2247      28    2235    2238   -2244    2247      29
    2235    2238   -2244    2247      30    2235    2238   -2244    2247      31
    2235    2238    2244    2286      14    2235    2238   -2295    2289      10
    2235    2238    2295    2301       4    2235    2238   -2295    2301       5
    2229    2235    2238    2244      32    2229    2235   -2238    2244      27
    2229    2235   -2238    2295      26    2229    2235   -2238    2295      27
    2229    2289   -2295    2238      33    2229    2289   -2295    2238      34
    2229    2289   -2295    2238      35    2229    2289    2295    2301      10
    2229    2289    2307    2310       9    2220    2229    2235    2238      26
    2220    2229   -2235    2238      27    2220    2229    2289    2295      33
    2220    2229   -2289    2295      34    2220    2229   -2289    2295      35
    2220    2229    2289    2307      10    2217    2220    2229    2235      10
    2217    2220    2229    2289      36    2217    2220   -2229    2289      37
    2217    2220   -2229    2289      38    2214    2208    2217    2220      12
    2211    2208    2217    2220      12    2208    2217    2220    2229       9
    2409    2412    2421    2424       1    2409    2412   -2421    2424       2
    2409    2412   -2421    2424       3    2403    2397    2391    2409       4
    2403    2397   -2391    2409       5    2397    2391    2409    2412       9
    2391    2409    2412    2415      12    2391    2409    2412    2418      12
    2391    2409    2412    2421      13    2391    2409   -2412    2421      12
    2388    2346    2340    2397      14    2376    2373    2385    2388      16
    2367    2361    2358    2388      18    2367    2373   -2385    2388      16
    2364    2361    2358    2388      18    2364    2361    2367    2373      19
    2361    2358    2388    2385      20    2361    2367    2373    2376      17
    2361    2367   -2373    2385      17    2358    2361    2367    2373      19
    2358    2388   -2385    2373      21    2355    2349   -2346    2388      22
    2355    2358    2361    2364      18    2355    2358    2361    2367      18
    2355    2358    2388    2385      20    2349    2346    2340    2397      14
    2349    2346   -2388    2358      24    2349    2346    2388    2385      24
    2349    2355    2358    2361      25    2349    2355   -2358    2388      25
    2346    2340    2397    2391      10    2346    2340    2397    2403      10
    2346    2349   -2355    2358      23    2346    2388   -2358    2355      20
    2346    2388    2358    2361      20    2346    2388    2385    2373      21
    2340    2337   -2331    2391      26    2340    2337   -2331    2391      27
    2340    2346    2349    2355      22    2340    2346    2388    2358      24
    2340    2346    2388    2385      24    2340    2397    2391    2409      10
    2337    2331   -2391    2397      10    2337    2331    2391    2409       4
    2337    2331   -2391    2409       5    2337    2340    2346    2349      28
    2337    2340   -2346    2349      29    2337    2340   -2346    2349      30
    2337    2340   -2346    2349      31    2337    2340    2346    2388      14
    2337    2340   -2397    2391      10    2337    2340    2397    2403       4
    2337    2340   -2397    2403       5    2331    2337    2340    2346      32
    2331    2337   -2340    2346      27    2331    2337   -2340    2397      26
    2331    2337   -2340    2397      27    2331    2391   -2397    2340      33
    2331    2391   -2397    2340      34    2331    2391   -2397    2340      35
    2331    2391    2397    2403      10    2331    2391    2409    2412       9
    2322    2331    2337    2340      26    2322    2331   -2337    2340      27
    2322    2331    2391    2397      33    2322    2331   -2391    2397      34
    2322    2331   -2391    2397      35    2322    2331    2391    2409      10
    2319    2322    2331    2337      10    2319    2322    2331    2391      36
    2319    2322   -2331    2391      37    2319    2322   -2331    2391      38
    2316    2310    2319    2322      12    2313    2310    2319    2322      12
    2310    2319    2322    2331       9    2502    2505    2514    2517       1
    2502    2505   -2514    2517       2    2502    2505   -2514    2517       3
    2496    2490    2484    2502       4    2496    2490   -2484    2502       5
    2490    2484    2502    2505       9    2484    2502    2505    2508      12
    2484    2502    2505    2511      12    2484    2502    2505    2514      13
    2484    2502   -2505    2514      12    2478    2448    2442    2490      14
    2466    2463    2475    2478      16    2463    2475    2478    2481      54
    2457    2451    2448    2478      46    2457    2463   -2475    2478      16
    2451    2448    2442    2490      14    2451    2448    2478    2475      48
    2451    2448    2478    2481      48    2451    2457    2463    2466      25
    2451    2457   -2463    2475      25    2448    2442    2490    2484      10
    2448    2442    2490    2496      10    2448    2451    2457    2463      47
    2448    2478   -2475    2463      54    2442    2439   -2433    2484      26
    2442    2439   -2433    2484      27    2442    2448    2451    2457      46
    2442    2448    2478    2475      48    2442    2448    2478    2481      48
    2442    2490    2484    2502      10    2439    2433   -2484    2490      10
    2439    2433    2484    2502       4    2439    2433   -2484    2502       5
    2439    2442    2448    2451      55    2439    2442   -2448    2451      56
    2439    2442   -2448    2451      57    2439    2442   -2448    2451      58
    2439    2442    2448    2478      14    2439    2442   -2490    2484      10
    2439    2442    2490    2496       4    2439    2442   -2490    2496       5
    2433    2439    2442    2448      32    2433    2439   -2442    2448      27
    2433    2439   -2442    2490      26    2433    2439   -2442    2490      27
    2433    2484   -2490    2442      33    2433    2484   -2490    2442      34
    2433    2484   -2490    2442      35    2433    2484    2490    2496      10
    2433    2484    2502    2505       9    2424    2433    2439    2442      26
    2424    2433   -2439    2442      27    2424    2433    2484    2490      33
    2424    2433   -2484    2490      34    2424    2433   -2484    2490      35
    2424    2433    2484    2502      10    2421    2424    2433    2439      10
    2421    2424    2433    2484      36    2421    2424   -2433    2484      37
    2421    2424   -2433    2484      38    2418    2412    2421    2424      12
    2415    2412    2421    2424      12    2412    2421    2424    2433       9
    2601    2604    2613    2616       1    2601    2604   -2613    2616       2
    2601    2604   -2613    2616       3    2595    2589    2583    2601       4
    2595    2589   -2583    2601       5    2589    2583    2601    2604       9
    2583    2601    2604    2607      12    2583    2601    2604    2610      12
    2583    2601    2604    2613      13    2583    2601   -2604    2613      12
    2580    2541    2535    2589      14    2568    2556    2553    2580      40
    2568    2571   -2577    2580      39    2559    2556    2553    2580      40
    2559    2556    2568    2571      16    2556    2553    2580    2577      20
    2556    2568   -2571    2577      39    2553    2556    2568    2571      16
    2553    2580   -2577    2571      21    2550    2544   -2541    2580      22
    2550    2553    2556    2559      40    2550    2553    2556    2568      40
    2550    2553    2580    2577      20    2544    2541    2535    2589      14
    2544    2541   -2580    2553      24    2544    2541    2580    2577      24
    2544    2550    2553    2556      25    2544    2550   -2553    2580      25
    2541    2535    2589    2583      10    2541    2535    2589    2595      10
    2541    2544   -2550    2553      23    2541    2580   -2553    2550      20
    2541    2580    2553    2556      20    2541    2580    2577    2571      21
    2535    2532   -2526    2583      26    2535    2532   -2526    2583      27
    2535    2541    2544    2550      22    2535    2541    2580    2553      24
    2535    2541    2580    2577      24    2535    2589    2583    2601      10
    2532    2526   -2583    2589      10    2532    2526    2583    2601       4
    2532    2526   -2583    2601       5    2532    2535    2541    2544      41
    2532    2535   -2541    2544      42    2532    2535   -2541    2544      43
    2532    2535   -2541    2544      44    2532    2535    2541    2580      14
    2532    2535   -2589    2583      10    2532    2535    2589    2595       4
    2532    2535   -2589    2595       5    2526    2532    2535    2541      32
    2526    2532   -2535    2541      27    2526    2532   -2535    2589      26
    2526    2532   -2535    2589      27    2526    2583   -2589    2535      33
    2526    2583   -2589    2535      34    2526    2583   -2589    2535      35
    2526    2583    2589    2595      10    2526    2583    2601    2604       9
    2517    2526    2532    2535      26    2517    2526   -2532    2535      27
    2517    2526    2583    2589      33    2517    2526   -2583    2589      34
    2517    2526   -2583    2589      35    2517    2526    2583    2601      10
    2514    2517    2526    2532      10    2514    2517    2526    2583      36
    2514    2517   -2526    2583      37    2514    2517   -2526    2583      38
    2511    2505    2514    2517      12    2508    2505    2514    2517      12
    2505    2514    2517    2526       9    2694    2697    2706    2709       1
    2694    2697   -2706    2709       2    2694    2697   -2706    2709       3
    2688    2682    2676    2694       4    2688    2682   -2676    2694       5
    2682    2676    2694    2697       9    2676    2694    2697    2700      12
    2676    2694    2697    2703      12    2676    2694    2697    2706      13
    2676    2694   -2697    2706      12    2670    2640    2634    2682      14
    2658    2655    2667    2670      16    2655    2667    2670    2673      54
    2649    2643    2640    2670      46    2649    2655   -2667    2670      16
    2643    2640    2634    2682      14    2643    2640    2670    2667      48
    2643    2640    2670    2673      48    2643    2649    2655    2658      25
    2643    2649   -2655    2667      25    2640    2634    2682    2676      10
    2640    2634    2682    2688      10    2640    2643    2649    2655      47
    2640    2670   -2667    2655      54    2634    2631   -2625    2676      26
    2634    2631   -2625    2676      27    2634    2640    2643    2649      46
    2634    2640    2670    2667      48    2634    2640    2670    2673      48
    2634    2682    2676    2694      10    2631    2625   -2676    2682      10
    2631    2625    2676    2694       4    2631    2625   -2676    2694       5
    2631    2634    2640    2643      55    2631    2634   -2640    2643      56
    2631    2634   -2640    2643      57    2631    2634   -2640    2643      58
    2631    2634    2640    2670      14    2631    2634   -2682    2676      10
    2631    2634    2682    2688       4    2631    2634   -2682    2688       5
    2625    2631    2634    2640      32    2625    2631   -2634    2640      27
    2625    2631   -2634    2682      26    2625    2631   -2634    2682      27
    2625    2676   -2682    2634      33    2625    2676   -2682    2634      34
    2625    2676   -2682    2634      35    2625    2676    2682    2688      10
    2625    2676    2694    2697       9    2616    2625    2631    2634      26
    2616    2625   -2631    2634      27    2616    2625    2676    2682      33
    2616    2625   -2676    2682      34    2616    2625   -2676    2682      35
    2616    2625    2676    2694      10    2613    2616    2625    2631      10
    2613    2616    2625    2676      36    2613    2616   -2625    2676      37
    2613    2616   -2625    2676      38    2610    2604    2613    2616      12
    2607    2604    2613    2616      12    2604    2613    2616    2625       9
    2796    2799    2808    2811       1    2796    2799   -2808    2811       2
    2796    2799   -2808    2811       3    2790    2784    2778    2796       4
    2790    2784   -2778    2796       5    2784    2778    2796    2799       9
    2778    2796    2799    2802      12    2778    2796    2799    2805      12
    2778    2796    2799    2808      13    2778    2796   -2799    2808      12
    2775    2733    2727    2784      14    2763    2760    2772    2775      16
    2754    2748    2745    2775      18    2754    2760   -2772    2775      16
    2751    2748    2745    2775      18    2751    2748    2754    2760      19
    2748    2745    2775    2772      20    2748    2754    2760    2763      17
    2748    2754   -2760    2772      17    2745    2748    2754    2760      19
    2745    2775   -2772    2760      21    2742    2736   -2733    2775      22
    2742    2745    2748    2751      18    2742    2745    2748    2754      18
    2742    2745    2775    2772      20    2736    2733    2727    2784      14
    2736    2733   -2775    2745      24    2736    2733    2775    2772      24
    2736    2742    2745    2748      25    2736    2742   -2745    2775      25
    2733    2727    2784    2778      10    2733    2727    2784    2790      10
    2733    2736   -2742    2745      23    2733    2775   -2745    2742      20
    2733    2775    2745    2748      20    2733    2775    2772    2760      21
    2727    2724   -2718    2778      26    2727    2724   -2718    2778      27
    2727    2733    2736    2742      22    2727    2733    2775    2745      24
    2727    2733    2775    2772      24    2727    2784    2778    2796      10
    2724    2718   -2778    2784      10    2724    2718    2778    2796       4
    2724    2718   -2778    2796       5    2724    2727    2733    2736      28
    2724    2727   -2733    2736      29    2724    2727   -2733    2736      30
    2724    2727   -2733    2736      31    2724    2727    2733    2775      14
    2724    2727   -2784    2778      10    2724    2727    2784    2790       4
    2724    2727   -2784    2790       5    2718    2724    2727    2733      32
    2718    2724   -2727    2733      27    2718    2724   -2727    2784      26
    2718    2724   -2727    2784      27    2718    2778   -2784    2727      33
    2718    2778   -2784    2727      34    2718    2778   -2784    2727      35
    2718    2778    2784    2790      10    2718    2778    2796    2799       9
    2709    2718    2724    2727      26    2709    2718   -2724    2727      27
    2709    2718    2778    2784      33    2709    2718   -2778    2784      34
    2709    2718   -2778    2784      35    2709    2718    2778    2796      10
    2706    2709    2718    2724      10    2706    2709    2718    2778      36
    2706    2709   -2718    2778      37    2706    2709   -2718    2778      38
    2703    2697    2706    2709      12    2700    2697    2706    2709      12
    2697    2706    2709    2718       9    2889    2892    2901    2904       1
    2889    2892   -2901    2904       2    2889    2892   -2901    2904       3
    2883    2877    2871    2889       4    2883    2877   -2871    2889       5
    2877    2871    2889    2892       9    2871    2889    2892    2895      12
    2871    2889    2892    2898      12    2871    2889    2892    2901      13
    2871    2889   -2892    2901      12    2865    2835    2829    2877      14
    2853    2850    2862    2865      16    2850    2862    2865    2868      54
    2844    2838    2835    2865      46    2844    2850   -2862    2865      16
    2838    2835    2829    2877      14    2838    2835    2865    2862      48
    2838    2835    2865    2868      48    2838    2844    2850    2853      25
    2838    2844   -2850    2862      25    2835    2829    2877    2871      10
    2835    2829    2877    2883      10    2835    2838    2844    2850      47
    2835    2865   -2862    2850      54    2829    2826   -2820    2871      26
    2829    2826   -2820    2871      27    2829    2835    2838    2844      46
    2829    2835    2865    2862      48    2829    2835    2865    2868      48
    2829    2877    2871    2889      10    2826    2820   -2871    2877      10
    2826    2820    2871    2889       4    2826    2820   -2871    2889       5
    2826    2829    2835    2838      55    2826    2829   -2835    2838      56
    2826    2829   -2835    2838      57    2826    2829   -2835    2838      58
    2826    2829    2835    2865      14    2826    2829   -2877    2871      10
    2826    2829    2877    2883       4    2826    2829   -2877    2883       5
    2820    2826    2829    2835      32    2820    2826   -2829    2835      27
    2820    2826   -2829    2877      26    2820    2826   -2829    2877      27
    2820    2871   -2877    2829      33    2820    2871   -2877    2829      34
    2820    2871   -2877    2829      35    2820    2871    2877    2883      10
    2820    2871    2889    2892       9    2811    2820    2826    2829      26
    2811    2820   -2826    2829      27    2811    2820    2871    2877      33
    2811    2820   -2871    2877      34    2811    2820   -2871    2877      35
    2811    2820    2871    2889      10    2808    2811    2820    2826      10
    2808    2811    2820    2871      36    2808    2811   -2820    2871      37
    2808    2811   -2820    2871      38    2805    2799    2808    2811      12
    2802    2799    2808    2811      12    2799    2808    2811    2820       9
    2988    2991    3000    3003       1    2988    2991   -3000    3003       2
    2988    2991   -3000    3003       3    2982    2976    2970    2988       4
    2982    2976   -2970    2988       5    2976    2970    2988    2991       9
    2970    2988    2991    2994      12    2970    2988    2991    2997      12
    2970    2988    2991    3000      13    2970    2988   -2991    3000      12
    2967    2928    2922    2976      14    2955    2943    2940    2967      40
    2955    2958   -2964    2967      39    2946    2943    2940    2967      40
    2946    2943    2955    2958      16    2943    2940    2967    2964      20
    2943    2955   -2958    2964      39    2940    2943    2955    2958      16
    2940    2967   -2964    2958      21    2937    2931   -2928    2967      22
    2937    2940    2943    2946      40    2937    2940    2943    2955      40
    2937    2940    2967    2964      20    2931    2928    2922    2976      14
    2931    2928   -2967    2940      24    2931    2928    2967    2964      24
    2931    2937    2940    2943      25    2931    2937   -2940    2967      25
    2928    2922    2976    2970      10    2928    2922    2976    2982      10
    2928    2931   -2937    2940      23    2928    2967   -2940    2937      20
    2928    2967    2940    2943      20    2928    2967    2964    2958      21
    2922    2919   -2913    2970      26    2922    2919   -2913    2970      27
    2922    2928    2931    2937      22    2922    2928    2967    2940      24
    2922    2928    2967    2964      24    2922    2976    2970    2988      10
    2919    2913   -2970    2976      10    2919    2913    2970    2988       4
    2919    2913   -2970    2988       5    2919    2922    2928    2931      41
    2919    2922   -2928    2931      42    2919    2922   -2928    2931      43
    2919    2922   -2928    2931      44    2919    2922    2928    2967      14
    2919    2922   -2976    2970      10    2919    2922    2976    2982       4
    2919    2922   -2976    2982       5    2913    2919    2922    2928      32
    2913    2919   -2922    2928      27    2913    2919   -2922    2976      26
    2913    2919   -2922    2976      27    2913    2970   -2976    2922      33
    2913    2970   -2976    2922      34    2913    2970   -2976    2922      35
    2913    2970    2976    2982      10    2913    2970    2988    2991       9
    2904    2913    2919    2922      26    2904    2913   -2919    2922      27
    2904    2913    2970    2976      33    2904    2913   -2970    2976      34
    2904    2913   -2970    2976      35    2904    2913    2970    2988      10
    2901    2904    2913    2919      10    2901    2904    2913    2970      36
    2901    2904   -2913    2970      37    2901    2904   -2913    2970      38
    2898    2892    2901    2904      12    2895    2892    2901    2904      12
    2892    2901    2904    2913       9    3087    3090    3099    3102       1
    3087    3090   -3099    3102       2    3087    3090   -3099    3102       3
    3081    3075    3069    3087       4    3081    3075   -3069    3087       5
    3075    3069    3087    3090       9    3069    3087    3090    3093      12
    3069    3087    3090    3096      12    3069    3087    3090    3099      13
    3069    3087   -3090    3099      12    3066    3027    3021    3075      14
    3054    3042    3039    3066      40    3054    3057   -3063    3066      39
    3045    3042    3039    3066      40    3045    3042    3054    3057      16
    3042    3039    3066    3063      20    3042    3054   -3057    3063      39
    3039    3042    3054    3057      16    3039    3066   -3063    3057      21
    3036    3030   -3027    3066      22    3036    3039    3042    3045      40
    3036    3039    3042    3054      40    3036    3039    3066    3063      20
    3030    3027    3021    3075      14    3030    3027   -3066    3039      24
    3030    3027    3066    3063      24    3030    3036    3039    3042      25
    3030    3036   -3039    3066      25    3027    3021    3075    3069      10
    3027    3021    3075    3081      10    3027    3030   -3036    3039      23
    3027    3066   -3039    3036      20    3027    3066    3039    3042      20
    3027    3066    3063    3057      21    3021    3018   -3012    3069      26
    3021    3018   -3012    3069      27    3021    3027    3030    3036      22
    3021    3027    3066    3039      24    3021    3027    3066    3063      24
    3021    3075    3069    3087      10    3018    3012   -3069    3075      10
    3018    3012    3069    3087       4    3018    3012   -3069    3087       5
    3018    3021    3027    3030      41    3018    3021   -3027    3030      42
    3018    3021   -3027    3030      43    3018    3021   -3027    3030      44
    3018    3021    3027    3066      14    3018    3021   -3075    3069      10
    3018    3021    3075    3081       4    3018    3021   -3075    3081       5
    3012    3018    3021    3027      32    3012    3018   -3021    3027      27
    3012    3018   -3021    3075      26    3012    3018   -3021    3075      27
    3012    3069   -3075    3021      33    3012    3069   -3075    3021      34
    3012    3069   -3075    3021      35    3012    3069    3075    3081      10
    3012    3069    3087    3090       9    3003    3012    3018    3021      26
    3003    3012   -3018    3021      27    3003    3012    3069    3075      33
    3003    3012   -3069    3075      34    3003    3012   -3069    3075      35
    3003    3012    3069    3087      10    3000    3003    3012    3018      10
    3000    3003    3012    3069      36    3000    3003   -3012    3069      37
    3000    3003   -3012    3069      38    2997    2991    3000    3003      12
    2994    2991    3000    3003      12    2991    3000    3003    3012       9
    3189    3192    3201    3204       1    3189    3192   -3201    3204       2
    3189    3192   -3201    3204       3    3183    3177    3171    3189       4
    3183    3177   -3171    3189       5    3177    3171    3189    3192       9
    3171    3189    3192    3195      12    3171    3189    3192    3198      12
    3171    3189    3192    3201      13    3171    3189   -3192    3201      12
    3168    3126    3120    3177      14    3156    3153    3165    3168      16
    3147    3141    3138    3168      18    3147    3153   -3165    3168      16
    3144    3141    3138    3168      18    3144    3141    3147    3153      19
    3141    3138    3168    3165      20    3141    3147    3153    3156      17
    3141    3147   -3153    3165      17    3138    3141    3147    3153      19
    3138    3168   -3165    3153      21    3135    3129   -3126    3168      22
    3135    3138    3141    3144      18    3135    3138    3141    3147      18
    3135    3138    3168    3165      20    3129    3126    3120    3177      14
    3129    3126   -3168    3138      24    3129    3126    3168    3165      24
    3129    3135    3138    3141      25    3129    3135   -3138    3168      25
    3126    3120    3177    3171      10    3126    3120    3177    3183      10
    3126    3129   -3135    3138      23    3126    3168   -3138    3135      20
    3126    3168    3138    3141      20    3126    3168    3165    3153      21
    3120    3117   -3111    3171      26    3120    3117   -3111    3171      27
    3120    3126    3129    3135      22    3120    3126    3168    3138      24
    3120    3126    3168    3165      24    3120    3177    3171    3189      10
    3117    3111   -3171    3177      10    3117    3111    3171    3189       4
    3117    3111   -3171    3189       5    3117    3120    3126    3129      28
    3117    3120   -3126    3129      29    3117    3120   -3126    3129      30
    3117    3120   -3126    3129      31    3117    3120    3126    3168      14
    3117    3120   -3177    3171      10    3117    3120    3177    3183       4
    3117    3120   -3177    3183       5    3111    3117    3120    3126      32
    3111    3117   -3120    3126      27    3111    3117   -3120    3177      26
    3111    3117   -3120    3177      27    3111    3171   -3177    3120      33
    3111    3171   -3177    3120      34    3111    3171   -3177    3120      35
    3111    3171    3177    3183      10    3111    3171    3189    3192       9
    3102    3111    3117    3120      26    3102    3111   -3117    3120      27
    3102    3111    3171    3177      33    3102    3111   -3171    3177      34
    3102    3111   -3171    3177      35    3102    3111    3171    3189      10
    3099    3102    3111    3117      10    3099    3102    3111    3171      36
    3099    3102   -3111    3171      37    3099    3102   -3111    3171      38
    3096    3090    3099    3102      12    3093    3090    3099    3102      12
    3090    3099    3102    3111       9    3279    3282    3291    3294       1
    3279    3282   -3291    3294       2    3279    3282   -3291    3294       3
    3273    3267    3261    3279       4    3273    3267   -3261    3279       5
    3267    3261    3279    3282       9    3261    3279    3282    3285      12
    3261    3279    3282    3288      12    3261    3279    3282    3291      13
    3261    3279   -3282    3291      12    3255    3228    3222    3267      14
    3246    3243    3249    3255      19    3243    3249    3255    3258      19
    3237    3231    3228    3255      46    3237    3243   -3249    3255      19
    3231    3228    3222    3267      14    3231    3228    3255    3249      48
    3231    3228    3255    3258      48    3231    3237    3243    3246      45
    3231    3237   -3243    3246      49    3231    3237   -3243    3249      45
    3228    3222    3267    3261      10    3228    3222    3267    3273      10
    3228    3231    3237    3243      47    3228    3255   -3249    3243      19
    3222    3219   -3213    3261      26    3222    3219   -3213    3261      27
    3222    3228    3231    3237      46    3222    3228    3255    3249      48
    3222    3228    3255    3258      48    3222    3267    3261    3279      10
    3219    3213   -3261    3267      10    3219    3213    3261    3279       4
    3219    3213   -3261    3279       5    3219    3222    3228    3231      50
    3219    3222   -3228    3231      51    3219    3222   -3228    3231      52
    3219    3222   -3228    3231      53    3219    3222    3228    3255      14
    3219    3222   -3267    3261      10    3219    3222    3267    3273       4
    3219    3222   -3267    3273       5    3213    3219    3222    3228      32
    3213    3219   -3222    3228      27    3213    3219   -3222    3267      26
    3213    3219   -3222    3267      27    3213    3261   -3267    3222      33
    3213    3261   -3267    3222      34    3213    3261   -3267    3222      35
    3213    3261    3267    3273      10    3213    3261    3279    3282       9
    3204    3213    3219    3222      26    3204    3213   -3219    3222      27
    3204    3213    3261    3267      33    3204    3213   -3261    3267      34
    3204    3213   -3261    3267      35    3204    3213    3261    3279      10
    3201    3204    3213    3219      10    3201    3204    3213    3261      36
    3201    3204   -3213    3261      37    3201    3204   -3213    3261      38
    3198    3192    3201    3204      12    3195    3192    3201    3204      12
    3192    3201    3204    3213       9    3369    3372    3381    3384       1
    3369    3372   -3381    3384       2    3369    3372   -3381    3384       3
    3363    3357    3351    3369       4    3363    3357   -3351    3369       5
    3357    3351    3369    3372       9    3351    3369    3372    3375      12
    3351    3369    3372    3378      12    3351    3369    3372    3381      13
    3351    3369   -3372    3381      12    3345    3318    3312    3357      14
    3336    3333    3339    3345      19    3333    3339    3345    3348      19
    3327    3321    3318    3345      46    3327    3333   -3339    3345      19
    3321    3318    3312    3357      14    3321    3318    3345    3339      48
    3321    3318    3345    3348      48    3321    3327    3333    3336      45
    3321    3327   -3333    3336      49    3321    3327   -3333    3339      45
    3318    3312    3357    3351      10    3318    3312    3357    3363      10
    3318    3321    3327    3333      47    3318    3345   -3339    3333      19
    3312    3309   -3303    3351      26    3312    3309   -3303    3351      27
    3312    3318    3321    3327      46    3312    3318    3345    3339      48
    3312    3318    3345    3348      48    3312    3357    3351    3369      10
    3309    3303   -3351    3357      10    3309    3303    3351    3369       4
    3309    3303   -3351    3369       5    3309    3312    3318    3321      50
    3309    3312   -3318    3321      51    3309    3312   -3318    3321      52
    3309    3312   -3318    3321      53    3309    3312    3318    3345      14
    3309    3312   -3357    3351      10    3309    3312    3357    3363       4
    3309    3312   -3357    3363       5    3303    3309    3312    3318      32
    3303    3309   -3312    3318      27    3303    3309   -3312    3357      26
    3303    3309   -3312    3357      27    3303    3351   -3357    3312      33
    3303    3351   -3357    3312      34    3303    3351   -3357    3312      35
    3303    3351    3357    3363      10    3303    3351    3369    3372       9
    3294    3303    3309    3312      26    3294    3303   -3309    3312      27
    3294    3303    3351    3357      33    3294    3303   -3351    3357      34
    3294    3303   -3351    3357      35    3294    3303    3351    3369      10
    3291    3294    3303    3309      10    3291    3294    3303    3351      36
    3291    3294   -3303    3351      37    3291    3294   -3303    3351      38
    3288    3282    3291    3294      12    3285    3282    3291    3294      12
    3282    3291    3294    3303       9    3459    3462    3471    3474       1
    3459    3462   -3471    3474       2    3459    3462   -3471    3474       3
    3453    3447    3441    3459       4    3453    3447   -3441    3459       5
    3447    3441    3459    3462       9    3441    3459    3462    3465      12
    3441    3459    3462    3468      12    3441    3459    3462    3471      13
    3441    3459   -3462    3471      12    3435    3408    3402    3447      14
    3426    3423    3429    3435      19    3423    3429    3435    3438      19
    3417    3411    3408    3435      46    3417    3423   -3429    3435      19
    3411    3408    3402    3447      14    3411    3408    3435    3429      48
    3411    3408    3435    3438      48    3411    3417    3423    3426      45
    3411    3417   -3423    3426      49    3411    3417   -3423    3429      45
    3408    3402    3447    3441      10    3408    3402    3447    3453      10
    3408    3411    3417    3423      47    3408    3435   -3429    3423      19
    3402    3399   -3393    3441      26    3402    3399   -3393    3441      27
    3402    3408    3411    3417      46    3402    3408    3435    3429      48
    3402    3408    3435    3438      48    3402    3447    3441    3459      10
    3399    3393   -3441    3447      10    3399    3393    3441    3459       4
    3399    3393   -3441    3459       5    3399    3402    3408    3411      50
    3399    3402   -3408    3411      51    3399    3402   -3408    3411      52
    3399    3402   -3408    3411      53    3399    3402    3408    3435      14
    3399    3402   -3447    3441      10    3399    3402    3447    3453       4
    3399    3402   -3447    3453       5    3393    3399    3402    3408      32
    3393    3399   -3402    3408      27    3393    3399   -3402    3447      26
    3393    3399   -3402    3447      27    3393    3441   -3447    3402      33
    3393    3441   -3447    3402      34    3393    3441   -3447    3402      35
    3393    3441    3447    3453      10    3393    3441    3459    3462       9
    3384    3393    3399    3402      26    3384    3393   -3399    3402      27
    3384    3393    3441    3447      33    3384    3393   -3441    3447      34
    3384    3393   -3441    3447      35    3384    3393    3441    3459      10
    3381    3384    3393    3399      10    3381    3384    3393    3441      36
    3381    3384   -3393    3441      37    3381    3384   -3393    3441      38
    3378    3372    3381    3384      12    3375    3372    3381    3384      12
    3372    3381    3384    3393       9    3552    3555    3564    3567       1
    3552    3555   -3564    3567       2    3552    3555   -3564    3567       3
    3546    3540    3534    3552       4    3546    3540   -3534    3552       5
    3540    3534    3552    3555       9    3534    3552    3555    3558      12
    3534    3552    3555    3561      12    3534    3552    3555    3564      13
    3534    3552   -3555    3564      12    3528    3498    3492    3540      14
    3516    3513    3525    3528      16    3513    3525    3528    3531      54
    3507    3501    3498    3528      46    3507    3513   -3525    3528      16
    3501    3498    3492    3540      14    3501    3498    3528    3525      48
    3501    3498    3528    3531      48    3501    3507    3513    3516      25
    3501    3507   -3513    3525      25    3498    3492    3540    3534      10
    3498    3492    3540    3546      10    3498    3501    3507    3513      47
    3498    3528   -3525    3513      54    3492    3489   -3483    3534      26
    3492    3489   -3483    3534      27    3492    3498    3501    3507      46
    3492    3498    3528    3525      48    3492    3498    3528    3531      48
    3492    3540    3534    3552      10    3489    3483   -3534    3540      10
    3489    3483    3534    3552       4    3489    3483   -3534    3552       5
    3489    3492    3498    3501      55    3489    3492   -3498    3501      56
    3489    3492   -3498    3501      57    3489    3492   -3498    3501      58
    3489    3492    3498    3528      14    3489    3492   -3540    3534      10
    3489    3492    3540    3546       4    3489    3492   -3540    3546       5
    3483    3489    3492    3498      32    3483    3489   -3492    3498      27
    3483    3489   -3492    3540      26    3483    3489   -3492    3540      27
    3483    3534   -3540    3492      33    3483    3534   -3540    3492      34
    3483    3534   -3540    3492      35    3483    3534    3540    3546      10
    3483    3534    3552    3555       9    3474    3483    3489    3492      26
    3474    3483   -3489    3492      27    3474    3483    3534    3540      33
    3474    3483   -3534    3540      34    3474    3483   -3534    3540      35
    3474    3483    3534    3552      10    3471    3474    3483    3489      10
    3471    3474    3483    3534      36    3471    3474   -3483    3534      37
    3471    3474   -3483    3534      38    3468    3462    3471    3474      12
    3465    3462    3471    3474      12    3462    3471    3474    3483       9
    3642    3645    3654    3657       1    3642    3645   -3654    3657       2
    3642    3645   -3654    3657       3    3636    3630    3624    3642       4
    3636    3630   -3624    3642       5    3630    3624    3642    3645       9
    3624    3642    3645    3648      12    3624    3642    3645    3651      12
    3624    3642    3645    3654      13    3624    3642   -3645    3654      12
    3618    3591    3585    3630      14    3609    3606    3612    3618      19
    3606    3612    3618    3621      19    3600    3594    3591    3618      46
    3600    3606   -3612    3618      19    3594    3591    3585    3630      14
    3594    3591    3618    3612      48    3594    3591    3618    3621      48
    3594    3600    3606    3609      45    3594    3600   -3606    3609      49
    3594    3600   -3606    3612      45    3591    3585    3630    3624      10
    3591    3585    3630    3636      10    3591    3594    3600    3606      47
    3591    3618   -3612    3606      19    3585    3582   -3576    3624      26
    3585    3582   -3576    3624      27    3585    3591    3594    3600      46
    3585    3591    3618    3612      48    3585    3591    3618    3621      48
    3585    3630    3624    3642      10    3582    3576   -3624    3630      10
    3582    3576    3624    3642       4    3582    3576   -3624    3642       5
    3582    3585    3591    3594      50    3582    3585   -3591    3594      51
    3582    3585   -3591    3594      52    3582    3585   -3591    3594      53
    3582    3585    3591    3618      14    3582    3585   -3630    3624      10
    3582    3585    3630    3636       4    3582    3585   -3630    3636       5
    3576    3582    3585    3591      32    3576    3582   -3585    3591      27
    3576    3582   -3585    3630      26    3576    3582   -3585    3630      27
    3576    3624   -3630    3585      33    3576    3624   -3630    3585      34
    3576    3624   -3630    3585      35    3576    3624    3630    3636      10
    3576    3624    3642    3645       9    3567    3576    3582    3585      26
    3567    3576   -3582    3585      27    3567    3576    3624    3630      33
    3567    3576   -3624    3630      34    3567    3576   -3624    3630      35
    3567    3576    3624    3642      10    3564    3567    3576    3582      10
    3564    3567    3576    3624      36    3564    3567   -3576    3624      37
    3564    3567   -3576    3624      38    3561    3555    3564    3567      12
    3558    3555    3564    3567      12    3555    3564    3567    3576       9
    3741    3744    3753    3756       1    3741    3744   -3753    3756       2
    3741    3744   -3753    3756       3    3735    3729    3723    3741       4
    3735    3729   -3723    3741       5    3729    3723    3741    3744       9
    3723    3741    3744    3747      12    3723    3741    3744    3750      12
    3723    3741    3744    3753      13    3723    3741   -3744    3753      12
    3720    3681    3675    3729      14    3708    3696    3693    3720      40
    3708    3711   -3717    3720      39    3699    3696    3693    3720      40
    3699    3696    3708    3711      16    3696    3693    3720    3717      20
    3696    3708   -3711    3717      39    3693    3696    3708    3711      16
    3693    3720   -3717    3711      21    3690    3684   -3681    3720      22
    3690    3693    3696    3699      40    3690    3693    3696    3708      40
    3690    3693    3720    3717      20    3684    3681    3675    3729      14
    3684    3681   -3720    3693      24    3684    3681    3720    3717      24
    3684    3690    3693    3696      25    3684    3690   -3693    3720      25
    3681    3675    3729    3723      10    3681    3675    3729    3735      10
    3681    3684   -3690    3693      23    3681    3720   -3693    3690      20
    3681    3720    3693    3696      20    3681    3720    3717    3711      21
    3675    3672   -3666    3723      26    3675    3672   -3666    3723      27
    3675    3681    3684    3690      22    3675    3681    3720    3693      24
    3675    3681    3720    3717      24    3675    3729    3723    3741      10
    3672    3666   -3723    3729      10    3672    3666    3723    3741       4
    3672    3666   -3723    3741       5    3672    3675    3681    3684      41
    3672    3675   -3681    3684      42    3672    3675   -3681    3684      43
    3672    3675   -3681    3684      44    3672    3675    3681    3720      14
    3672    3675   -3729    3723      10    3672    3675    3729    3735       4
    3672    3675   -3729    3735       5    3666    3672    3675    3681      32
    3666    3672   -3675    3681      27    3666    3672   -3675    3729      26
    3666    3672   -3675    3729      27    3666    3723   -3729    3675      33
    3666    3723   -3729    3675      34    3666    3723   -3729    3675      35
    3666    3723    3729    3735      10    3666    3723    3741    3744       9
    3657    3666    3672    3675      26    3657    3666   -3672    3675      27
    3657    3666    3723    3729      33    3657    3666   -3723    3729      34
    3657    3666   -3723    3729      35    3657    3666    3723    3741      10
    3654    3657    3666    3672      10    3654    3657    3666    3723      36
    3654    3657   -3666    3723      37    3654    3657   -3666    3723      38
    3651    3645    3654    3657      12    3648    3645    3654    3657      12
    3645    3654    3657    3666       9    3834    3837    3846    3849       1
    3834    3837   -3846    3849       2    3834    3837   -3846    3849       3
    3828    3822    3816    3834       4    3828    3822   -3816    3834       5
    3822    3816    3834    3837       9    3816    3834    3837    3840      12
    3816    3834    3837    3843      12    3816    3834    3837    3846      13
    3816    3834   -3837    3846      12    3810    3780    3774    3822      14
    3798    3795    3807    3810      16    3795    3807    3810    3813      54
    3789    3783    3780    3810      46    3789    3795   -3807    3810      16
    3783    3780    3774    3822      14    3783    3780    3810    3807      48
    3783    3780    3810    3813      48    3783    3789    3795    3798      25
    3783    3789   -3795    3807      25    3780    3774    3822    3816      10
    3780    3774    3822    3828      10    3780    3783    3789    3795      47
    3780    3810   -3807    3795      54    3774    3771   -3765    3816      26
    3774    3771   -3765    3816      27    3774    3780    3783    3789      46
    3774    3780    3810    3807      48    3774    3780    3810    3813      48
    3774    3822    3816    3834      10    3771    3765   -3816    3822      10
    3771    3765    3816    3834       4    3771    3765   -3816    3834       5
    3771    3774    3780    3783      55    3771    3774   -3780    3783      56
    3771    3774   -3780    3783      57    3771    3774   -3780    3783      58
    3771    3774    3780    3810      14    3771    3774   -3822    3816      10
    3771    3774    3822    3828       4    3771    3774   -3822    3828       5
    3765    3771    3774    3780      32    3765    3771   -3774    3780      27
    3765    3771   -3774    3822      26    3765    3771   -3774    3822      27
    3765    3816   -3822    3774      33    3765    3816   -3822    3774      34
    3765    3816   -3822    3774      35    3765    3816    3822    3828      10
    3765    3816    3834    3837       9    3756    3765    3771    3774      26
    3756    3765   -3771    3774      27    3756    3765    3816    3822      33
    3756    3765   -3816    3822      34    3756    3765   -3816    3822      35
    3756    3765    3816    3834      10    3753    3756    3765    3771      10
    3753    3756    3765    3816      36    3753    3756   -3765    3816      37
    3753    3756   -3765    3816      38    3750    3744    3753    3756      12
    3747    3744    3753    3756      12    3744    3753    3756    3765       9
    3927    3930    3939    3942       1    3927    3930   -3939    3942       2
    3927    3930   -3939    3942       3    3921    3915    3909    3927       4
    3921    3915   -3909    3927       5    3915    3909    3927    3930       9
    3909    3927    3930    3933      12    3909    3927    3930    3936      12
    3909    3927    3930    3939      13    3909    3927   -3930    3939      12
    3903    3873    3867    3915      14    3891    3888    3900    3903      16
    3888    3900    3903    3906      54    3882    3876    3873    3903      46
    3882    3888   -3900    3903      16    3876    3873    3867    3915      14
    3876    3873    3903    3900      48    3876    3873    3903    3906      48
    3876    3882    3888    3891      25    3876    3882   -3888    3900      25
    3873    3867    3915    3909      10    3873    3867    3915    3921      10
    3873    3876    3882    3888      47    3873    3903   -3900    3888      54
    3867    3864   -3858    3909      26    3867    3864   -3858    3909      27
    3867    3873    3876    3882      46    3867    3873    3903    3900      48
    3867    3873    3903    3906      48    3867    3915    3909    3927      10
    3864    3858   -3909    3915      10    3864    3858    3909    3927       4
    3864    3858   -3909    3927       5    3864    3867    3873    3876      55
    3864    3867   -3873    3876      56    3864    3867   -3873    3876      57
    3864    3867   -3873    3876      58    3864    3867    3873    3903      14
    3864    3867   -3915    3909      10    3864    3867    3915    3921       4
    3864    3867   -3915    3921       5    3858    3864    3867    3873      32
    3858    3864   -3867    3873      27    3858    3864   -3867    3915      26
    3858    3864   -3867    3915      27    3858    3909   -3915    3867      33
    3858    3909   -3915    3867      34    3858    3909   -3915    3867      35
    3858    3909    3915    3921      10    3858    3909    3927    3930       9
    3849    3858    3864    3867      26    3849    3858   -3864    3867      27
    3849    3858    3909    3915      33    3849    3858   -3909    3915      34
    3849    3858   -3909    3915      35    3849    3858    3909    3927      10
    3846    3849    3858    3864      10    3846    3849    3858    3909      36
    3846    3849   -3858    3909      37    3846    3849   -3858    3909      38
    3843    3837    3846    3849      12    3840    3837    3846    3849      12
    3837    3846    3849    3858       9    4029    4032    4041    4044       1
    4029    4032   -4041    4044       2    4029    4032   -4041    4044       3
    4023    4017    4011    4029       4    4023    4017   -4011    4029       5
    4017    4011    4029    4032       9    4011    4029    4032    4035      12
    4011    4029    4032    4038      12    4011    4029    4032    4041      13
    4011    4029   -4032    4041      12    4008    3966    3960    4017      14
    3996    3993    4005    4008      16    3987    3981    3978    4008      18
    3987    3993   -4005    4008      16    3984    3981    3978    4008      18
    3984    3981    3987    3993      19    3981    3978    4008    4005      20
    3981    3987    3993    3996      17    3981    3987   -3993    4005      17
    3978    3981    3987    3993      19    3978    4008   -4005    3993      21
    3975    3969   -3966    4008      22    3975    3978    3981    3984      18
    3975    3978    3981    3987      18    3975    3978    4008    4005      20
    3969    3966    3960    4017      14    3969    3966   -4008    3978      24
    3969    3966    4008    4005      24    3969    3975    3978    3981      25
    3969    3975   -3978    4008      25    3966    3960    4017    4011      10
    3966    3960    4017    4023      10    3966    3969   -3975    3978      23
    3966    4008   -3978    3975      20    3966    4008    3978    3981      20
    3966    4008    4005    3993      21    3960    3957   -3951    4011      26
    3960    3957   -3951    4011      27    3960    3966    3969    3975      22
    3960    3966    4008    3978      24    3960    3966    4008    4005      24
    3960    4017    4011    4029      10    3957    3951   -4011    4017      10
    3957    3951    4011    4029       4    3957    3951   -4011    4029       5
    3957    3960    3966    3969      28    3957    3960   -3966    3969      29
    3957    3960   -3966    3969      30    3957    3960   -3966    3969      31
    3957    3960    3966    4008      14    3957    3960   -4017    4011      10
    3957    3960    4017    4023       4    3957    3960   -4017    4023       5
    3951    3957    3960    3966      32    3951    3957   -3960    3966      27
    3951    3957   -3960    4017      26    3951    3957   -3960    4017      27
    3951    4011   -4017    3960      33    3951    4011   -4017    3960      34
    3951    4011   -4017    3960      35    3951    4011    4017    4023      10
    3951    4011    4029    4032       9    3942    3951    3957    3960      26
    3942    3951   -3957    3960      27    3942    3951    4011    4017      33
    3942    3951   -4011    4017      34    3942    3951   -4011    4017      35
    3942    3951    4011    4029      10    3939    3942    3951    3957      10
    3939    3942    3951    4011      36    3939    3942   -3951    4011      37
    3939    3942   -3951    4011      38    3936    3930    3939    3942      12
    3933    3930    3939    3942      12    3930    3939    3942    3951       9
    4131    4134    4143    4146       1    4131    4134   -4143    4146       2
    4131    4134   -4143    4146       3    4125    4119    4113    4131       4
    4125    4119   -4113    4131       5    4119    4113    4131    4134       9
    4113    4131    4134    4137      12    4113    4131    4134    4140      12
    4113    4131    4134    4143      13    4113    4131   -4134    4143      12
    4110    4068    4062    4119      14    4098    4095    4107    4110      16
    4089    4083    4080    4110      18    4089    4095   -4107    4110      16
    4086    4083    4080    4110      18    4086    4083    4089    4095      19
    4083    4080    4110    4107      20    4083    4089    4095    4098      17
    4083    4089   -4095    4107      17    4080    4083    4089    4095      19
    4080    4110   -4107    4095      21    4077    4071   -4068    4110      22
    4077    4080    4083    4086      18    4077    4080    4083    4089      18
    4077    4080    4110    4107      20    4071    4068    4062    4119      14
    4071    4068   -4110    4080      24    4071    4068    4110    4107      24
    4071    4077    4080    4083      25    4071    4077   -4080    4110      25
    4068    4062    4119    4113      10    4068    4062    4119    4125      10
    4068    4071   -4077    4080      23    4068    4110   -4080    4077      20
    4068    4110    4080    4083      20    4068    4110    4107    4095      21
    4062    4059   -4053    4113      26    4062    4059   -4053    4113      27
    4062    4068    4071    4077      22    4062    4068    4110    4080      24
    4062    4068    4110    4107      24    4062    4119    4113    4131      10
    4059    4053   -4113    4119      10    4059    4053    4113    4131       4
    4059    4053   -4113    4131       5    4059    4062    4068    4071      28
    4059    4062   -4068    4071      29    4059    4062   -4068    4071      30
    4059    4062   -4068    4071      31    4059    4062    4068    4110      14
    4059    4062   -4119    4113      10    4059    4062    4119    4125       4
    4059    4062   -4119    4125       5    4053    4059    4062    4068      32
    4053    4059   -4062    4068      27    4053    4059   -4062    4119      26
    4053    4059   -4062    4119      27    4053    4113   -4119    4062      33
    4053    4113   -4119    4062      34    4053    4113   -4119    4062      35
    4053    4113    4119    4125      10    4053    4113    4131    4134       9
    4044    4053    4059    4062      26    4044    4053   -4059    4062      27
    4044    4053    4113    4119      33    4044    4053   -4113    4119      34
    4044    4053   -4113    4119      35    4044    4053    4113    4131      10
    4041    4044    4053    4059      10    4041    4044    4053    4113      36
    4041    4044   -4053    4113      37    4041    4044   -4053    4113      38
    4038    4032    4041    4044      12    4035    4032    4041    4044      12
    4032    4041    4044    4053       9    4233    4236    4245    4248       1
    4233    4236   -4245    4248       2    4233    4236   -4245    4248       3
    4227    4221    4215    4233       4    4227    4221   -4215    4233       5
    4221    4215    4233    4236       9    4215    4233    4236    4239      12
    4215    4233    4236    4242      12    4215    4233    4236    4245      13
    4215    4233   -4236    4245      12    4212    4170    4164    4221      14
    4200    4197    4209    4212      16    4191    4185    4182    4212      18
    4191    4197   -4209    4212      16    4188    4185    4182    4212      18
    4188    4185    4191    4197      19    4185    4182    4212    4209      20
    4185    4191    4197    4200      17    4185    4191   -4197    4209      17
    4182    4185    4191    4197      19    4182    4212   -4209    4197      21
    4179    4173   -4170    4212      22    4179    4182    4185    4188      18
    4179    4182    4185    4191      18    4179    4182    4212    4209      20
    4173    4170    4164    4221      14    4173    4170   -4212    4182      24
    4173    4170    4212    4209      24    4173    4179    4182    4185      25
    4173    4179   -4182    4212      25    4170    4164    4221    4215      10
    4170    4164    4221    4227      10    4170    4173   -4179    4182      23
    4170    4212   -4182    4179      20    4170    4212    4182    4185      20
    4170    4212    4209    4197      21    4164    4161   -4155    4215      26
    4164    4161   -4155    4215      27    4164    4170    4173    4179      22
    4164    4170    4212    4182      24    4164    4170    4212    4209      24
    4164    4221    4215    4233      10    4161    4155   -4215    4221      10
    4161    4155    4215    4233       4    4161    4155   -4215    4233       5
    4161    4164    4170    4173      28    4161    4164   -4170    4173      29
    4161    4164   -4170    4173      30    4161    4164   -4170    4173      31
    4161    4164    4170    4212      14    4161    4164   -4221    4215      10
    4161    4164    4221    4227       4    4161    4164   -4221    4227       5
    4155    4161    4164    4170      32    4155    4161   -4164    4170      27
    4155    4161   -4164    4221      26    4155    4161   -4164    4221      27
    4155    4215   -4221    4164      33    4155    4215   -4221    4164      34
    4155    4215   -4221    4164      35    4155    4215    4221    4227      10
    4155    4215    4233    4236       9    4146    4155    4161    4164      26
    4146    4155   -4161    4164      27    4146    4155    4215    4221      33
    4146    4155   -4215    4221      34    4146    4155   -4215    4221      35
    4146    4155    4215    4233      10    4143    4146    4155    4161      10
    4143    4146    4155    4215      36    4143    4146   -4155    4215      37
    4143    4146   -4155    4215      38    4140    4134    4143    4146      12
    4137    4134    4143    4146      12    4134    4143    4146    4155       9
    4326    4329    4338    4341       1    4326    4329   -4338    4341       2
    4326    4329   -4338    4341       3    4320    4314    4308    4326       4
    4320    4314   -4308    4326       5    4314    4308    4326    4329       9
    4308    4326    4329    4332      12    4308    4326    4329    4335      12
    4308    4326    4329    4338      13    4308    4326   -4329    4338      12
    4302    4272    4266    4314      14    4290    4287    4299    4302      16
    4287    4299    4302    4305      54    4281    4275    4272    4302      46
    4281    4287   -4299    4302      16    4275    4272    4266    4314      14
    4275    4272    4302    4299      48    4275    4272    4302    4305      48
    4275    4281    4287    4290      25    4275    4281   -4287    4299      25
    4272    4266    4314    4308      10    4272    4266    4314    4320      10
    4272    4275    4281    4287      47    4272    4302   -4299    4287      54
    4266    4263   -4257    4308      26    4266    4263   -4257    4308      27
    4266    4272    4275    4281      46    4266    4272    4302    4299      48
    4266    4272    4302    4305      48    4266    4314    4308    4326      10
    4263    4257   -4308    4314      10    4263    4257    4308    4326       4
    4263    4257   -4308    4326       5    4263    4266    4272    4275      55
    4263    4266   -4272    4275      56    4263    4266   -4272    4275      57
    4263    4266   -4272    4275      58    4263    4266    4272    4302      14
    4263    4266   -4314    4308      10    4263    4266    4314    4320       4
    4263    4266   -4314    4320       5    4257    4263    4266    4272      32
    4257    4263   -4266    4272      27    4257    4263   -4266    4314      26
    4257    4263   -4266    4314      27    4257    4308   -4314    4266      33
    4257    4308   -4314    4266      34    4257    4308   -4314    4266      35
    4257    4308    4314    4320      10    4257    4308    4326    4329       9
    4248    4257    4263    4266      26    4248    4257   -4263    4266      27
    4248    4257    4308    4314      33    4248    4257   -4308    4314      34
    4248    4257   -4308    4314      35    4248    4257    4308    4326      10
    4245    4248    4257    4263      10    4245    4248    4257    4308      36
    4245    4248   -4257    4308      37    4245    4248   -4257    4308      38
    4242    4236    4245    4248      12    4239    4236    4245    4248      12
    4236    4245    4248    4257       9    4425    4428    4437    4440       1
    4425    4428   -4437    4440       2    4425    4428   -4437    4440       3
    4419    4413    4407    4425       4    4419    4413   -4407    4425       5
    4413    4407    4425    4428       9    4407    4425    4428    4431      12
    4407    4425    4428    4434      12    4407    4425    4428    4437      13
    4407    4425   -4428    4437      12    4404    4365    4359    4413      14
    4392    4380    4377    4404      40    4392    4395   -4401    4404      39
    4383    4380    4377    4404      40    4383    4380    4392    4395      16
    4380    4377    4404    4401      20    4380    4392   -4395    4401      39
    4377    4380    4392    4395      16    4377    4404   -4401    4395      21
    4374    4368   -4365    4404      22    4374    4377    4380    4383      40
    4374    4377    4380    4392      40    4374    4377    4404    4401      20
    4368    4365    4359    4413      14    4368    4365   -4404    4377      24
    4368    4365    4404    4401      24    4368    4374    4377    4380      25
    4368    4374   -4377    4404      25    4365    4359    4413    4407      10
    4365    4359    4413    4419      10    4365    4368   -4374    4377      23
    4365    4404   -4377    4374      20    4365    4404    4377    4380      20
    4365    4404    4401    4395      21    4359    4356   -4350    4407      26
    4359    4356   -4350    4407      27    4359    4365    4368    4374      22
    4359    4365    4404    4377      24    4359    4365    4404    4401      24
    4359    4413    4407    4425      10    4356    4350   -4407    4413      10
    4356    4350    4407    4425       4    4356    4350   -4407    4425       5
    4356    4359    4365    4368      41    4356    4359   -4365    4368      42
    4356    4359   -4365    4368      43    4356    4359   -4365    4368      44
    4356    4359    4365    4404      14    4356    4359   -4413    4407      10
    4356    4359    4413    4419       4    4356    4359   -4413    4419       5
    4350    4356    4359    4365      32    4350    4356   -4359    4365      27
    4350    4356   -4359    4413      26    4350    4356   -4359    4413      27
    4350    4407   -4413    4359      33    4350    4407   -4413    4359      34
    4350    4407   -4413    4359      35    4350    4407    4413    4419      10
    4350    4407    4425    4428       9    4341    4350    4356    4359      26
    4341    4350   -4356    4359      27    4341    4350    4407    4413      33
    4341    4350   -4407    4413      34    4341    4350   -4407    4413      35
    4341    4350    4407    4425      10    4338    4341    4350    4356      10
    4338    4341    4350    4407      36    4338    4341   -4350    4407      37
    4338    4341   -4350    4407      38    4335    4329    4338    4341      12
    4332    4329    4338    4341      12    4329    4338    4341    4350       9
    4518    4521    4530    4533       1    4518    4521   -4530    4533       2
    4518    4521   -4530    4533       3    4512    4506    4500    4518       4
    4512    4506   -4500    4518       5    4506    4500    4518    4521       9
    4500    4518    4521    4524      12    4500    4518    4521    4527      12
    4500    4518    4521    4530      13    4500    4518   -4521    4530      12
    4494    4464    4458    4506      14    4482    4479    4491    4494      16
    4479    4491    4494    4497      54    4473    4467    4464    4494      46
    4473    4479   -4491    4494      16    4467    4464    4458    4506      14
    4467    4464    4494    4491      48    4467    4464    4494    4497      48
    4467    4473    4479    4482      25    4467    4473   -4479    4491      25
    4464    4458    4506    4500      10    4464    4458    4506    4512      10
    4464    4467    4473    4479      47    4464    4494   -4491    4479      54
    4458    4455   -4449    4500      26    4458    4455   -4449    4500      27
    4458    4464    4467    4473      46    4458    4464    4494    4491      48
    4458    4464    4494    4497      48    4458    4506    4500    4518      10
    4455    4449   -4500    4506      10    4455    4449    4500    4518       4
    4455    4449   -4500    4518       5    4455    4458    4464    4467      55
    4455    4458   -4464    4467      56    4455    4458   -4464    4467      57
    4455    4458   -4464    4467      58    4455    4458    4464    4494      14
    4455    4458   -4506    4500      10    4455    4458    4506    4512       4
    4455    4458   -4506    4512       5    4449    4455    4458    4464      32
    4449    4455   -4458    4464      27    4449    4455   -4458    4506      26
    4449    4455   -4458    4506      27    4449    4500   -4506    4458      33
    4449    4500   -4506    4458      34    4449    4500   -4506    4458      35
    4449    4500    4506    4512      10    4449    4500    4518    4521       9
    4440    4449    4455    4458      26    4440    4449   -4455    4458      27
    4440    4449    4500    4506      33    4440    4449   -4500    4506      34
    4440    4449   -4500    4506      35    4440    4449    4500    4518      10
    4437    4440    4449    4455      10    4437    4440    4449    4500      36
    4437    4440   -4449    4500      37    4437    4440   -4449    4500      38
    4434    4428    4437    4440      12    4431    4428    4437    4440      12
    4428    4437    4440    4449       9    4611    4614    4623    4626       1
    4611    4614   -4623    4626       2    4611    4614   -4623    4626       3
    4605    4599    4593    4611       4    4605    4599   -4593    4611       5
    4599    4593    4611    4614       9    4593    4611    4614    4617      12
    4593    4611    4614    4620      12    4593    4611    4614    4623      13
    4593    4611   -4614    4623      12    4587    4557    4551    4599      14
    4575    4572    4584    4587      16    4572    4584    4587    4590      54
    4566    4560    4557    4587      46    4566    4572   -4584    4587      16
    4560    4557    4551    4599      14    4560    4557    4587    4584      48
    4560    4557    4587    4590      48    4560    4566    4572    4575      25
    4560    4566   -4572    4584      25    4557    4551    4599    4593      10
    4557    4551    4599    4605      10    4557    4560    4566    4572      47
    4557    4587   -4584    4572      54    4551    4548   -4542    4593      26
    4551    4548   -4542    4593      27    4551    4557    4560    4566      46
    4551    4557    4587    4584      48    4551    4557    4587    4590      48
    4551    4599    4593    4611      10    4548    4542   -4593    4599      10
    4548    4542    4593    4611       4    4548    4542   -4593    4611       5
    4548    4551    4557    4560      55    4548    4551   -4557    4560      56
    4548    4551   -4557    4560      57    4548    4551   -4557    4560      58
    4548    4551    4557    4587      14    4548    4551   -4599    4593      10
    4548    4551    4599    4605       4    4548    4551   -4599    4605       5
    4542    4548    4551    4557      32    4542    4548   -4551    4557      27
    4542    4548   -4551    4599      26    4542    4548   -4551    4599      27
    4542    4593   -4599    4551      33    4542    4593   -4599    4551      34
    4542    4593   -4599    4551      35    4542    4593    4599    4605      10
    4542    4593    4611    4614       9    4533    4542    4548    4551      26
    4533    4542   -4548    4551      27    4533    4542    4593    4599      33
    4533    4542   -4593    4599      34    4533    4542   -4593    4599      35
    4533    4542    4593    4611      10    4530    4533    4542    4548      10
    4530    4533    4542    4593      36    4530    4533   -4542    4593      37
    4530    4533   -4542    4593      38    4527    4521    4530    4533      12
    4524    4521    4530    4533      12    4521    4530    4533    4542       9
    4713    4716    4725    4728       1    4713    4716   -4725    4728       2
    4713    4716   -4725    4728       3    4707    4701    4695    4713       4
    4707    4701   -4695    4713       5    4701    4695    4713    4716       9
    4695    4713    4716    4719      12    4695    4713    4716    4722      12
    4695    4713    4716    4725      13    4695    4713   -4716    4725      12
    4692    4650    4644    4701      14    4680    4677    4689    4692      16
    4671    4665    4662    4692      18    4671    4677   -4689    4692      16
    4668    4665    4662    4692      18    4668    4665    4671    4677      19
    4665    4662    4692    4689      20    4665    4671    4677    4680      17
    4665    4671   -4677    4689      17    4662    4665    4671    4677      19
    4662    4692   -4689    4677      21    4659    4653   -4650    4692      22
    4659    4662    4665    4668      18    4659    4662    4665    4671      18
    4659    4662    4692    4689      20    4653    4650    4644    4701      14
    4653    4650   -4692    4662      24    4653    4650    4692    4689      24
    4653    4659    4662    4665      25    4653    4659   -4662    4692      25
    4650    4644    4701    4695      10    4650    4644    4701    4707      10
    4650    4653   -4659    4662      23    4650    4692   -4662    4659      20
    4650    4692    4662    4665      20    4650    4692    4689    4677      21
    4644    4641   -4635    4695      26    4644    4641   -4635    4695      27
    4644    4650    4653    4659      22    4644    4650    4692    4662      24
    4644    4650    4692    4689      24    4644    4701    4695    4713      10
    4641    4635   -4695    4701      10    4641    4635    4695    4713       4
    4641    4635   -4695    4713       5    4641    4644    4650    4653      28
    4641    4644   -4650    4653      29    4641    4644   -4650    4653      30
    4641    4644   -4650    4653      31    4641    4644    4650    4692      14
    4641    4644   -4701    4695      10    4641    4644    4701    4707       4
    4641    4644   -4701    4707       5    4635    4641    4644    4650      32
    4635    4641   -4644    4650      27    4635    4641   -4644    4701      26
    4635    4641   -4644    4701      27    4635    4695   -4701    4644      33
    4635    4695   -4701    4644      34    4635    4695   -4701    4644      35
    4635    4695    4701    4707      10    4635    4695    4713    4716       9
    4626    4635    4641    4644      26    4626    4635   -4641    4644      27
    4626    4635    4695    4701      33    4626    4635   -4695    4701      34
    4626    4635   -4695    4701      35    4626    4635    4695    4713      10
    4623    4626    4635    4641      10    4623    4626    4635    4695      36
    4623    4626   -4635    4695      37    4623    4626   -4635    4695      38
    4620    4614    4623    4626      12    4617    4614    4623    4626      12
    4614    4623    4626    4635       9    4803    4806    4815    4818       1
    4803    4806   -4815    4818       2    4803    4806   -4815    4818       3
    4797    4791    4785    4803       4    4797    4791   -4785    4803       5
    4791    4785    4803    4806       9    4785    4803    4806    4809      12
    4785    4803    4806    4812      12    4785    4803    4806    4815      13
    4785    4803   -4806    4815      12    4779    4752    4746    4791      14
    4770    4767    4773    4779      19    4767    4773    4779    4782      19
    4761    4755    4752    4779      46    4761    4767   -4773    4779      19
    4755    4752    4746    4791      14    4755    4752    4779    4773      48
    4755    4752    4779    4782      48    4755    4761    4767    4770      45
    4755    4761   -4767    4770      49    4755    4761   -4767    4773      45
    4752    4746    4791    4785      10    4752    4746    4791    4797      10
    4752    4755    4761    4767      47    4752    4779   -4773    4767      19
    4746    4743   -4737    4785      26    4746    4743   -4737    4785      27
    4746    4752    4755    4761      46    4746    4752    4779    4773      48
    4746    4752    4779    4782      48    4746    4791    4785    4803      10
    4743    4737   -4785    4791      10    4743    4737    4785    4803       4
    4743    4737   -4785    4803       5    4743    4746    4752    4755      50
    4743    4746   -4752    4755      51    4743    4746   -4752    4755      52
    4743    4746   -4752    4755      53    4743    4746    4752    4779      14
    4743    4746   -4791    4785      10    4743    4746    4791    4797       4
    4743    4746   -4791    4797       5    4737    4743    4746    4752      32
    4737    4743   -4746    4752      27    4737    4743   -4746    4791      26
    4737    4743   -4746    4791      27    4737    4785   -4791    4746      33
    4737    4785   -4791    4746      34    4737    4785   -4791    4746      35
    4737    4785    4791    4797      10    4737    4785    4803    4806       9
    4728    4737    4743    4746      26    4728    4737   -4743    4746      27
    4728    4737    4785    4791      33    4728    4737   -4785    4791      34
    4728    4737   -4785    4791      35    4728    4737    4785    4803      10
    4725    4728    4737    4743      10    4725    4728    4737    4785      36
    4725    4728   -4737    4785      37    4725    4728   -4737    4785      38
    4722    4716    4725    4728      12    4719    4716    4725    4728      12
    4716    4725    4728    4737       9    4902    4905    4914    4917       1
    4902    4905   -4914    4917       2    4902    4905   -4914    4917       3
    4896    4890    4884    4902       4    4896    4890   -4884    4902       5
    4890    4884    4902    4905       9    4884    4902    4905    4908      12
    4884    4902    4905    4911      12    4884    4902    4905    4914      13
    4884    4902   -4905    4914      12    4881    4842    4836    4890      14
    4869    4857    4854    4881      40    4869    4872   -4878    4881      39
    4860    4857    4854    4881      40    4860    4857    4869    4872      16
    4857    4854    4881    4878      20    4857    4869   -4872    4878      39
    4854    4857    4869    4872      16    4854    4881   -4878    4872      21
    4851    4845   -4842    4881      22    4851    4854    4857    4860      40
    4851    4854    4857    4869      40    4851    4854    4881    4878      20
    4845    4842    4836    4890      14    4845    4842   -4881    4854      24
    4845    4842    4881    4878      24    4845    4851    4854    4857      25
    4845    4851   -4854    4881      25    4842    4836    4890    4884      10
    4842    4836    4890    4896      10    4842    4845   -4851    4854      23
    4842    4881   -4854    4851      20    4842    4881    4854    4857      20
    4842    4881    4878    4872      21    4836    4833   -4827    4884      26
    4836    4833   -4827    4884      27    4836    4842    4845    4851      22
    4836    4842    4881    4854      24    4836    4842    4881    4878      24
    4836    4890    4884    4902      10    4833    4827   -4884    4890      10
    4833    4827    4884    4902       4    4833    4827   -4884    4902       5
    4833    4836    4842    4845      41    4833    4836   -4842    4845      42
    4833    4836   -4842    4845      43    4833    4836   -4842    4845      44
    4833    4836    4842    4881      14    4833    4836   -4890    4884      10
    4833    4836    4890    4896       4    4833    4836   -4890    4896       5
    4827    4833    4836    4842      32    4827    4833   -4836    4842      27
    4827    4833   -4836    4890      26    4827    4833   -4836    4890      27
    4827    4884   -4890    4836      33    4827    4884   -4890    4836      34
    4827    4884   -4890    4836      35    4827    4884    4890    4896      10
    4827    4884    4902    4905       9    4818    4827    4833    4836      26
    4818    4827   -4833    4836      27    4818    4827    4884    4890      33
    4818    4827   -4884    4890      34    4818    4827   -4884    4890      35
    4818    4827    4884    4902      10    4815    4818    4827    4833      10
    4815    4818    4827    4884      36    4815    4818   -4827    4884      37
    4815    4818   -4827    4884      38    4812    4806    4815    4818      12
    4809    4806    4815    4818      12    4806    4815    4818    4827       9
    5001    5004    5013    5016       1    5001    5004   -5013    5016       2
    5001    5004   -5013    5016       3    4995    4989    4983    5001       4
    4995    4989   -4983    5001       5    4989    4983    5001    5004       9
    4983    5001    5004    5007      12    4983    5001    5004    5010      12
    4983    5001    5004    5013      13    4983    5001   -5004    5013      12
    4980    4941    4935    4989      14    4968    4956    4953    4980      40
    4968    4971   -4977    4980      39    4959    4956    4953    4980      40
    4959    4956    4968    4971      16    4956    4953    4980    4977      20
    4956    4968   -4971    4977      39    4953    4956    4968    4971      16
    4953    4980   -4977    4971      21    4950    4944   -4941    4980      22
    4950    4953    4956    4959      40    4950    4953    4956    4968      40
    4950    4953    4980    4977      20    4944    4941    4935    4989      14
    4944    4941   -4980    4953      24    4944    4941    4980    4977      24
    4944    4950    4953    4956      25    4944    4950   -4953    4980      25
    4941    4935    4989    4983      10    4941    4935    4989    4995      10
    4941    4944   -4950    4953      23    4941    4980   -4953    4950      20
    4941    4980    4953    4956      20    4941    4980    4977    4971      21
    4935    4932   -4926    4983      26    4935    4932   -4926    4983      27
    4935    4941    4944    4950      22    4935    4941    4980    4953      24
    4935    4941    4980    4977      24    4935    4989    4983    5001      10
    4932    4926   -4983    4989      10    4932    4926    4983    5001       4
    4932    4926   -4983    5001       5    4932    4935    4941    4944      41
    4932    4935   -4941    4944      42    4932    4935   -4941    4944      43
    4932    4935   -4941    4944      44    4932    4935    4941    4980      14
    4932    4935   -4989    4983      10    4932    4935    4989    4995       4
    4932    4935   -4989    4995       5    4926    4932    4935    4941      32
    4926    4932   -4935    4941      27    4926    4932   -4935    4989      26
    4926    4932   -4935    4989      27    4926    4983   -4989    4935      33
    4926    4983   -4989    4935      34    4926    4983   -4989    4935      35
    4926    4983    4989    4995      10    4926    4983    5001    5004       9
    4917    4926    4932    4935      26    4917    4926   -4932    4935      27
    4917    4926    4983    4989      33    4917    4926   -4983    4989      34
    4917    4926   -4983    4989      35    4917    4926    4983    5001      10
    4914    4917    4926    4932      10    4914    4917    4926    4983      36
    4914    4917   -4926    4983      37    4914    4917   -4926    4983      38
    4911    4905    4914    4917      12    4908    4905    4914    4917      12
    4905    4914    4917    4926       9    5100    5103    5112    5115       1
    5100    5103   -5112    5115       2    5100    5103   -5112    5115       3
    5094    5088    5082    5100       4    5094    5088   -5082    5100       5
    5088    5082    5100    5103       9    5082    5100    5103    5106      12
    5082    5100    5103    5109      12    5082    5100    5103    5112      13
    5082    5100   -5103    5112      12    5079    5040    5034    5088      14
    5067    5055    5052    5079      40    5067    5070   -5076    5079      39
    5058    5055    5052    5079      40    5058    5055    5067    5070      16
    5055    5052    5079    5076      20    5055    5067   -5070    5076      39
    5052    5055    5067    5070      16    5052    5079   -5076    5070      21
    5049    5043   -5040    5079      22    5049    5052    5055    5058      40
    5049    5052    5055    5067      40    5049    5052    5079    5076      20
    5043    5040    5034    5088      14    5043    5040   -5079    5052      24
    5043    5040    5079    5076      24    5043    5049    5052    5055      25
    5043    5049   -5052    5079      25    5040    5034    5088    5082      10
    5040    5034    5088    5094      10    5040    5043   -5049    5052      23
    5040    5079   -5052    5049      20    5040    5079    5052    5055      20
    5040    5079    5076    5070      21    5034    5031   -5025    5082      26
    5034    5031   -5025    5082      27    5034    5040    5043    5049      22
    5034    5040    5079    5052      24    5034    5040    5079    5076      24
    5034    5088    5082    5100      10    5031    5025   -5082    5088      10
    5031    5025    5082    5100       4    5031    5025   -5082    5100       5
    5031    5034    5040    5043      41    5031    5034   -5040    5043      42
    5031    5034   -5040    5043      43    5031    5034   -5040    5043      44
    5031    5034    5040    5079      14    5031    5034   -5088    5082      10
    5031    5034    5088    5094       4    5031    5034   -5088    5094       5
    5025    5031    5034    5040      32    5025    5031   -5034    5040      27
    5025    5031   -5034    5088      26    5025    5031   -5034    5088      27
    5025    5082   -5088    5034      33    5025    5082   -5088    5034      34
    5025    5082   -5088    5034      35    5025    5082    5088    5094      10
    5025    5082    5100    5103       9    5016    5025    5031    5034      26
    5016    5025   -5031    5034      27    5016    5025    5082    5088      33
    5016    5025   -5082    5088      34    5016    5025   -5082    5088      35
    5016    5025    5082    5100      10    5013    5016    5025    5031      10
    5013    5016    5025    5082      36    5013    5016   -5025    5082      37
    5013    5016   -5025    5082      38    5010    5004    5013    5016      12
    5007    5004    5013    5016      12    5004    5013    5016    5025       9
    5190    5193    5202    5205       1    5190    5193   -5202    5205       2
    5190    5193   -5202    5205       3    5184    5178    5172    5190       4
    5184    5178   -5172    5190       5    5178    5172    5190    5193       9
    5172    5190    5193    5196      12    5172    5190    5193    5199      12
    5172    5190    5193    5202      13    5172    5190   -5193    5202      12
    5166    5139    5133    5178      14    5157    5154    5160    5166      19
    5154    5160    5166    5169      19    5148    5142    5139    5166      46
    5148    5154   -5160    5166      19    5142    5139    5133    5178      14
    5142    5139    5166    5160      48    5142    5139    5166    5169      48
    5142    5148    5154    5157      45    5142    5148   -5154    5157      49
    5142    5148   -5154    5160      45    5139    5133    5178    5172      10
    5139    5133    5178    5184      10    5139    5142    5148    5154      47
    5139    5166   -5160    5154      19    5133    5130   -5124    5172      26
    5133    5130   -5124    5172      27    5133    5139    5142    5148      46
    5133    5139    5166    5160      48    5133    5139    5166    5169      48
    5133    5178    5172    5190      10    5130    5124   -5172    5178      10
    5130    5124    5172    5190       4    5130    5124   -5172    5190       5
    5130    5133    5139    5142      50    5130    5133   -5139    5142      51
    5130    5133   -5139    5142      52    5130    5133   -5139    5142      53
    5130    5133    5139    5166      14    5130    5133   -5178    5172      10
    5130    5133    5178    5184       4    5130    5133   -5178    5184       5
    5124    5130    5133    5139      32    5124    5130   -5133    5139      27
    5124    5130   -5133    5178      26    5124    5130   -5133    5178      27
    5124    5172   -5178    5133      33    5124    5172   -5178    5133      34
    5124    5172   -5178    5133      35    5124    5172    5178    5184      10
    5124    5172    5190    5193       9    5115    5124    5130    5133      26
    5115    5124   -5130    5133      27    5115    5124    5172    5178      33
    5115    5124   -5172    5178      34    5115    5124   -5172    5178      35
    5115    5124    5172    5190      10    5112    5115    5124    5130      10
    5112    5115    5124    5172      36    5112    5115   -5124    5172      37
    5112    5115   -5124    5172      38    5109    5103    5112    5115      12
    5106    5103    5112    5115      12    5103    5112    5115    5124       9
    5292    5295    5304    5307       1    5292    5295   -5304    5307       2
    5292    5295   -5304    5307       3    5286    5280    5274    5292       4
    5286    5280   -5274    5292       5    5280    5274    5292    5295       9
    5274    5292    5295    5298      12    5274    5292    5295    5301      12
    5274    5292    5295    5304      13    5274    5292   -5295    5304      12
    5271    5229    5223    5280      14    5259    5256    5268    5271      16
    5250    5244    5241    5271      18    5250    5256   -5268    5271      16
    5247    5244    5241    5271      18    5247    5244    5250    5256      19
    5244    5241    5271    5268      20    5244    5250    5256    5259      17
    5244    5250   -5256    5268      17    5241    5244    5250    5256      19
    5241    5271   -5268    5256      21    5238    5232   -5229    5271      22
    5238    5241    5244    5247      18    5238    5241    5244    5250      18
    5238    5241    5271    5268      20    5232    5229    5223    5280      14
    5232    5229   -5271    5241      24    5232    5229    5271    5268      24
    5232    5238    5241    5244      25    5232    5238   -5241    5271      25
    5229    5223    5280    5274      10    5229    5223    5280    5286      10
    5229    5232   -5238    5241      23    5229    5271   -5241    5238      20
    5229    5271    5241    5244      20    5229    5271    5268    5256      21
    5223    5220   -5214    5274      26    5223    5220   -5214    5274      27
    5223    5229    5232    5238      22    5223    5229    5271    5241      24
    5223    5229    5271    5268      24    5223    5280    5274    5292      10
    5220    5214   -5274    5280      10    5220    5214    5274    5292       4
    5220    5214   -5274    5292       5    5220    5223    5229    5232      28
    5220    5223   -5229    5232      29    5220    5223   -5229    5232      30
    5220    5223   -5229    5232      31    5220    5223    5229    5271      14
    5220    5223   -5280    5274      10    5220    5223    5280    5286       4
    5220    5223   -5280    5286       5    5214    5220    5223    5229      32
    5214    5220   -5223    5229      27    5214    5220   -5223    5280      26
    5214    5220   -5223    5280      27    5214    5274   -5280    5223      33
    5214    5274   -5280    5223      34    5214    5274   -5280    5223      35
    5214    5274    5280    5286      10    5214    5274    5292    5295       9
    5205    5214    5220    5223      26    5205    5214   -5220    5223      27
    5205    5214    5274    5280      33    5205    5214   -5274    5280      34
    5205    5214   -5274    5280      35    5205    5214    5274    5292      10
    5202    5205    5214    5220      10    5202    5205    5214    5274      36
    5202    5205   -5214    5274      37    5202    5205   -5214    5274      38
    5199    5193    5202    5205      12    5196    5193    5202    5205      12
    5193    5202    5205    5214       9    5382    5385    5394    5397       1
    5382    5385   -5394    5397       2    5382    5385   -5394    5397       3
    5376    5370    5364    5382       4    5376    5370   -5364    5382       5
    5370    5364    5382    5385       9    5364    5382    5385    5388      12
    5364    5382    5385    5391      12    5364    5382    5385    5394      13
    5364    5382   -5385    5394      12    5358    5331    5325    5370      14
    5349    5346    5352    5358      19    5346    5352    5358    5361      19
    5340    5334    5331    5358      46    5340    5346   -5352    5358      19
    5334    5331    5325    5370      14    5334    5331    5358    5352      48
    5334    5331    5358    5361      48    5334    5340    5346    5349      45
    5334    5340   -5346    5349      49    5334    5340   -5346    5352      45
    5331    5325    5370    5364      10    5331    5325    5370    5376      10
    5331    5334    5340    5346      47    5331    5358   -5352    5346      19
    5325    5322   -5316    5364      26    5325    5322   -5316    5364      27
    5325    5331    5334    5340      46    5325    5331    5358    5352      48
    5325    5331    5358    5361      48    5325    5370    5364    5382      10
    5322    5316   -5364    5370      10    5322    5316    5364    5382       4
    5322    5316   -5364    5382       5    5322    5325    5331    5334      50
    5322    5325   -5331    5334      51    5322    5325   -5331    5334      52
    5322    5325   -5331    5334      53    5322    5325    5331    5358      14
    5322    5325   -5370    5364      10    5322    5325    5370    5376       4
    5322    5325   -5370    5376       5    5316    5322    5325    5331      32
    5316    5322   -5325    5331      27    5316    5322   -5325    5370      26
    5316    5322   -5325    5370      27    5316    5364   -5370    5325      33
    5316    5364   -5370    5325      34    5316    5364   -5370    5325      35
    5316    5364    5370    5376      10    5316    5364    5382    5385       9
    5307    5316    5322    5325      26    5307    5316   -5322    5325      27
    5307    5316    5364    5370      33    5307    5316   -5364    5370      34
    5307    5316   -5364    5370      35    5307    5316    5364    5382      10
    5304    5307    5316    5322      10    5304    5307    5316    5364      36
    5304    5307   -5316    5364      37    5304    5307   -5316    5364      38
    5301    5295    5304    5307      12    5298    5295    5304    5307      12
    5295    5304    5307    5316       9    5475    5478    5487    5490       1
    5475    5478   -5487    5490       2    5475    5478   -5487    5490       3
    5469    5463    5457    5475       4    5469    5463   -5457    5475       5
    5463    5457    5475    5478       9    5457    5475    5478    5481      12
    5457    5475    5478    5484      12    5457    5475    5478    5487      13
    5457    5475   -5478    5487      12    5451    5421    5415    5463      14
    5439    5436    5448    5451      16    5436    5448    5451    5454      54
    5430    5424    5421    5451      46    5430    5436   -5448    5451      16
    5424    5421    5415    5463      14    5424    5421    5451    5448      48
    5424    5421    5451    5454      48    5424    5430    5436    5439      25
    5424    5430   -5436    5448      25    5421    5415    5463    5457      10
    5421    5415    5463    5469      10    5421    5424    5430    5436      47
    5421    5451   -5448    5436      54    5415    5412   -5406    5457      26
    5415    5412   -5406    5457      27    5415    5421    5424    5430      46
    5415    5421    5451    5448      48    5415    5421    5451    5454      48
    5415    5463    5457    5475      10    5412    5406   -5457    5463      10
    5412    5406    5457    5475       4    5412    5406   -5457    5475       5
    5412    5415    5421    5424      55    5412    5415   -5421    5424      56
    5412    5415   -5421    5424      57    5412    5415   -5421    5424      58
    5412    5415    5421    5451      14    5412    5415   -5463    5457      10
    5412    5415    5463    5469       4    5412    5415   -5463    5469       5
    5406    5412    5415    5421      32    5406    5412   -5415    5421      27
    5406    5412   -5415    5463      26    5406    5412   -5415    5463      27
    5406    5457   -5463    5415      33    5406    5457   -5463    5415      34
    5406    5457   -5463    5415      35    5406    5457    5463    5469      10
    5406    5457    5475    5478       9    5397    5406    5412    5415      26
    5397    5406   -5412    5415      27    5397    5406    5457    5463      33
    5397    5406   -5457    5463      34    5397    5406   -5457    5463      35
    5397    5406    5457    5475      10    5394    5397    5406    5412      10
    5394    5397    5406    5457      36    5394    5397   -5406    5457      37
    5394    5397   -5406    5457      38    5391    5385    5394    5397      12
    5388    5385    5394    5397      12    5385    5394    5397    5406       9
    5568    5571    5580    5583       1    5568    5571   -5580    5583       2
    5568    5571   -5580    5583       3    5562    5556    5550    5568       4
    5562    5556   -5550    5568       5    5556    5550    5568    5571       9
    5550    5568    5571    5574      12    5550    5568    5571    5577      12
    5550    5568    5571    5580      13    5550    5568   -5571    5580      12
    5544    5514    5508    5556      14    5532    5529    5541    5544      16
    5529    5541    5544    5547      54    5523    5517    5514    5544      46
    5523    5529   -5541    5544      16    5517    5514    5508    5556      14
    5517    5514    5544    5541      48    5517    5514    5544    5547      48
    5517    5523    5529    5532      25    5517    5523   -5529    5541      25
    5514    5508    5556    5550      10    5514    5508    5556    5562      10
    5514    5517    5523    5529      47    5514    5544   -5541    5529      54
    5508    5505   -5499    5550      26    5508    5505   -5499    5550      27
    5508    5514    5517    5523      46    5508    5514    5544    5541      48
    5508    5514    5544    5547      48    5508    5556    5550    5568      10
    5505    5499   -5550    5556      10    5505    5499    5550    5568       4
    5505    5499   -5550    5568       5    5505    5508    5514    5517      55
    5505    5508   -5514    5517      56    5505    5508   -5514    5517      57
    5505    5508   -5514    5517      58    5505    5508    5514    5544      14
    5505    5508   -5556    5550      10    5505    5508    5556    5562       4
    5505    5508   -5556    5562       5    5499    5505    5508    5514      32
    5499    5505   -5508    5514      27    5499    5505   -5508    5556      26
    5499    5505   -5508    5556      27    5499    5550   -5556    5508      33
    5499    5550   -5556    5508      34    5499    5550   -5556    5508      35
    5499    5550    5556    5562      10    5499    5550    5568    5571       9
    5490    5499    5505    5508      26    5490    5499   -5505    5508      27
    5490    5499    5550    5556      33    5490    5499   -5550    5556      34
    5490    5499   -5550    5556      35    5490    5499    5550    5568      10
    5487    5490    5499    5505      10    5487    5490    5499    5550      36
    5487    5490   -5499    5550      37    5487    5490   -5499    5550      38
    5484    5478    5487    5490      12    5481    5478    5487    5490      12
    5478    5487    5490    5499       9    5670    5673    5682    5685       1
    5670    5673   -5682    5685       2    5670    5673   -5682    5685       3
    5664    5658    5652    5670       4    5664    5658   -5652    5670       5
    5658    5652    5670    5673       9    5652    5670    5673    5676      12
    5652    5670    5673    5679      12    5652    5670    5673    5682      13
    5652    5670   -5673    5682      12    5649    5607    5601    5658      14
    5637    5634    5646    5649      16    5628    5622    5619    5649      18
    5628    5634   -5646    5649      16    5625    5622    5619    5649      18
    5625    5622    5628    5634      19    5622    5619    5649    5646      20
    5622    5628    5634    5637      17    5622    5628   -5634    5646      17
    5619    5622    5628    5634      19    5619    5649   -5646    5634      21
    5616    5610   -5607    5649      22    5616    5619    5622    5625      18
    5616    5619    5622    5628      18    5616    5619    5649    5646      20
    5610    5607    5601    5658      14    5610    5607   -5649    5619      24
    5610    5607    5649    5646      24    5610    5616    5619    5622      25
    5610    5616   -5619    5649      25    5607    5601    5658    5652      10
    5607    5601    5658    5664      10    5607    5610   -5616    5619      23
    5607    5649   -5619    5616      20    5607    5649    5619    5622      20
    5607    5649    5646    5634      21    5601    5598   -5592    5652      26
    5601    5598   -5592    5652      27    5601    5607    5610    5616      22
    5601    5607    5649    5619      24    5601    5607    5649    5646      24
    5601    5658    5652    5670      10    5598    5592   -5652    5658      10
    5598    5592    5652    5670       4    5598    5592   -5652    5670       5
    5598    5601    5607    5610      28    5598    5601   -5607    5610      29
    5598    5601   -5607    5610      30    5598    5601   -5607    5610      31
    5598    5601    5607    5649      14    5598    5601   -5658    5652      10
    5598    5601    5658    5664       4    5598    5601   -5658    5664       5
    5592    5598    5601    5607      32    5592    5598   -5601    5607      27
    5592    5598   -5601    5658      26    5592    5598   -5601    5658      27
    5592    5652   -5658    5601      33    5592    5652   -5658    5601      34
    5592    5652   -5658    5601      35    5592    5652    5658    5664      10
    5592    5652    5670    5673       9    5583    5592    5598    5601      26
    5583    5592   -5598    5601      27    5583    5592    5652    5658      33
    5583    5592   -5652    5658      34    5583    5592   -5652    5658      35
    5583    5592    5652    5670      10    5580    5583    5592    5598      10
    5580    5583    5592    5652      36    5580    5583   -5592    5652      37
    5580    5583   -5592    5652      38    5577    5571    5580    5583      12
    5574    5571    5580    5583      12    5571    5580    5583    5592       9
    5769    5772    5781    5784       1    5769    5772   -5781    5784       2
    5769    5772   -5781    5784       3    5763    5757    5751    5769       4
    5763    5757   -5751    5769       5    5757    5751    5769    5772       9
    5751    5769    5772    5775      12    5751    5769    5772    5778      12
    5751    5769    5772    5781      13    5751    5769   -5772    5781      12
    5748    5709    5703    5757      14    5736    5724    5721    5748      40
    5736    5739   -5745    5748      39    5727    5724    5721    5748      40
    5727    5724    5736    5739      16    5724    5721    5748    5745      20
    5724    5736   -5739    5745      39    5721    5724    5736    5739      16
    5721    5748   -5745    5739      21    5718    5712   -5709    5748      22
    5718    5721    5724    5727      40    5718    5721    5724    5736      40
    5718    5721    5748    5745      20    5712    5709    5703    5757      14
    5712    5709   -5748    5721      24    5712    5709    5748    5745      24
    5712    5718    5721    5724      25    5712    5718   -5721    5748      25
    5709    5703    5757    5751      10    5709    5703    5757    5763      10
    5709    5712   -5718    5721      23    5709    5748   -5721    5718      20
    5709    5748    5721    5724      20    5709    5748    5745    5739      21
    5703    5700   -5694    5751      26    5703    5700   -5694    5751      27
    5703    5709    5712    5718      22    5703    5709    5748    5721      24
    5703    5709    5748    5745      24    5703    5757    5751    5769      10
    5700    5694   -5751    5757      10    5700    5694    5751    5769       4
    5700    5694   -5751    5769       5    5700    5703    5709    5712      41
    5700    5703   -5709    5712      42    5700    5703   -5709    5712      43
    5700    5703   -5709    5712      44    5700    5703    5709    5748      14
    5700    5703   -5757    5751      10    5700    5703    5757    5763       4
    5700    5703   -5757    5763       5    5694    5700    5703    5709      32
    5694    5700   -5703    5709      27    5694    5700   -5703    5757      26
    5694    5700   -5703    5757      27    5694    5751   -5757    5703      33
    5694    5751   -5757    5703      34    5694    5751   -5757    5703      35
    5694    5751    5757    5763      10    5694    5751    5769    5772       9
    5685    5694    5700    5703      26    5685    5694   -5700    5703      27
    5685    5694    5751    5757      33    5685    5694   -5751    5757      34
    5685    5694   -5751    5757      35    5685    5694    5751    5769      10
    5682    5685    5694    5700      10    5682    5685    5694    5751      36
    5682    5685   -5694    5751      37    5682    5685   -5694    5751      38
    5679    5673    5682    5685      12    5676    5673    5682    5685      12
    5673    5682    5685    5694       9    5862    5865    5874    5877       1
    5862    5865   -5874    5877       2    5862    5865   -5874    5877       3
    5856    5850    5844    5862       4    5856    5850   -5844    5862       5
    5850    5844    5862    5865       9    5844    5862    5865    5868      12
    5844    5862    5865    5871      12    5844    5862    5865    5874      13
    5844    5862   -5865    5874      12    5838    5808    5802    5850      14
    5826    5823    5835    5838      16    5823    5835    5838    5841      54
    5817    5811    5808    5838      46    5817    5823   -5835    5838      16
    5811    5808    5802    5850      14    5811    5808    5838    5835      48
    5811    5808    5838    5841      48    5811    5817    5823    5826      25
    5811    5817   -5823    5835      25    5808    5802    5850    5844      10
    5808    5802    5850    5856      10    5808    5811    5817    5823      47
    5808    5838   -5835    5823      54    5802    5799   -5793    5844      26
    5802    5799   -5793    5844      27    5802    5808    5811    5817      46
    5802    5808    5838    5835      48    5802    5808    5838    5841      48
    5802    5850    5844    5862      10    5799    5793   -5844    5850      10
    5799    5793    5844    5862       4    5799    5793   -5844    5862       5
    5799    5802    5808    5811      55    5799    5802   -5808    5811      56
    5799    5802   -5808    5811      57    5799    5802   -5808    5811      58
    5799    5802    5808    5838      14    5799    5802   -5850    5844      10
    5799    5802    5850    5856       4    5799    5802   -5850    5856       5
    5793    5799    5802    5808      32    5793    5799   -5802    5808      27
    5793    5799   -5802    5850      26    5793    5799   -5802    5850      27
    5793    5844   -5850    5802      33    5793    5844   -5850    5802      34
    5793    5844   -5850    5802      35    5793    5844    5850    5856      10
    5793    5844    5862    5865       9    5784    5793    5799    5802      26
    5784    5793   -5799    5802      27    5784    5793    5844    5850      33
    5784    5793   -5844    5850      34    5784    5793   -5844    5850      35
    5784    5793    5844    5862      10    5781    5784    5793    5799      10
    5781    5784    5793    5844      36    5781    5784   -5793    5844      37
    5781    5784   -5793    5844      38    5778    5772    5781    5784      12
    5775    5772    5781    5784      12    5772    5781    5784    5793       9
    5952    5955    5964    5967       1    5952    5955   -5964    5967       2
    5952    5955   -5964    5967       3    5946    5940    5934    5952       4
    5946    5940   -5934    5952       5    5940    5934    5952    5955       9
    5934    5952    5955    5958      12    5934    5952    5955    5961      12
    5934    5952    5955    5964      13    5934    5952   -5955    5964      12
    5928    5901    5895    5940      14    5919    5916    5922    5928      19
    5916    5922    5928    5931      19    5910    5904    5901    5928      46
    5910    5916   -5922    5928      19    5904    5901    5895    5940      14
    5904    5901    5928    5922      48    5904    5901    5928    5931      48
    5904    5910    5916    5919      45    5904    5910   -5916    5919      49
    5904    5910   -5916    5922      45    5901    5895    5940    5934      10
    5901    5895    5940    5946      10    5901    5904    5910    5916      47
    5901    5928   -5922    5916      19    5895    5892   -5886    5934      26
    5895    5892   -5886    5934      27    5895    5901    5904    5910      46
    5895    5901    5928    5922      48    5895    5901    5928    5931      48
    5895    5940    5934    5952      10    5892    5886   -5934    5940      10
    5892    5886    5934    5952       4    5892    5886   -5934    5952       5
    5892    5895    5901    5904      50    5892    5895   -5901    5904      51
    5892    5895   -5901    5904      52    5892    5895   -5901    5904      53
    5892    5895    5901    5928      14    5892    5895   -5940    5934      10
    5892    5895    5940    5946       4    5892    5895   -5940    5946       5
    5886    5892    5895    5901      32    5886    5892   -5895    5901      27
    5886    5892   -5895    5940      26    5886    5892   -5895    5940      27
    5886    5934   -5940    5895      33    5886    5934   -5940    5895      34
    5886    5934   -5940    5895      35    5886    5934    5940    5946      10
    5886    5934    5952    5955       9    5877    5886    5892    5895      26
    5877    5886   -5892    5895      27    5877    5886    5934    5940      33
    5877    5886   -5934    5940      34    5877    5886   -5934    5940      35
    5877    5886    5934    5952      10    5874    5877    5886    5892      10
    5874    5877    5886    5934      36    5874    5877   -5886    5934      37
    5874    5877   -5886    5934      38    5871    5865    5874    5877      12
    5868    5865    5874    5877      12    5865    5874    5877    5886       9
    6051    6054    6063    6066       1    6051    6054   -6063    6066       2
    6051    6054   -6063    6066       3    6045    6039    6033    6051       4
    6045    6039   -6033    6051       5    6039    6033    6051    6054       9
    6033    6051    6054    6057      12    6033    6051    6054    6060      12
    6033    6051    6054    6063      13    6033    6051   -6054    6063      12
    6030    5991    5985    6039      14    6018    6006    6003    6030      40
    6018    6021   -6027    6030      39    6009    6006    6003    6030      40
    6009    6006    6018    6021      16    6006    6003    6030    6027      20
    6006    6018   -6021    6027      39    6003    6006    6018    6021      16
    6003    6030   -6027    6021      21    6000    5994   -5991    6030      22
    6000    6003    6006    6009      40    6000    6003    6006    6018      40
    6000    6003    6030    6027      20    5994    5991    5985    6039      14
    5994    5991   -6030    6003      24    5994    5991    6030    6027      24
    5994    6000    6003    6006      25    5994    6000   -6003    6030      25
    5991    5985    6039    6033      10    5991    5985    6039    6045      10
    5991    5994   -6000    6003      23    5991    6030   -6003    6000      20
    5991    6030    6003    6006      20    5991    6030    6027    6021      21
    5985    5982   -5976    6033      26    5985    5982   -5976    6033      27
    5985    5991    5994    6000      22    5985    5991    6030    6003      24
    5985    5991    6030    6027      24    5985    6039    6033    6051      10
    5982    5976   -6033    6039      10    5982    5976    6033    6051       4
    5982    5976   -6033    6051       5    5982    5985    5991    5994      41
    5982    5985   -5991    5994      42    5982    5985   -5991    5994      43
    5982    5985   -5991    5994      44    5982    5985    5991    6030      14
    5982    5985   -6039    6033      10    5982    5985    6039    6045       4
    5982    5985   -6039    6045       5    5976    5982    5985    5991      32
    5976    5982   -5985    5991      27    5976    5982   -5985    6039      26
    5976    5982   -5985    6039      27    5976    6033   -6039    5985      33
    5976    6033   -6039    5985      34    5976    6033   -6039    5985      35
    5976    6033    6039    6045      10    5976    6033    6051    6054       9
    5967    5976    5982    5985      26    5967    5976   -5982    5985      27
    5967    5976    6033    6039      33    5967    5976   -6033    6039      34
    5967    5976   -6033    6039      35    5967    5976    6033    6051      10
    5964    5967    5976    5982      10    5964    5967    5976    6033      36
    5964    5967   -5976    6033      37    5964    5967   -5976    6033      38
    5961    5955    5964    5967      12    5958    5955    5964    5967      12
    5955    5964    5967    5976       9    6141    6144    6153    6156       1
    6141    6144   -6153    6156       2    6141    6144   -6153    6156       3
    6135    6129    6123    6141       4    6135    6129   -6123    6141       5
    6129    6123    6141    6144       9    6123    6141    6144    6147      12
    6123    6141    6144    6150      12    6123    6141    6144    6153      13
    6123    6141   -6144    6153      12    6117    6090    6084    6129      14
    6108    6105    6111    6117      19    6105    6111    6117    6120      19
    6099    6093    6090    6117      46    6099    6105   -6111    6117      19
    6093    6090    6084    6129      14    6093    6090    6117    6111      48
    6093    6090    6117    6120      48    6093    6099    6105    6108      45
    6093    6099   -6105    6108      49    6093    6099   -6105    6111      45
    6090    6084    6129    6123      10    6090    6084    6129    6135      10
    6090    6093    6099    6105      47    6090    6117   -6111    6105      19
    6084    6081   -6075    6123      26    6084    6081   -6075    6123      27
    6084    6090    6093    6099      46    6084    6090    6117    6111      48
    6084    6090    6117    6120      48    6084    6129    6123    6141      10
    6081    6075   -6123    6129      10    6081    6075    6123    6141       4
    6081    6075   -6123    6141       5    6081    6084    6090    6093      50
    6081    6084   -6090    6093      51    6081    6084   -6090    6093      52
    6081    6084   -6090    6093      53    6081    6084    6090    6117      14
    6081    6084   -6129    6123      10    6081    6084    6129    6135       4
    6081    6084   -6129    6135       5    6075    6081    6084    6090      32
    6075    6081   -6084    6090      27    6075    6081   -6084    6129      26
    6075    6081   -6084    6129      27    6075    6123   -6129    6084      33
    6075    6123   -6129    6084      34    6075    6123   -6129    6084      35
    6075    6123    6129    6135      10    6075    6123    6141    6144       9
    6066    6075    6081    6084      26    6066    6075   -6081    6084      27
    6066    6075    6123    6129      33    6066    6075   -6123    6129      34
    6066    6075   -6123    6129      35    6066    6075    6123    6141      10
    6063    6066    6075    6081      10    6063    6066    6075    6123      36
    6063    6066   -6075    6123      37    6063    6066   -6075    6123      38
    6060    6054    6063    6066      12    6057    6054    6063    6066      12
    6054    6063    6066    6075       9    6243    6246    6255    6258       1
    6243    6246   -6255    6258       2    6243    6246   -6255    6258       3
    6237    6231    6225    6243       4    6237    6231   -6225    6243       5
    6231    6225    6243    6246       9    6225    6243    6246    6249      12
    6225    6243    6246    6252      12    6225    6243    6246    6255      13
    6225    6243   -6246    6255      12    6222    6180    6174    6231      14
    6210    6207    6219    6222      16    6201    6195    6192    6222      18
    6201    6207   -6219    6222      16    6198    6195    6192    6222      18
    6198    6195    6201    6207      19    6195    6192    6222    6219      20
    6195    6201    6207    6210      17    6195    6201   -6207    6219      17
    6192    6195    6201    6207      19    6192    6222   -6219    6207      21
    6189    6183   -6180    6222      22    6189    6192    6195    6198      18
    6189    6192    6195    6201      18    6189    6192    6222    6219      20
    6183    6180    6174    6231      14    6183    6180   -6222    6192      24
    6183    6180    6222    6219      24    6183    6189    6192    6195      25
    6183    6189   -6192    6222      25    6180    6174    6231    6225      10
    6180    6174    6231    6237      10    6180    6183   -6189    6192      23
    6180    6222   -6192    6189      20    6180    6222    6192    6195      20
    6180    6222    6219    6207      21    6174    6171   -6165    6225      26
    6174    6171   -6165    6225      27    6174    6180    6183    6189      22
    6174    6180    6222    6192      24    6174    6180    6222    6219      24
    6174    6231    6225    6243      10    6171    6165   -6225    6231      10
    6171    6165    6225    6243       4    6171    6165   -6225    6243       5
    6171    6174    6180    6183      28    6171    6174   -6180    6183      29
    6171    6174   -6180    6183      30    6171    6174   -6180    6183      31
    6171    6174    6180    6222      14    6171    6174   -6231    6225      10
    6171    6174    6231    6237       4    6171    6174   -6231    6237       5
    6165    6171    6174    6180      32    6165    6171   -6174    6180      27
    6165    6171   -6174    6231      26    6165    6171   -6174    6231      27
    6165    6225   -6231    6174      33    6165    6225   -6231    6174      34
    6165    6225   -6231    6174      35    6165    6225    6231    6237      10
    6165    6225    6243    6246       9    6156    6165    6171    6174      26
    6156    6165   -6171    6174      27    6156    6165    6225    6231      33
    6156    6165   -6225    6231      34    6156    6165   -6225    6231      35
    6156    6165    6225    6243      10    6153    6156    6165    6171      10
    6153    6156    6165    6225      36    6153    6156   -6165    6225      37
    6153    6156   -6165    6225      38    6150    6144    6153    6156      12
    6147    6144    6153    6156      12    6144    6153    6156    6165       9
    6345    6348    6357    6360       1    6345    6348   -6357    6360       2
    6345    6348   -6357    6360       3    6339    6333    6327    6345       4
    6339    6333   -6327    6345       5    6333    6327    6345    6348       9
    6327    6345    6348    6351      12    6327    6345    6348    6354      12
    6327    6345    6348    6357      13    6327    6345   -6348    6357      12
    6324    6282    6276    6333      14    6312    6309    6321    6324      16
    6303    6297    6294    6324      18    6303    6309   -6321    6324      16
    6300    6297    6294    6324      18    6300    6297    6303    6309      19
    6297    6294    6324    6321      20    6297    6303    6309    6312      17
    6297    6303   -6309    6321      17    6294    6297    6303    6309      19
    6294    6324   -6321    6309      21    6291    6285   -6282    6324      22
    6291    6294    6297    6300      18    6291    6294    6297    6303      18
    6291    6294    6324    6321      20    6285    6282    6276    6333      14
    6285    6282   -6324    6294      24    6285    6282    6324    6321      24
    6285    6291    6294    6297      25    6285    6291   -6294    6324      25
    6282    6276    6333    6327      10    6282    6276    6333    6339      10
    6282    6285   -6291    6294      23    6282    6324   -6294    6291      20
    6282    6324    6294    6297      20    6282    6324    6321    6309      21
    6276    6273   -6267    6327      26    6276    6273   -6267    6327      27
    6276    6282    6285    6291      22    6276    6282    6324    6294      24
    6276    6282    6324    6321      24    6276    6333    6327    6345      10
    6273    6267   -6327    6333      10    6273    6267    6327    6345       4
    6273    6267   -6327    6345       5    6273    6276    6282    6285      28
    6273    6276   -6282    6285      29    6273    6276   -6282    6285      30
    6273    6276   -6282    6285      31    6273    6276    6282    6324      14
    6273    6276   -6333    6327      10    6273    6276    6333    6339       4
    6273    6276   -6333    6339       5    6267    6273    6276    6282      32
    6267    6273   -6276    6282      27    6267    6273   -6276    6333      26
    6267    6273   -6276    6333      27    6267    6327   -6333    6276      33
    6267    6327   -6333    6276      34    6267    6327   -6333    6276      35
    6267    6327    6333    6339      10    6267    6327    6345    6348       9
    6258    6267    6273    6276      26    6258    6267   -6273    6276      27
    6258    6267    6327    6333      33    6258    6267   -6327    6333      34
    6258    6267   -6327    6333      35    6258    6267    6327    6345      10
    6255    6258    6267    6273      10    6255    6258    6267    6327      36
    6255    6258   -6267    6327      37    6255    6258   -6267    6327      38
    6252    6246    6255    6258      12    6249    6246    6255    6258      12
    6246    6255    6258    6267       9    6435    6438    6447    6450       1
    6435    6438   -6447    6450       2    6435    6438   -6447    6450       3
    6429    6423    6417    6435       4    6429    6423   -6417    6435       5
    6423    6417    6435    6438       9    6417    6435    6438    6441      12
    6417    6435    6438    6444      12    6417    6435    6438    6447      13
    6417    6435   -6438    6447      12    6411    6384    6378    6423      14
    6402    6399    6405    6411      19    6399    6405    6411    6414      19
    6393    6387    6384    6411      46    6393    6399   -6405    6411      19
    6387    6384    6378    6423      14    6387    6384    6411    6405      48
    6387    6384    6411    6414      48    6387    6393    6399    6402      45
    6387    6393   -6399    6402      49    6387    6393   -6399    6405      45
    6384    6378    6423    6417      10    6384    6378    6423    6429      10
    6384    6387    6393    6399      47    6384    6411   -6405    6399      19
    6378    6375   -6369    6417      26    6378    6375   -6369    6417      27
    6378    6384    6387    6393      46    6378    6384    6411    6405      48
    6378    6384    6411    6414      48    6378    6423    6417    6435      10
    6375    6369   -6417    6423      10    6375    6369    6417    6435       4
    6375    6369   -6417    6435       5    6375    6378    6384    6387      50
    6375    6378   -6384    6387      51    6375    6378   -6384    6387      52
    6375    6378   -6384    6387      53    6375    6378    6384    6411      14
    6375    6378   -6423    6417      10    6375    6378    6423    6429       4
    6375    6378   -6423    6429       5    6369    6375    6378    6384      32
    6369    6375   -6378    6384      27    6369    6375   -6378    6423      26
    6369    6375   -6378    6423      27    6369    6417   -6423    6378      33
    6369    6417   -6423    6378      34    6369    6417   -6423    6378      35
    6369    6417    6423    6429      10    6369    6417    6435    6438       9
    6360    6369    6375    6378      26    6360    6369   -6375    6378      27
    6360    6369    6417    6423      33    6360    6369   -6417    6423      34
    6360    6369   -6417    6423      35    6360    6369    6417    6435      10
    6357    6360    6369    6375      10    6357    6360    6369    6417      36
    6357    6360   -6369    6417      37    6357    6360   -6369    6417      38
    6354    6348    6357    6360      12    6351    6348    6357    6360      12
    6348    6357    6360    6369       9    6522    6516    6510    6528       4
    6522    6516   -6510    6528       5    6504    6474    6468    6516      14
    6492    6489    6501    6504      16    6489    6501    6504    6507      54
    6483    6477    6474    6504      46    6483    6489   -6501    6504      16
    6477    6474    6468    6516      14    6477    6474    6504    6501      48
    6477    6474    6504    6507      48    6477    6483    6489    6492      25
    6477    6483   -6489    6501      25    6474    6468    6516    6510      10
    6474    6468    6516    6522      10    6474    6477    6483    6489      47
    6474    6504   -6501    6489      54    6468    6465   -6459    6510      26
    6468    6465   -6459    6510      27    6468    6474    6477    6483      46
    6468    6474    6504    6501      48    6468    6474    6504    6507      48
    6468    6516    6510    6528      10    6465    6459   -6510    6516      10
    6465    6459    6510    6528       4    6465    6459   -6510    6528       5
    6465    6468    6474    6477      55    6465    6468   -6474    6477      56
    6465    6468   -6474    6477      57    6465    6468   -6474    6477      58
    6465    6468    6474    6504      14    6465    6468   -6516    6510      10
    6465    6468    6516    6522       4    6465    6468   -6516    6522       5
    6459    6465    6468    6474      32    6459    6465   -6468    6474      27
    6459    6465   -6468    6516      26    6459    6465   -6468    6516      27
    6459    6510   -6516    6468      33    6459    6510   -6516    6468      34
    6459    6510   -6516    6468      35    6459    6510    6516    6522      10
    6450    6459    6465    6468      26    6450    6459   -6465    6468      27
    6450    6459    6510    6516      33    6450    6459   -6510    6516      34
    6450    6459   -6510    6516      35    6450    6459    6510    6528      10
    6447    6450    6459    6465      10    6447    6450    6459    6510      36
    6447    6450   -6459    6510      37    6447    6450   -6459    6510      38
    6444    6438    6447    6450      12    6441    6438    6447    6450      12
    6438    6447    6450    6459       9    6975    6972   -6969    6981      54
    6972    6969   -6981    6978      22    6972    6975   -6978    6981      61
    6969    6972   -6975    6978      61    6969    6981   -6978    6975      22
    6966    6969    6972    6975      54    6966    6969    6981    6978      22
    6954    6951    6948    6963      59    6954    6957   -6960    6963      59
    6951    6948    6963    6960      59    6951    6954   -6957    6960      59
    6948    6951    6954    6957      59    6948    6963   -6960    6957      59
    6945    6948    6951    6954      59    6945    6948    6963    6960      59
    6942    6939    6936    6966      62    6942    6945    6948    6951      14
    6942    6945    6948    6963      14    6939    6936    6966    6969      61
    6939    6942    6945    6948       9    6936    6933    6930    6972      60
    6936    6939    6942    6945      63    6936    6966   -6969    6972      61
    6936    6966    6969    6981      61    6933    6930    6972    6969      64
    6933    6930    6972    6975      64    6933    6936    6939    6942      62
    6933    6936   -6966    6969      61    6930    6933    6936    6939      24
    6930    6933    6936    6966      24    6930    6972   -6969    6966      54
    6930    6972    6969    6981      54    6930    6972    6975    6978      61
    6927    6930    6933    6936      60    6927    6930    6972    6969      64
    6927    6930    6972    6975      64      30      42     -72     -69      66
      60      51     -57     -69      68      42      51     -45     -48      69
      39      45     -42     -72      66      72      33     -30     -24      67
     144     132    -174    -171      66     162     153    -159    -171      68
     144     153    -147    -150      69     147     174    -144    -141      66
     174     135    -132    -126      67     246     234    -273    -270      66
     246     252    -249    -261      68     243     249    -246    -273      66
     273     237    -234    -228      67     333     354    -360    -363      69
     342     354    -348    -351      69     360     336    -333    -327      67
     423     450    -453    -456      69     432     441    -438    -450      68
     453     426    -423    -417      67     528     516    -555    -552      66
     528     534    -531    -543      68     531     555    -528    -525      66
     519     555    -516    -510      67     615     636    -642    -645      69
     624     636    -630    -633      69     642     618    -615    -609      67
     717     705    -744    -741      66     717     723    -720    -732      68
     720     744    -717    -714      66     708     744    -705    -699      67
     804     825    -831    -834      69     813     825    -819    -822      69
     831     807    -804    -798      67     906     894    -933    -930      66
     906     912    -909    -921      68     909     933    -906    -903      66
     897     933    -894    -888      67    1005     993   -1032   -1029      66
    1005    1011   -1008   -1020      68    1008    1032   -1005   -1002      66
     996    1032    -993    -987      67    1092    1113   -1119   -1122      69
    1101    1113   -1107   -1110      69    1119    1095   -1092   -1086      67
    1182    1209   -1212   -1215      69    1191    1200   -1197   -1209      68
    1212    1185   -1182   -1176      67    1287    1275   -1317   -1314      66
    1305    1296   -1302   -1314      68    1287    1296   -1290   -1293      69
    1290    1317   -1287   -1284      66    1317    1278   -1275   -1269      67
    1377    1404   -1407   -1410      69    1386    1395   -1392   -1404      68
    1407    1380   -1377   -1371      67    1482    1470   -1512   -1509      66
    1500    1491   -1497   -1509      68    1482    1491   -1485   -1488      69
    1485    1512   -1482   -1479      66    1512    1473   -1470   -1464      67
    1572    1593   -1599   -1602      69    1581    1593   -1587   -1590      69
    1599    1575   -1572   -1566      67    1674    1662   -1704   -1701      66
    1692    1683   -1689   -1701      68    1674    1683   -1677   -1680      69
    1677    1704   -1674   -1671      66    1704    1665   -1662   -1656      67
    1776    1764   -1806   -1803      66    1794    1785   -1791   -1803      68
    1776    1785   -1779   -1782      69    1779    1806   -1776   -1773      66
    1806    1767   -1764   -1758      67    1878    1866   -1905   -1902      66
    1878    1884   -1881   -1893      68    1881    1905   -1878   -1875      66
    1869    1905   -1866   -1860      67    1965    1986   -1992   -1995      69
    1974    1986   -1980   -1983      69    1992    1968   -1965   -1959      67
    2067    2055   -2094   -2091      66    2067    2073   -2070   -2082      68
    2070    2094   -2067   -2064      66    2058    2094   -2055   -2049      67
    2154    2175   -2181   -2184      69    2163    2175   -2169   -2172      69
    2181    2157   -2154   -2148      67    2256    2244   -2286   -2283      66
    2274    2265   -2271   -2283      68    2256    2265   -2259   -2262      69
    2259    2286   -2256   -2253      66    2286    2247   -2244   -2238      67
    2358    2346   -2388   -2385      66    2376    2367   -2373   -2385      68
    2358    2367   -2361   -2364      69    2361    2388   -2358   -2355      66
    2388    2349   -2346   -2340      67    2448    2475   -2478   -2481      69
    2457    2466   -2463   -2475      68    2478    2451   -2448   -2442      67
    2553    2541   -2580   -2577      66    2553    2559   -2556   -2568      68
    2556    2580   -2553   -2550      66    2544    2580   -2541   -2535      67
    2640    2667   -2670   -2673      69    2649    2658   -2655   -2667      68
    2670    2643   -2640   -2634      67    2745    2733   -2775   -2772      66
    2763    2754   -2760   -2772      68    2745    2754   -2748   -2751      69
    2748    2775   -2745   -2742      66    2775    2736   -2733   -2727      67
    2835    2862   -2865   -2868      69    2844    2853   -2850   -2862      68
    2865    2838   -2835   -2829      67    2940    2928   -2967   -2964      66
    2940    2946   -2943   -2955      68    2943    2967   -2940   -2937      66
    2931    2967   -2928   -2922      67    3039    3027   -3066   -3063      66
    3039    3045   -3042   -3054      68    3042    3066   -3039   -3036      66
    3030    3066   -3027   -3021      67    3138    3126   -3168   -3165      66
    3156    3147   -3153   -3165      68    3138    3147   -3141   -3144      69
    3141    3168   -3138   -3135      66    3168    3129   -3126   -3120      67
    3228    3249   -3255   -3258      69    3237    3249   -3243   -3246      69
    3255    3231   -3228   -3222      67    3318    3339   -3345   -3348      69
    3327    3339   -3333   -3336      69    3345    3321   -3318   -3312      67
    3408    3429   -3435   -3438      69    3417    3429   -3423   -3426      69
    3435    3411   -3408   -3402      67    3498    3525   -3528   -3531      69
    3507    3516   -3513   -3525      68    3528    3501   -3498   -3492      67
    3591    3612   -3618   -3621      69    3600    3612   -3606   -3609      69
    3618    3594   -3591   -3585      67    3693    3681   -3720   -3717      66
    3693    3699   -3696   -3708      68    3696    3720   -3693   -3690      66
    3684    3720   -3681   -3675      67    3780    3807   -3810   -3813      69
    3789    3798   -3795   -3807      68    3810    3783   -3780   -3774      67
    3873    3900   -3903   -3906      69    3882    3891   -3888   -3900      68
    3903    3876   -3873   -3867      67    3978    3966   -4008   -4005      66
    3996    3987   -3993   -4005      68    3978    3987   -3981   -3984      69
    3981    4008   -3978   -3975      66    4008    3969   -3966   -3960      67
    4080    4068   -4110   -4107      66    4098    4089   -4095   -4107      68
    4080    4089   -4083   -4086      69    4083    4110   -4080   -4077      66
    4110    4071   -4068   -4062      67    4182    4170   -4212   -4209      66
    4200    4191   -4197   -4209      68    4182    4191   -4185   -4188      69
    4185    4212   -4182   -4179      66    4212    4173   -4170   -4164      67
    4272    4299   -4302   -4305      69    4281    4290   -4287   -4299      68
    4302    4275   -4272   -4266      67    4377    4365   -4404   -4401      66
    4377    4383   -4380   -4392      68    4380    4404   -4377   -4374      66
    4368    4404   -4365   -4359      67    4464    4491   -4494   -4497      69
    4473    4482   -4479   -4491      68    4494    4467   -4464   -4458      67
    4557    4584   -4587   -4590      69    4566    4575   -4572   -4584      68
    4587    4560   -4557   -4551      67    4662    4650   -4692   -4689      66
    4680    4671   -4677   -4689      68    4662    4671   -4665   -4668      69
    4665    4692   -4662   -4659      66    4692    4653   -4650   -4644      67
    4752    4773   -4779   -4782      69    4761    4773   -4767   -4770      69
    4779    4755   -4752   -4746      67    4854    4842   -4881   -4878      66
    4854    4860   -4857   -4869      68    4857    4881   -4854   -4851      66
    4845    4881   -4842   -4836      67    4953    4941   -4980   -4977      66
    4953    4959   -4956   -4968      68    4956    4980   -4953   -4950      66
    4944    4980   -4941   -4935      67    5052    5040   -5079   -5076      66
    5052    5058   -5055   -5067      68    5055    5079   -5052   -5049      66
    5043    5079   -5040   -5034      67    5139    5160   -5166   -5169      69
    5148    5160   -5154   -5157      69    5166    5142   -5139   -5133      67
    5241    5229   -5271   -5268      66    5259    5250   -5256   -5268      68
    5241    5250   -5244   -5247      69    5244    5271   -5241   -5238      66
    5271    5232   -5229   -5223      67    5331    5352   -5358   -5361      69
    5340    5352   -5346   -5349      69    5358    5334   -5331   -5325      67
    5421    5448   -5451   -5454      69    5430    5439   -5436   -5448      68
    5451    5424   -5421   -5415      67    5514    5541   -5544   -5547      69
    5523    5532   -5529   -5541      68    5544    5517   -5514   -5508      67
    5619    5607   -5649   -5646      66    5637    5628   -5634   -5646      68
    5619    5628   -5622   -5625      69    5622    5649   -5619   -5616      66
    5649    5610   -5607   -5601      67    5721    5709   -5748   -5745      66
    5721    5727   -5724   -5736      68    5724    5748   -5721   -5718      66
    5712    5748   -5709   -5703      67    5808    5835   -5838   -5841      69
    5817    5826   -5823   -5835      68    5838    5811   -5808   -5802      67
    5901    5922   -5928   -5931      69    5910    5922   -5916   -5919      69
    5928    5904   -5901   -5895      67    6003    5991   -6030   -6027      66
    6003    6009   -6006   -6018      68    6006    6030   -6003   -6000      66
    5994    6030   -5991   -5985      67    6090    6111   -6117   -6120      69
    6099    6111   -6105   -6108      69    6117    6093   -6090   -6084      67
    6192    6180   -6222   -6219      66    6210    6201   -6207   -6219      68
    6192    6201   -6195   -6198      69    6195    6222   -6192   -6189      66
    6222    6183   -6180   -6174      67    6294    6282   -6324   -6321      66
    6312    6303   -6309   -6321      68    6294    6303   -6297   -6300      69
    6297    6324   -6294   -6291      66    6324    6285   -6282   -6276      67
    6384    6405   -6411   -6414      69    6393    6405   -6399   -6402      69
    6411    6387   -6384   -6378      67    6474    6501   -6504   -6507      69
    6483    6492   -6489   -6501      68    6504    6477   -6474   -6468      67
    6930    6969   -6972   -6975      68    6972    6981   -6969   -6966      68
    6951    6963   -6948   -6945      68    6966    6933   -6936   -6939      68
    6972    6933   -6930   -6927      69
%FLAG EXCLUDED_ATOMS_LIST                                                       
%FORMAT(10I8)                                                                   
       2       3       4       5       6       3       4       5       6       7
       8      26       4       5       6       7       8       9      26      27
      28      32       5       6       7       8      26       6       7       8
      26       7       8       9      10      11      26      27      28      29
      30      32      33       8       9      26      27      28      32       9
      10      11      12      25      26      27      28      29      30      32
      10      11      12      13      14      15      24      25      26      27
      28      29      30      31      32      11      12      25      26      28
      29      30      12      13      14      15      16      20      24      25
      26      28      29      30      13      14      15      16      24      25
      28      14      15      25      15      16      17      18      24      25
      16      17      18      19      20      24      25      17      18      19
      20      21      24      25      18      19      20      25      19      20
      21      22      23      24      25      20      21      24      21      22
      23      24      25      22      23      24      25      23      24      24
      25      28      27      28      29      30      31      32      33      34
      35      36      28      29      30      32      33      29      30      31
      32      33      30      31      32      31      32       0      33      34
      35      36      37      34      35      36      37      38      39      40
      35      36      37      36      37      37      38      39      40      41
      42      60      38      39      40      41      42      43      60      61
      62      66      39      40      41      42      60      40      41      42
      60      41      42      43      44      45      60      61      62      63
      64      66      67      42      43      60      61      62      66      43
      44      45      46      59      60      61      62      63      64      66
      44      45      46      47      48      49      58      59      60      61
      62      63      64      65      66      45      46      59      60      62
      63      64      46      47      48      49      50      54      58      59
      60      62      63      64      47      48      49      50      58      59
      62      48      49      59      49      50      51      52      58      59
      50      51      52      53      54      58      59      51      52      53
      54      55      58      59      52      53      54      59      53      54
      55      56      57      58      59      54      55      58      55      56
      57      58      59      56      57      58      59      57      58      58
      59      62      61      62      63      64      65      66      67      68
      69      70      62      63      64      66      67      63      64      65
      66      67      64      65      66      65      66       0      67      68
      69      70      71      68      69      70      71      72      73      74
      69      70      71      70      71      71      72      73      74      75
      76      93      72      73      74      75      76      77      93      94
      95      99      73      74      75      76      93      74      75      76
      93      75      76      77      78      79      93      94      95      96
      97      99     100      76      77      93      94      95      99      77
      78      79      80      92      93      94      95      96      97      99
      78      79      80      81      82      83      91      92      93      94
      95      96      97      98      99      79      80      92      93      95
      96      97      80      81      82      83      84      89      91      92
      93      95      96      97      81      82      83      84      91      92
      95      82      83      92      83      84      85      88      91      92
      84      85      86      87      88      89      91      92      85      86
      87      88      89      90      91      92      86      87      88      89
      92      87      88      88      89      90      91      92      90      91
      92      91      92      92      95      94      95      96      97      98
      99     100     101     102     103      95      96      97      99     100
      96      97      98      99     100      97      98      99      98      99
       0     100     101     102     103     104     101     102     103     104
     105     106     107     102     103     104     103     104     104     105
     106     107     108     109     123     105     106     107     108     109
     110     123     124     125     129     106     107     108     109     123
     107     108     109     123     108     109     110     111     112     123
     124     125     126     127     129     130     109     110     123     124
     125     129     110     111     112     113     121     123     124     125
     126     127     129     111     112     113     114     115     119     121
     122     123     124     125     126     127     128     129     112     113
     121     123     125     126     127     113     114     115     116     117
     119     120     121     122     123     125     126     127     114     115
     116     117     118     119     121     122     125     115     116     117
     121     116     117     118     119     120     121     117     118     119
     118     119     120     121     122     119     120     121     120     121
     122     121     122     122     125       0     124     125     126     127
     128     129     130     131     132     133     125     126     127     129
     130     126     127     128     129     130     127     128     129     128
     129       0     130     131     132     133     134     131     132     133
     134     135     136     137     132     133     134     133     134     134
     135     136     137     138     139     154     135     136     137     138
     139     140     154     155     156     160     136     137     138     139
     154     137     138     139     154     138     139     140     141     142
     154     155     156     157     158     160     161     139     140     154
     155     156     160     140     141     142     143     152     154     155
     156     157     158     160     141     142     143     144     145     151
     152     153     154     155     156     157     158     159     160     142
     143     152     154     156     157     158     143     144     145     146
     147     151     152     153     154     156     157     158     144     145
     146     147     148     151     152     153     156     145     146     147
     152     146     147     148     149     150     151     152     147     148
     151     148     149     150     151     152     153     149     150     151
     152     150     151     151     152     153     153     156       0     155
     156     157     158     159     160     161     162     163     164     156
     157     158     160     161     157     158     159     160     161     158
     159     160     159     160       0     161     162     163     164     165
     162     163     164     165     166     167     168     163     164     165
     164     165     165     166     167     168     169     170     187     166
     167     168     169     170     171     187     188     189     193     167
     168     169     170     187     168     169     170     187     169     170
     171     172     173     187     188     189     190     191     193     194
     170     171     187     188     189     193     171     172     173     174
     186     187     188     189     190     191     193     172     173     174
     175     176     177     185     186     187     188     189     190     191
     192     193     173     174     186     187     189     190     191     174
     175     176     177     178     183     185     186     187     189     190
     191     175     176     177     178     185     186     189     176     177
     186     177     178     179     182     185     186     178     179     180
     181     182     183     185     186     179     180     181     182     183
     184     185     186     180     181     182     183     186     181     182
     182     183     184     185     186     184     185     186     185     186
     186     189     188     189     190     191     192     193     194     195
     196     197     189     190     191     193     194     190     191     192
     193     194     191     192     193     192     193       0     194     195
     196     197     198     195     196     197     198     199     200     201
     196     197     198     197     198     198     199     200     201     202
     203     217     199     200     201     202     203     204     217     218
     219     223     200     201     202     203     217     201     202     203
     217     202     203     204     205     206     217     218     219     220
     221     223     224     203     204     217     218     219     223     204
     205     206     207     215     217     218     219     220     221     223
     205     206     207     208     209     213     215     216     217     218
     219     220     221     222     223     206     207     215     217     219
     220     221     207     208     209     210     211     213     214     215
     216     217     219     220     221     208     209     210     211     212
     213     215     216     219     209     210     211     215     210     211
     212     213     214     215     211     212     213     212     213     214
     215     216     213     214     215     214     215     216     215     216
     216     219       0     218     219     220     221     222     223     224
     225     226     227     219     220     221     223     224     220     221
     222     223     224     221     222     223     222     223       0     224
     225     226     227     228     225     226     227     228     229     230
     231     226     227     228     227     228     228     229     230     231
     232     233     250     229     230     231     232     233     234     250
     251     252     256     230     231     232     233     250     231     232
     233     250     232     233     234     235     236     250     251     252
     253     254     256     257     233     234     250     251     252     256
     234     235     236     237     249     250     251     252     253     254
     256     235     236     237     238     239     240     248     249     250
     251     252     253     254     255     256     236     237     249     250
     252     253     254     237     238     239     240     241     246     248
     249     250     252     253     254     238     239     240     241     248
     249     252     239     240     249     240     241     242     245     248
     249     241     242     243     244     245     246     248     249     242
     243     244     245     246     247     248     249     243     244     245
     246     249     244     245     245     246     247     248     249     247
     248     249     248     249     249     252     251     252     253     254
     255     256     257     258     259     260     252     253     254     256
     257     253     254     255     256     257     254     255     256     255
     256       0     257     258     259     260     261     258     259     260
     261     262     263     264     259     260     261     260     261     261
     262     263     264     265     266     280     262     263     264     265
     266     267     280     281     282     286     263     264     265     266
     280     264     265     266     280     265     266     267     268     269
     280     281     282     283     284     286     287     266     267     280
     281     282     286     267     268     269     270     278     280     281
     282     283     284     286     268     269     270     271     272     276
     278     279     280     281     282     283     284     285     286     269
     270     278     280     282     283     284     270     271     272     273
     274     276     277     278     279     280     282     283     284     271
     272     273     274     275     276     278     279     282     272     273
     274     278     273     274     275     276     277     278     274     275
     276     275     276     277     278     279     276     277     278     277
     278     279     278     279     279     282       0     281     282     283
     284     285     286     287     288     289     290     282     283     284
     286     287     283     284     285     286     287     284     285     286
     285     286       0     287     288     289     290     291     288     289
     290     291     292     293     294     289     290     291     290     291
     291     292     293     294     295     296     313     292     293     294
     295     296     297     313     314     315     319     293     294     295
     296     313     294     295     296     313     295     296     297     298
     299     313     314     315     316     317     319     320     296     297
     313     314     315     319     297     298     299     300     312     313
     314     315     316     317     319     298     299     300     301     302
     303     311     312     313     314     315     316     317     318     319
     299     300     312     313     315     316     317     300     301     302
     303     304     309     311     312     313     315     316     317     301
     302     303     304     311     312     315     302     303     312     303
     304     305     308     311     312     304     305     306     307     308
     309     311     312     305     306     307     308     309     310     311
     312     306     307     308     309     312     307     308     308     309
     310     311     312     310     311     312     311     312     312     315
     314     315     316     317     318     319     320     321     322     323
     315     316     317     319     320     316     317     318     319     320
     317     318     319     318     319       0     320     321     322     323
     324     321     322     323     324     325     326     327     322     323
     324     323     324     324     325     326     327     328     329     346
     325     326     327     328     329     330     346     347     348     352
     326     327     328     329     346     327     328     329     346     328
     329     330     331     332     346     347     348     349     350     352
     353     329     330     346     347     348     352     330     331     332
     333     345     346     347     348     349     350     352     331     332
     333     334     335     336     344     345     346     347     348     349
     350     351     352     332     333     345     346     348     349     350
     333     334     335     336     337     342     344     345     346     348
     349     350     334     335     336     337     344     345     348     335
     336     345     336     337     338     341     344     345     337     338
     339     340     341     342     344     345     338     339     340     341
     342     343     344     345     339     340     341     342     345     340
     341     341     342     343     344     345     343     344     345     344
     345     345     348     347     348     349     350     351     352     353
     354     355     356     348     349     350     352     353     349     350
     351     352     353     350     351     352     351     352       0     353
     354     355     356     357     354     355     356     357     358     359
     360     355     356     357     356     357     357     358     359     360
     361     362     376     358     359     360     361     362     363     376
     377     378     382     359     360     361     362     376     360     361
     362     376     361     362     363     364     365     376     377     378
     379     380     382     383     362     363     376     377     378     382
     363     364     365     366     374     376     377     378     379     380
     382     364     365     366     367     368     372     374     375     376
     377     378     379     380     381     382     365     366     374     376
     378     379     380     366     367     368     369     370     372     373
     374     375     376     378     379     380     367     368     369     370
     371     372     374     375     378     368     369     370     374     369
     370     371     372     373     374     370     371     372     371     372
     373     374     375     372     373     374     373     374     375     374
     375     375     378       0     377     378     379     380     381     382
     383     384     385     386     378     379     380     382     383     379
     380     381     382     383     380     381     382     381     382       0
     383     384     385     386     387     384     385     386     387     388
     389     390     385     386     387     386     387     387     388     389
     390     391     392     407     388     389     390     391     392     393
     407     408     409     413     389     390     391     392     407     390
     391     392     407     391     392     393     394     395     407     408
     409     410     411     413     414     392     393     407     408     409
     413     393     394     395     396     405     407     408     409     410
     411     413     394     395     396     397     398     404     405     406
     407     408     409     410     411     412     413     395     396     405
     407     409     410     411     396     397     398     399     400     404
     405     406     407     409     410     411     397     398     399     400
     401     404     405     406     409     398     399     400     405     399
     400     401     402     403     404     405     400     401     404     401
     402     403     404     405     406     402     403     404     405     403
     404     404     405     406     406     409       0     408     409     410
     411     412     413     414     415     416     417     409     410     411
     413     414     410     411     412     413     414     411     412     413
     412     413       0     414     415     416     417     418     415     416
     417     418     419     420     421     416     417     418     417     418
     418     419     420     421     422     423     441     419     420     421
     422     423     424     441     442     443     447     420     421     422
     423     441     421     422     423     441     422     423     424     425
     426     441     442     443     444     445     447     448     423     424
     441     442     443     447     424     425     426     427     440     441
     442     443     444     445     447     425     426     427     428     429
     430     439     440     441     442     443     444     445     446     447
     426     427     440     441     443     444     445     427     428     429
     430     431     435     439     440     441     443     444     445     428
     429     430     431     439     440     443     429     430     440     430
     431     432     433     439     440     431     432     433     434     435
     439     440     432     433     434     435     436     439     440     433
     434     435     440     434     435     436     437     438     439     440
     435     436     439     436     437     438     439     440     437     438
     439     440     438     439     439     440     443     442     443     444
     445     446     447     448     449     450     451     443     444     445
     447     448     444     445     446     447     448     445     446     447
     446     447       0     448     449     450     451     452     449     450
     451     452     453     454     455     450     451     452     451     452
     452     453     454     455     456     457     472     453     454     455
     456     457     458     472     473     474     478     454     455     456
     457     472     455     456     457     472     456     457     458     459
     460     472     473     474     475     476     478     479     457     458
     472     473     474     478     458     459     460     461     470     472
     473     474     475     476     478     459     460     461     462     463
     469     470     471     472     473     474     475     476     477     478
     460     461     470     472     474     475     476     461     462     463
     464     465     469     470     471     472     474     475     476     462
     463     464     465     466     469     470     471     474     463     464
     465     470     464     465     466     467     468     469     470     465
     466     469     466     467     468     469     470     471     467     468
     469     470     468     469     469     470     471     471     474       0
     473     474     475     476     477     478     479     480     481     482
     474     475     476     478     479     475     476     477     478     479
     476     477     478     477     478       0     479     480     481     482
     483     480     481     482     483     484     485     486     481     482
     483     482     483     483     484     485     486     487     488     506
     484     485     486     487     488     489     506     507     508     512
     485     486     487     488     506     486     487     488     506     487
     488     489     490     491     506     507     508     509     510     512
     513     488     489     506     507     508     512     489     490     491
     492     505     506     507     508     509     510     512     490     491
     492     493     494     495     504     505     506     507     508     509
     510     511     512     491     492     505     506     508     509     510
     492     493     494     495     496     500     504     505     506     508
     509     510     493     494     495     496     504     505     508     494
     495     505     495     496     497     498     504     505     496     497
     498     499     500     504     505     497     498     499     500     501
     504     505     498     499     500     505     499     500     501     502
     503     504     505     500     501     504     501     502     503     504
     505     502     503     504     505     503     504     504     505     508
     507     508     509     510     511     512     513     514     515     516
     508     509     510     512     513     509     510     511     512     513
     510     511     512     511     512       0     513     514     515     516
     517     514     515     516     517     518     519     520     515     516
     517     516     517     517     518     519     520     521     522     536
     518     519     520     521     522     523     536     537     538     542
     519     520     521     522     536     520     521     522     536     521
     522     523     524     525     536     537     538     539     540     542
     543     522     523     536     537     538     542     523     524     525
     526     534     536     537     538     539     540     542     524     525
     526     527     528     532     534     535     536     537     538     539
     540     541     542     525     526     534     536     538     539     540
     526     527     528     529     530     532     533     534     535     536
     538     539     540     527     528     529     530     531     532     534
     535     538     528     529     530     534     529     530     531     532
     533     534     530     531     532     531     532     533     534     535
     532     533     534     533     534     535     534     535     535     538
       0     537     538     539     540     541     542     543     544     545
     546     538     539     540     542     543     539     540     541     542
     543     540     541     542     541     542       0     543     544     545
     546     547     544     545     546     547     548     549     550     545
     546     547     546     547     547     548     549     550     551     552
     570     548     549     550     551     552     553     570     571     572
     576     549     550     551     552     570     550     551     552     570
     551     552     553     554     555     570     571     572     573     574
     576     577     552     553     570     571     572     576     553     554
     555     556     569     570     571     572     573     574     576     554
     555     556     557     558     559     568     569     570     571     572
     573     574     575     576     555     556     569     570     572     573
     574     556     557     558     559     560     564     568     569     570
     572     573     574     557     558     559     560     568     569     572
     558     559     569     559     560     561     562     568     569     560
     561     562     563     564     568     569     561     562     563     564
     565     568     569     562     563     564     569     563     564     565
     566     567     568     569     564     565     568     565     566     567
     568     569     566     567     568     569     567     568     568     569
     572     571     572     573     574     575     576     577     578     579
     580     572     573     574     576     577     573     574     575     576
     577     574     575     576     575     576       0     577     578     579
     580     581     578     579     580     581     582     583     584     579
     580     581     580     581     581     582     583     584     585     586
     604     582     583     584     585     586     587     604     605     606
     610     583     584     585     586     604     584     585     586     604
     585     586     587     588     589     604     605     606     607     608
     610     611     586     587     604     605     606     610     587     588
     589     590     603     604     605     606     607     608     610     588
     589     590     591     592     593     602     603     604     605     606
     607     608     609     610     589     590     603     604     606     607
     608     590     591     592     593     594     598     602     603     604
     606     607     608     591     592     593     594     602     603     606
     592     593     603     593     594     595     596     602     603     594
     595     596     597     598     602     603     595     596     597     598
     599     602     603     596     597     598     603     597     598     599
     600     601     602     603     598     599     602     599     600     601
     602     603     600     601     602     603     601     602     602     603
     606     605     606     607     608     609     610     611     612     613
     614     606     607     608     610     611     607     608     609     610
     611     608     609     610     609     610       0     611     612     613
     614     615     612     613     614     615     616     617     618     613
     614     615     614     615     615     616     617     618     619     620
     637     616     617     618     619     620     621     637     638     639
     643     617     618     619     620     637     618     619     620     637
     619     620     621     622     623     637     638     639     640     641
     643     644     620     621     637     638     639     643     621     622
     623     624     636     637     638     639     640     641     643     622
     623     624     625     626     627     635     636     637     638     639
     640     641     642     643     623     624     636     637     639     640
     641     624     625     626     627     628     633     635     636     637
     639     640     641     625     626     627     628     635     636     639
     626     627     636     627     628     629     632     635     636     628
     629     630     631     632     633     635     636     629     630     631
     632     633     634     635     636     630     631     632     633     636
     631     632     632     633     634     635     636     634     635     636
     635     636     636     639     638     639     640     641     642     643
     644     645     646     647     639     640     641     643     644     640
     641     642     643     644     641     642     643     642     643       0
     644     645     646     647     648     645     646     647     648     649
     650     651     646     647     648     647     648     648     649     650
     651     652     653     667     649     650     651     652     653     654
     667     668     669     673     650     651     652     653     667     651
     652     653     667     652     653     654     655     656     667     668
     669     670     671     673     674     653     654     667     668     669
     673     654     655     656     657     665     667     668     669     670
     671     673     655     656     657     658     659     663     665     666
     667     668     669     670     671     672     673     656     657     665
     667     669     670     671     657     658     659     660     661     663
     664     665     666     667     669     670     671     658     659     660
     661     662     663     665     666     669     659     660     661     665
     660     661     662     663     664     665     661     662     663     662
     663     664     665     666     663     664     665     664     665     666
     665     666     666     669       0     668     669     670     671     672
     673     674     675     676     677     669     670     671     673     674
     670     671     672     673     674     671     672     673     672     673
       0     674     675     676     677     678     675     676     677     678
     679     680     681     676     677     678     677     678     678     679
     680     681     682     683     700     679     680     681     682     683
     684     700     701     702     706     680     681     682     683     700
     681     682     683     700     682     683     684     685     686     700
     701     702     703     704     706     707     683     684     700     701
     702     706     684     685     686     687     699     700     701     702
     703     704     706     685     686     687     688     689     690     698
     699     700     701     702     703     704     705     706     686     687
     699     700     702     703     704     687     688     689     690     691
     696     698     699     700     702     703     704     688     689     690
     691     698     699     702     689     690     699     690     691     692
     695     698     699     691     692     693     694     695     696     698
     699     692     693     694     695     696     697     698     699     693
     694     695     696     699     694     695     695     696     697     698
     699     697     698     699     698     699     699     702     701     702
     703     704     705     706     707     708     709     710     702     703
     704     706     707     703     704     705     706     707     704     705
     706     705     706       0     707     708     709     710     711     708
     709     710     711     712     713     714     709     710     711     710
     711     711     712     713     714     715     716     730     712     713
     714     715     716     717     730     731     732     736     713     714
     715     716     730     714     715     716     730     715     716     717
     718     719     730     731     732     733     734     736     737     716
     717     730     731     732     736     717     718     719     720     728
     730     731     732     733     734     736     718     719     720     721
     722     726     728     729     730     731     732     733     734     735
     736     719     720     728     730     732     733     734     720     721
     722     723     724     726     727     728     729     730     732     733
     734     721     722     723     724     725     726     728     729     732
     722     723     724     728     723     724     725     726     727     728
     724     725     726     725     726     727     728     729     726     727
     728     727     728     729     728     729     729     732       0     731
     732     733     734     735     736     737     738     739     740     732
     733     734     736     737     733     734     735     736     737     734
     735     736     735     736       0     737     738     739     740     741
     738     739     740     741     742     743     744     739     740     741
     740     741     741     742     743     744     745     746     764     742
     743     744     745     746     747     764     765     766     770     743
     744     745     746     764     744     745     746     764     745     746
     747     748     749     764     765     766     767     768     770     771
     746     747     764     765     766     770     747     748     749     750
     763     764     765     766     767     768     770     748     749     750
     751     752     753     762     763     764     765     766     767     768
     769     770     749     750     763     764     766     767     768     750
     751     752     753     754     758     762     763     764     766     767
     768     751     752     753     754     762     763     766     752     753
     763     753     754     755     756     762     763     754     755     756
     757     758     762     763     755     756     757     758     759     762
     763     756     757     758     763     757     758     759     760     761
     762     763     758     759     762     759     760     761     762     763
     760     761     762     763     761     762     762     763     766     765
     766     767     768     769     770     771     772     773     774     766
     767     768     770     771     767     768     769     770     771     768
     769     770     769     770       0     771     772     773     774     775
     772     773     774     775     776     777     778     773     774     775
     774     775     775     776     777     778     779     780     798     776
     777     778     779     780     781     798     799     800     804     777
     778     779     780     798     778     779     780     798     779     780
     781     782     783     798     799     800     801     802     804     805
     780     781     798     799     800     804     781     782     783     784
     797     798     799     800     801     802     804     782     783     784
     785     786     787     796     797     798     799     800     801     802
     803     804     783     784     797     798     800     801     802     784
     785     786     787     788     792     796     797     798     800     801
     802     785     786     787     788     796     797     800     786     787
     797     787     788     789     790     796     797     788     789     790
     791     792     796     797     789     790     791     792     793     796
     797     790     791     792     797     791     792     793     794     795
     796     797     792     793     796     793     794     795     796     797
     794     795     796     797     795     796     796     797     800     799
     800     801     802     803     804     805     806     807     808     800
     801     802     804     805     801     802     803     804     805     802
     803     804     803     804       0     805     806     807     808     809
     806     807     808     809     810     811     812     807     808     809
     808     809     809     810     811     812     813     814     829     810
     811     812     813     814     815     829     830     831     835     811
     812     813     814     829     812     813     814     829     813     814
     815     816     817     829     830     831     832     833     835     836
     814     815     829     830     831     835     815     816     817     818
     827     829     830     831     832     833     835     816     817     818
     819     820     826     827     828     829     830     831     832     833
     834     835     817     818     827     829     831     832     833     818
     819     820     821     822     826     827     828     829     831     832
     833     819     820     821     822     823     826     827     828     831
     820     821     822     827     821     822     823     824     825     826
     827     822     823     826     823     824     825     826     827     828
     824     825     826     827     825     826     826     827     828     828
     831       0     830     831     832     833     834     835     836     837
     838     839     831     832     833     835     836     832     833     834
     835     836     833     834     835     834     835       0     836     837
     838     839     840     837     838     839     840     841     842     843
     838     839     840     839     840     840     841     842     843     844
     845     862     841     842     843     844     845     846     862     863
     864     868     842     843     844     845     862     843     844     845
     862     844     845     846     847     848     862     863     864     865
     866     868     869     845     846     862     863     864     868     846
     847     848     849     861     862     863     864     865     866     868
     847     848     849     850     851     852     860     861     862     863
     864     865     866     867     868     848     849     861     862     864
     865     866     849     850     851     852     853     858     860     861
     862     864     865     866     850     851     852     853     860     861
     864     851     852     861     852     853     854     857     860     861
     853     854     855     856     857     858     860     861     854     855
     856     857     858     859     860     861     855     856     857     858
     861     856     857     857     858     859     860     861     859     860
     861     860     861     861     864     863     864     865     866     867
     868     869     870     871     872     864     865     866     868     869
     865     866     867     868     869     866     867     868     867     868
       0     869     870     871     872     873     870     871     872     873
     874     875     876     871     872     873     872     873     873     874
     875     876     877     878     893     874     875     876     877     878
     879     893     894     895     899     875     876     877     878     893
     876     877     878     893     877     878     879     880     881     893
     894     895     896     897     899     900     878     879     893     894
     895     899     879     880     881     882     891     893     894     895
     896     897     899     880     881     882     883     884     890     891
     892     893     894     895     896     897     898     899     881     882
     891     893     895     896     897     882     883     884     885     886
     890     891     892     893     895     896     897     883     884     885
     886     887     890     891     892     895     884     885     886     891
     885     886     887     888     889     890     891     886     887     890
     887     888     889     890     891     892     888     889     890     891
     889     890     890     891     892     892     895       0     894     895
     896     897     898     899     900     901     902     903     895     896
     897     899     900     896     897     898     899     900     897     898
     899     898     899       0     900     901     902     903     904     901
     902     903     904     905     906     907     902     903     904     903
     904     904     905     906     907     908     909     927     905     906
     907     908     909     910     927     928     929     933     906     907
     908     909     927     907     908     909     927     908     909     910
     911     912     927     928     929     930     931     933     934     909
     910     927     928     929     933     910     911     912     913     926
     927     928     929     930     931     933     911     912     913     914
     915     916     925     926     927     928     929     930     931     932
     933     912     913     926     927     929     930     931     913     914
     915     916     917     921     925     926     927     929     930     931
     914     915     916     917     925     926     929     915     916     926
     916     917     918     919     925     926     917     918     919     920
     921     925     926     918     919     920     921     922     925     926
     919     920     921     926     920     921     922     923     924     925
     926     921     922     925     922     923     924     925     926     923
     924     925     926     924     925     925     926     929     928     929
     930     931     932     933     934     935     936     937     929     930
     931     933     934     930     931     932     933     934     931     932
     933     932     933       0     934     935     936     937     938     935
     936     937     938     939     940     941     936     937     938     937
     938     938     939     940     941     942     943     958     939     940
     941     942     943     944     958     959     960     964     940     941
     942     943     958     941     942     943     958     942     943     944
     945     946     958     959     960     961     962     964     965     943
     944     958     959     960     964     944     945     946     947     956
     958     959     960     961     962     964     945     946     947     948
     949     955     956     957     958     959     960     961     962     963
     964     946     947     956     958     960     961     962     947     948
     949     950     951     955     956     957     958     960     961     962
     948     949     950     951     952     955     956     957     960     949
     950     951     956     950     951     952     953     954     955     956
     951     952     955     952     953     954     955     956     957     953
     954     955     956     954     955     955     956     957     957     960
       0     959     960     961     962     963     964     965     966     967
     968     960     961     962     964     965     961     962     963     964
     965     962     963     964     963     964       0     965     966     967
     968     969     966     967     968     969     970     971     972     967
     968     969     968     969     969     970     971     972     973     974
     991     970     971     972     973     974     975     991     992     993
     997     971     972     973     974     991     972     973     974     991
     973     974     975     976     977     991     992     993     994     995
     997     998     974     975     991     992     993     997     975     976
     977     978     990     991     992     993     994     995     997     976
     977     978     979     980     981     989     990     991     992     993
     994     995     996     997     977     978     990     991     993     994
     995     978     979     980     981     982     987     989     990     991
     993     994     995     979     980     981     982     989     990     993
     980     981     990     981     982     983     986     989     990     982
     983     984     985     986     987     989     990     983     984     985
     986     987     988     989     990     984     985     986     987     990
     985     986     986     987     988     989     990     988     989     990
     989     990     990     993     992     993     994     995     996     997
     998     999    1000    1001     993     994     995     997     998     994
     995     996     997     998     995     996     997     996     997       0
     998     999    1000    1001    1002     999    1000    1001    1002    1003
    1004    1005    1000    1001    1002    1001    1002    1002    1003    1004
    1005    1006    1007    1024    1003    1004    1005    1006    1007    1008
    1024    1025    1026    1030    1004    1005    1006    1007    1024    1005
    1006    1007    1024    1006    1007    1008    1009    1010    1024    1025
    1026    1027    1028    1030    1031    1007    1008    1024    1025    1026
    1030    1008    1009    1010    1011    1023    1024    1025    1026    1027
    1028    1030    1009    1010    1011    1012    1013    1014    1022    1023
    1024    1025    1026    1027    1028    1029    1030    1010    1011    1023
    1024    1026    1027    1028    1011    1012    1013    1014    1015    1020
    1022    1023    1024    1026    1027    1028    1012    1013    1014    1015
    1022    1023    1026    1013    1014    1023    1014    1015    1016    1019
    1022    1023    1015    1016    1017    1018    1019    1020    1022    1023
    1016    1017    1018    1019    1020    1021    1022    1023    1017    1018
    1019    1020    1023    1018    1019    1019    1020    1021    1022    1023
    1021    1022    1023    1022    1023    1023    1026    1025    1026    1027
    1028    1029    1030    1031    1032    1033    1034    1026    1027    1028
    1030    1031    1027    1028    1029    1030    1031    1028    1029    1030
    1029    1030       0    1031    1032    1033    1034    1035    1032    1033
    1034    1035    1036    1037    1038    1033    1034    1035    1034    1035
    1035    1036    1037    1038    1039    1040    1058    1036    1037    1038
    1039    1040    1041    1058    1059    1060    1064    1037    1038    1039
    1040    1058    1038    1039    1040    1058    1039    1040    1041    1042
    1043    1058    1059    1060    1061    1062    1064    1065    1040    1041
    1058    1059    1060    1064    1041    1042    1043    1044    1057    1058
    1059    1060    1061    1062    1064    1042    1043    1044    1045    1046
    1047    1056    1057    1058    1059    1060    1061    1062    1063    1064
    1043    1044    1057    1058    1060    1061    1062    1044    1045    1046
    1047    1048    1052    1056    1057    1058    1060    1061    1062    1045
    1046    1047    1048    1056    1057    1060    1046    1047    1057    1047
    1048    1049    1050    1056    1057    1048    1049    1050    1051    1052
    1056    1057    1049    1050    1051    1052    1053    1056    1057    1050
    1051    1052    1057    1051    1052    1053    1054    1055    1056    1057
    1052    1053    1056    1053    1054    1055    1056    1057    1054    1055
    1056    1057    1055    1056    1056    1057    1060    1059    1060    1061
    1062    1063    1064    1065    1066    1067    1068    1060    1061    1062
    1064    1065    1061    1062    1063    1064    1065    1062    1063    1064
    1063    1064       0    1065    1066    1067    1068    1069    1066    1067
    1068    1069    1070    1071    1072    1067    1068    1069    1068    1069
    1069    1070    1071    1072    1073    1074    1088    1070    1071    1072
    1073    1074    1075    1088    1089    1090    1094    1071    1072    1073
    1074    1088    1072    1073    1074    1088    1073    1074    1075    1076
    1077    1088    1089    1090    1091    1092    1094    1095    1074    1075
    1088    1089    1090    1094    1075    1076    1077    1078    1086    1088
    1089    1090    1091    1092    1094    1076    1077    1078    1079    1080
    1084    1086    1087    1088    1089    1090    1091    1092    1093    1094
    1077    1078    1086    1088    1090    1091    1092    1078    1079    1080
    1081    1082    1084    1085    1086    1087    1088    1090    1091    1092
    1079    1080    1081    1082    1083    1084    1086    1087    1090    1080
    1081    1082    1086    1081    1082    1083    1084    1085    1086    1082
    1083    1084    1083    1084    1085    1086    1087    1084    1085    1086
    1085    1086    1087    1086    1087    1087    1090       0    1089    1090
    1091    1092    1093    1094    1095    1096    1097    1098    1090    1091
    1092    1094    1095    1091    1092    1093    1094    1095    1092    1093
    1094    1093    1094       0    1095    1096    1097    1098    1099    1096
    1097    1098    1099    1100    1101    1102    1097    1098    1099    1098
    1099    1099    1100    1101    1102    1103    1104    1118    1100    1101
    1102    1103    1104    1105    1118    1119    1120    1124    1101    1102
    1103    1104    1118    1102    1103    1104    1118    1103    1104    1105
    1106    1107    1118    1119    1120    1121    1122    1124    1125    1104
    1105    1118    1119    1120    1124    1105    1106    1107    1108    1116
    1118    1119    1120    1121    1122    1124    1106    1107    1108    1109
    1110    1114    1116    1117    1118    1119    1120    1121    1122    1123
    1124    1107    1108    1116    1118    1120    1121    1122    1108    1109
    1110    1111    1112    1114    1115    1116    1117    1118    1120    1121
    1122    1109    1110    1111    1112    1113    1114    1116    1117    1120
    1110    1111    1112    1116    1111    1112    1113    1114    1115    1116
    1112    1113    1114    1113    1114    1115    1116    1117    1114    1115
    1116    1115    1116    1117    1116    1117    1117    1120       0    1119
    1120    1121    1122    1123    1124    1125    1126    1127    1128    1120
    1121    1122    1124    1125    1121    1122    1123    1124    1125    1122
    1123    1124    1123    1124       0    1125    1126    1127    1128    1129
    1126    1127    1128    1129    1130    1131    1132    1127    1128    1129
    1128    1129    1129    1130    1131    1132    1133    1134    1148    1130
    1131    1132    1133    1134    1135    1148    1149    1150    1154    1131
    1132    1133    1134    1148    1132    1133    1134    1148    1133    1134
    1135    1136    1137    1148    1149    1150    1151    1152    1154    1155
    1134    1135    1148    1149    1150    1154    1135    1136    1137    1138
    1146    1148    1149    1150    1151    1152    1154    1136    1137    1138
    1139    1140    1144    1146    1147    1148    1149    1150    1151    1152
    1153    1154    1137    1138    1146    1148    1150    1151    1152    1138
    1139    1140    1141    1142    1144    1145    1146    1147    1148    1150
    1151    1152    1139    1140    1141    1142    1143    1144    1146    1147
    1150    1140    1141    1142    1146    1141    1142    1143    1144    1145
    1146    1142    1143    1144    1143    1144    1145    1146    1147    1144
    1145    1146    1145    1146    1147    1146    1147    1147    1150       0
    1149    1150    1151    1152    1153    1154    1155    1156    1157    1158
    1150    1151    1152    1154    1155    1151    1152    1153    1154    1155
    1152    1153    1154    1153    1154       0    1155    1156    1157    1158
    1159    1156    1157    1158    1159    1160    1161    1162    1157    1158
    1159    1158    1159    1159    1160    1161    1162    1163    1164    1179
    1160    1161    1162    1163    1164    1165    1179    1180    1181    1185
    1161    1162    1163    1164    1179    1162    1163    1164    1179    1163
    1164    1165    1166    1167    1179    1180    1181    1182    1183    1185
    1186    1164    1165    1179    1180    1181    1185    1165    1166    1167
    1168    1177    1179    1180    1181    1182    1183    1185    1166    1167
    1168    1169    1170    1176    1177    1178    1179    1180    1181    1182
    1183    1184    1185    1167    1168    1177    1179    1181    1182    1183
    1168    1169    1170    1171    1172    1176    1177    1178    1179    1181
    1182    1183    1169    1170    1171    1172    1173    1176    1177    1178
    1181    1170    1171    1172    1177    1171    1172    1173    1174    1175
    1176    1177    1172    1173    1176    1173    1174    1175    1176    1177
    1178    1174    1175    1176    1177    1175    1176    1176    1177    1178
    1178    1181       0    1180    1181    1182    1183    1184    1185    1186
    1187    1188    1189    1181    1182    1183    1185    1186    1182    1183
    1184    1185    1186    1183    1184    1185    1184    1185       0    1186
    1187    1188    1189    1190    1187    1188    1189    1190    1191    1192
    1193    1188    1189    1190    1189    1190    1190    1191    1192    1193
    1194    1195    1209    1191    1192    1193    1194    1195    1196    1209
    1210    1211    1215    1192    1193    1194    1195    1209    1193    1194
    1195    1209    1194    1195    1196    1197    1198    1209    1210    1211
    1212    1213    1215    1216    1195    1196    1209    1210    1211    1215
    1196    1197    1198    1199    1207    1209    1210    1211    1212    1213
    1215    1197    1198    1199    1200    1201    1205    1207    1208    1209
    1210    1211    1212    1213    1214    1215    1198    1199    1207    1209
    1211    1212    1213    1199    1200    1201    1202    1203    1205    1206
    1207    1208    1209    1211    1212    1213    1200    1201    1202    1203
    1204    1205    1207    1208    1211    1201    1202    1203    1207    1202
    1203    1204    1205    1206    1207    1203    1204    1205    1204    1205
    1206    1207    1208    1205    1206    1207    1206    1207    1208    1207
    1208    1208    1211       0    1210    1211    1212    1213    1214    1215
    1216    1217    1218    1219    1211    1212    1213    1215    1216    1212
    1213    1214    1215    1216    1213    1214    1215    1214    1215       0
    1216    1217    1218    1219    1220    1217    1218    1219    1220    1221
    1222    1223    1218    1219    1220    1219    1220    1220    1221    1222
    1223    1224    1225    1242    1221    1222    1223    1224    1225    1226
    1242    1243    1244    1248    1222    1223    1224    1225    1242    1223
    1224    1225    1242    1224    1225    1226    1227    1228    1242    1243
    1244    1245    1246    1248    1249    1225    1226    1242    1243    1244
    1248    1226    1227    1228    1229    1241    1242    1243    1244    1245
    1246    1248    1227    1228    1229    1230    1231    1232    1240    1241
    1242    1243    1244    1245    1246    1247    1248    1228    1229    1241
    1242    1244    1245    1246    1229    1230    1231    1232    1233    1238
    1240    1241    1242    1244    1245    1246    1230    1231    1232    1233
    1240    1241    1244    1231    1232    1241    1232    1233    1234    1237
    1240    1241    1233    1234    1235    1236    1237    1238    1240    1241
    1234    1235    1236    1237    1238    1239    1240    1241    1235    1236
    1237    1238    1241    1236    1237    1237    1238    1239    1240    1241
    1239    1240    1241    1240    1241    1241    1244    1243    1244    1245
    1246    1247    1248    1249    1250    1251    1252    1244    1245    1246
    1248    1249    1245    1246    1247    1248    1249    1246    1247    1248
    1247    1248       0    1249    1250    1251    1252    1253    1250    1251
    1252    1253    1254    1255    1256    1251    1252    1253    1252    1253
    1253    1254    1255    1256    1257    1258    1273    1254    1255    1256
    1257    1258    1259    1273    1274    1275    1279    1255    1256    1257
    1258    1273    1256    1257    1258    1273    1257    1258    1259    1260
    1261    1273    1274    1275    1276    1277    1279    1280    1258    1259
    1273    1274    1275    1279    1259    1260    1261    1262    1271    1273
    1274    1275    1276    1277    1279    1260    1261    1262    1263    1264
    1270    1271    1272    1273    1274    1275    1276    1277    1278    1279
    1261    1262    1271    1273    1275    1276    1277    1262    1263    1264
    1265    1266    1270    1271    1272    1273    1275    1276    1277    1263
    1264    1265    1266    1267    1270    1271    1272    1275    1264    1265
    1266    1271    1265    1266    1267    1268    1269    1270    1271    1266
    1267    1270    1267    1268    1269    1270    1271    1272    1268    1269
    1270    1271    1269    1270    1270    1271    1272    1272    1275       0
    1274    1275    1276    1277    1278    1279    1280    1281    1282    1283
    1275    1276    1277    1279    1280    1276    1277    1278    1279    1280
    1277    1278    1279    1278    1279       0    1280    1281    1282    1283
    1284    1281    1282    1283    1284    1285    1286    1287    1282    1283
    1284    1283    1284    1284    1285    1286    1287    1288    1289    1304
    1285    1286    1287    1288    1289    1290    1304    1305    1306    1310
    1286    1287    1288    1289    1304    1287    1288    1289    1304    1288
    1289    1290    1291    1292    1304    1305    1306    1307    1308    1310
    1311    1289    1290    1304    1305    1306    1310    1290    1291    1292
    1293    1302    1304    1305    1306    1307    1308    1310    1291    1292
    1293    1294    1295    1301    1302    1303    1304    1305    1306    1307
    1308    1309    1310    1292    1293    1302    1304    1306    1307    1308
    1293    1294    1295    1296    1297    1301    1302    1303    1304    1306
    1307    1308    1294    1295    1296    1297    1298    1301    1302    1303
    1306    1295    1296    1297    1302    1296    1297    1298    1299    1300
    1301    1302    1297    1298    1301    1298    1299    1300    1301    1302
    1303    1299    1300    1301    1302    1300    1301    1301    1302    1303
    1303    1306       0    1305    1306    1307    1308    1309    1310    1311
    1312    1313    1314    1306    1307    1308    1310    1311    1307    1308
    1309    1310    1311    1308    1309    1310    1309    1310       0    1311
    1312    1313    1314    1315    1312    1313    1314    1315    1316    1317
    1318    1313    1314    1315    1314    1315    1315    1316    1317    1318
    1319    1320    1338    1316    1317    1318    1319    1320    1321    1338
    1339    1340    1344    1317    1318    1319    1320    1338    1318    1319
    1320    1338    1319    1320    1321    1322    1323    1338    1339    1340
    1341    1342    1344    1345    1320    1321    1338    1339    1340    1344
    1321    1322    1323    1324    1337    1338    1339    1340    1341    1342
    1344    1322    1323    1324    1325    1326    1327    1336    1337    1338
    1339    1340    1341    1342    1343    1344    1323    1324    1337    1338
    1340    1341    1342    1324    1325    1326    1327    1328    1332    1336
    1337    1338    1340    1341    1342    1325    1326    1327    1328    1336
    1337    1340    1326    1327    1337    1327    1328    1329    1330    1336
    1337    1328    1329    1330    1331    1332    1336    1337    1329    1330
    1331    1332    1333    1336    1337    1330    1331    1332    1337    1331
    1332    1333    1334    1335    1336    1337    1332    1333    1336    1333
    1334    1335    1336    1337    1334    1335    1336    1337    1335    1336
    1336    1337    1340    1339    1340    1341    1342    1343    1344    1345
    1346    1347    1348    1340    1341    1342    1344    1345    1341    1342
    1343    1344    1345    1342    1343    1344    1343    1344       0    1345
    1346    1347    1348    1349    1346    1347    1348    1349    1350    1351
    1352    1347    1348    1349    1348    1349    1349    1350    1351    1352
    1353    1354    1372    1350    1351    1352    1353    1354    1355    1372
    1373    1374    1378    1351    1352    1353    1354    1372    1352    1353
    1354    1372    1353    1354    1355    1356    1357    1372    1373    1374
    1375    1376    1378    1379    1354    1355    1372    1373    1374    1378
    1355    1356    1357    1358    1371    1372    1373    1374    1375    1376
    1378    1356    1357    1358    1359    1360    1361    1370    1371    1372
    1373    1374    1375    1376    1377    1378    1357    1358    1371    1372
    1374    1375    1376    1358    1359    1360    1361    1362    1366    1370
    1371    1372    1374    1375    1376    1359    1360    1361    1362    1370
    1371    1374    1360    1361    1371    1361    1362    1363    1364    1370
    1371    1362    1363    1364    1365    1366    1370    1371    1363    1364
    1365    1366    1367    1370    1371    1364    1365    1366    1371    1365
    1366    1367    1368    1369    1370    1371    1366    1367    1370    1367
    1368    1369    1370    1371    1368    1369    1370    1371    1369    1370
    1370    1371    1374    1373    1374    1375    1376    1377    1378    1379
    1380    1381    1382    1374    1375    1376    1378    1379    1375    1376
    1377    1378    1379    1376    1377    1378    1377    1378       0    1379
    1380    1381    1382    1383    1380    1381    1382    1383    1384    1385
    1386    1381    1382    1383    1382    1383    1383    1384    1385    1386
    1387    1388    1406    1384    1385    1386    1387    1388    1389    1406
    1407    1408    1412    1385    1386    1387    1388    1406    1386    1387
    1388    1406    1387    1388    1389    1390    1391    1406    1407    1408
    1409    1410    1412    1413    1388    1389    1406    1407    1408    1412
    1389    1390    1391    1392    1405    1406    1407    1408    1409    1410
    1412    1390    1391    1392    1393    1394    1395    1404    1405    1406
    1407    1408    1409    1410    1411    1412    1391    1392    1405    1406
    1408    1409    1410    1392    1393    1394    1395    1396    1400    1404
    1405    1406    1408    1409    1410    1393    1394    1395    1396    1404
    1405    1408    1394    1395    1405    1395    1396    1397    1398    1404
    1405    1396    1397    1398    1399    1400    1404    1405    1397    1398
    1399    1400    1401    1404    1405    1398    1399    1400    1405    1399
    1400    1401    1402    1403    1404    1405    1400    1401    1404    1401
    1402    1403    1404    1405    1402    1403    1404    1405    1403    1404
    1404    1405    1408    1407    1408    1409    1410    1411    1412    1413
    1414    1415    1416    1408    1409    1410    1412    1413    1409    1410
    1411    1412    1413    1410    1411    1412    1411    1412       0    1413
    1414    1415    1416    1417    1414    1415    1416    1417    1418    1419
    1420    1415    1416    1417    1416    1417    1417    1418    1419    1420
    1421    1422    1437    1418    1419    1420    1421    1422    1423    1437
    1438    1439    1443    1419    1420    1421    1422    1437    1420    1421
    1422    1437    1421    1422    1423    1424    1425    1437    1438    1439
    1440    1441    1443    1444    1422    1423    1437    1438    1439    1443
    1423    1424    1425    1426    1435    1437    1438    1439    1440    1441
    1443    1424    1425    1426    1427    1428    1434    1435    1436    1437
    1438    1439    1440    1441    1442    1443    1425    1426    1435    1437
    1439    1440    1441    1426    1427    1428    1429    1430    1434    1435
    1436    1437    1439    1440    1441    1427    1428    1429    1430    1431
    1434    1435    1436    1439    1428    1429    1430    1435    1429    1430
    1431    1432    1433    1434    1435    1430    1431    1434    1431    1432
    1433    1434    1435    1436    1432    1433    1434    1435    1433    1434
    1434    1435    1436    1436    1439       0    1438    1439    1440    1441
    1442    1443    1444    1445    1446    1447    1439    1440    1441    1443
    1444    1440    1441    1442    1443    1444    1441    1442    1443    1442
    1443       0    1444    1445    1446    1447    1448    1445    1446    1447
    1448    1449    1450    1451    1446    1447    1448    1447    1448    1448
    1449    1450    1451    1452    1453    1470    1449    1450    1451    1452
    1453    1454    1470    1471    1472    1476    1450    1451    1452    1453
    1470    1451    1452    1453    1470    1452    1453    1454    1455    1456
    1470    1471    1472    1473    1474    1476    1477    1453    1454    1470
    1471    1472    1476    1454    1455    1456    1457    1469    1470    1471
    1472    1473    1474    1476    1455    1456    1457    1458    1459    1460
    1468    1469    1470    1471    1472    1473    1474    1475    1476    1456
    1457    1469    1470    1472    1473    1474    1457    1458    1459    1460
    1461    1466    1468    1469    1470    1472    1473    1474    1458    1459
    1460    1461    1468    1469    1472    1459    1460    1469    1460    1461
    1462    1465    1468    1469    1461    1462    1463    1464    1465    1466
    1468    1469    1462    1463    1464    1465    1466    1467    1468    1469
    1463    1464    1465    1466    1469    1464    1465    1465    1466    1467
    1468    1469    1467    1468    1469    1468    1469    1469    1472    1471
    1472    1473    1474    1475    1476    1477    1478    1479    1480    1472
    1473    1474    1476    1477    1473    1474    1475    1476    1477    1474
    1475    1476    1475    1476       0    1477    1478    1479    1480    1481
    1478    1479    1480    1481    1482    1483    1484    1479    1480    1481
    1480    1481    1481    1482    1483    1484    1485    1486    1501    1482
    1483    1484    1485    1486    1487    1501    1502    1503    1507    1483
    1484    1485    1486    1501    1484    1485    1486    1501    1485    1486
    1487    1488    1489    1501    1502    1503    1504    1505    1507    1508
    1486    1487    1501    1502    1503    1507    1487    1488    1489    1490
    1499    1501    1502    1503    1504    1505    1507    1488    1489    1490
    1491    1492    1498    1499    1500    1501    1502    1503    1504    1505
    1506    1507    1489    1490    1499    1501    1503    1504    1505    1490
    1491    1492    1493    1494    1498    1499    1500    1501    1503    1504
    1505    1491    1492    1493    1494    1495    1498    1499    1500    1503
    1492    1493    1494    1499    1493    1494    1495    1496    1497    1498
    1499    1494    1495    1498    1495    1496    1497    1498    1499    1500
    1496    1497    1498    1499    1497    1498    1498    1499    1500    1500
    1503       0    1502    1503    1504    1505    1506    1507    1508    1509
    1510    1511    1503    1504    1505    1507    1508    1504    1505    1506
    1507    1508    1505    1506    1507    1506    1507       0    1508    1509
    1510    1511    1512    1509    1510    1511    1512    1513    1514    1515
    1510    1511    1512    1511    1512    1512    1513    1514    1515    1516
    1517    1532    1513    1514    1515    1516    1517    1518    1532    1533
    1534    1538    1514    1515    1516    1517    1532    1515    1516    1517
    1532    1516    1517    1518    1519    1520    1532    1533    1534    1535
    1536    1538    1539    1517    1518    1532    1533    1534    1538    1518
    1519    1520    1521    1530    1532    1533    1534    1535    1536    1538
    1519    1520    1521    1522    1523    1529    1530    1531    1532    1533
    1534    1535    1536    1537    1538    1520    1521    1530    1532    1534
    1535    1536    1521    1522    1523    1524    1525    1529    1530    1531
    1532    1534    1535    1536    1522    1523    1524    1525    1526    1529
    1530    1531    1534    1523    1524    1525    1530    1524    1525    1526
    1527    1528    1529    1530    1525    1526    1529    1526    1527    1528
    1529    1530    1531    1527    1528    1529    1530    1528    1529    1529
    1530    1531    1531    1534       0    1533    1534    1535    1536    1537
    1538    1539    1540    1541    1542    1534    1535    1536    1538    1539
    1535    1536    1537    1538    1539    1536    1537    1538    1537    1538
       0    1539    1540    1541    1542    1543    1540    1541    1542    1543
    1544    1545    1546    1541    1542    1543    1542    1543    1543    1544
    1545    1546    1547    1548    1566    1544    1545    1546    1547    1548
    1549    1566    1567    1568    1572    1545    1546    1547    1548    1566
    1546    1547    1548    1566    1547    1548    1549    1550    1551    1566
    1567    1568    1569    1570    1572    1573    1548    1549    1566    1567
    1568    1572    1549    1550    1551    1552    1565    1566    1567    1568
    1569    1570    1572    1550    1551    1552    1553    1554    1555    1564
    1565    1566    1567    1568    1569    1570    1571    1572    1551    1552
    1565    1566    1568    1569    1570    1552    1553    1554    1555    1556
    1560    1564    1565    1566    1568    1569    1570    1553    1554    1555
    1556    1564    1565    1568    1554    1555    1565    1555    1556    1557
    1558    1564    1565    1556    1557    1558    1559    1560    1564    1565
    1557    1558    1559    1560    1561    1564    1565    1558    1559    1560
    1565    1559    1560    1561    1562    1563    1564    1565    1560    1561
    1564    1561    1562    1563    1564    1565    1562    1563    1564    1565
    1563    1564    1564    1565    1568    1567    1568    1569    1570    1571
    1572    1573    1574    1575    1576    1568    1569    1570    1572    1573
    1569    1570    1571    1572    1573    1570    1571    1572    1571    1572
       0    1573    1574    1575    1576    1577    1574    1575    1576    1577
    1578    1579    1580    1575    1576    1577    1576    1577    1577    1578
    1579    1580    1581    1582    1596    1578    1579    1580    1581    1582
    1583    1596    1597    1598    1602    1579    1580    1581    1582    1596
    1580    1581    1582    1596    1581    1582    1583    1584    1585    1596
    1597    1598    1599    1600    1602    1603    1582    1583    1596    1597
    1598    1602    1583    1584    1585    1586    1594    1596    1597    1598
    1599    1600    1602    1584    1585    1586    1587    1588    1592    1594
    1595    1596    1597    1598    1599    1600    1601    1602    1585    1586
    1594    1596    1598    1599    1600    1586    1587    1588    1589    1590
    1592    1593    1594    1595    1596    1598    1599    1600    1587    1588
    1589    1590    1591    1592    1594    1595    1598    1588    1589    1590
    1594    1589    1590    1591    1592    1593    1594    1590    1591    1592
    1591    1592    1593    1594    1595    1592    1593    1594    1593    1594
    1595    1594    1595    1595    1598       0    1597    1598    1599    1600
    1601    1602    1603    1604    1605    1606    1598    1599    1600    1602
    1603    1599    1600    1601    1602    1603    1600    1601    1602    1601
    1602       0    1603    1604    1605    1606    1607    1604    1605    1606
    1607    1608    1609    1610    1605    1606    1607    1606    1607    1607
    1608    1609    1610    1611    1612    1629    1608    1609    1610    1611
    1612    1613    1629    1630    1631    1635    1609    1610    1611    1612
    1629    1610    1611    1612    1629    1611    1612    1613    1614    1615
    1629    1630    1631    1632    1633    1635    1636    1612    1613    1629
    1630    1631    1635    1613    1614    1615    1616    1628    1629    1630
    1631    1632    1633    1635    1614    1615    1616    1617    1618    1619
    1627    1628    1629    1630    1631    1632    1633    1634    1635    1615
    1616    1628    1629    1631    1632    1633    1616    1617    1618    1619
    1620    1625    1627    1628    1629    1631    1632    1633    1617    1618
    1619    1620    1627    1628    1631    1618    1619    1628    1619    1620
    1621    1624    1627    1628    1620    1621    1622    1623    1624    1625
    1627    1628    1621    1622    1623    1624    1625    1626    1627    1628
    1622    1623    1624    1625    1628    1623    1624    1624    1625    1626
    1627    1628    1626    1627    1628    1627    1628    1628    1631    1630
    1631    1632    1633    1634    1635    1636    1637    1638    1639    1631
    1632    1633    1635    1636    1632    1633    1634    1635    1636    1633
    1634    1635    1634    1635       0    1636    1637    1638    1639    1640
    1637    1638    1639    1640    1641    1642    1643    1638    1639    1640
    1639    1640    1640    1641    1642    1643    1644    1645    1662    1641
    1642    1643    1644    1645    1646    1662    1663    1664    1668    1642
    1643    1644    1645    1662    1643    1644    1645    1662    1644    1645
    1646    1647    1648    1662    1663    1664    1665    1666    1668    1669
    1645    1646    1662    1663    1664    1668    1646    1647    1648    1649
    1661    1662    1663    1664    1665    1666    1668    1647    1648    1649
    1650    1651    1652    1660    1661    1662    1663    1664    1665    1666
    1667    1668    1648    1649    1661    1662    1664    1665    1666    1649
    1650    1651    1652    1653    1658    1660    1661    1662    1664    1665
    1666    1650    1651    1652    1653    1660    1661    1664    1651    1652
    1661    1652    1653    1654    1657    1660    1661    1653    1654    1655
    1656    1657    1658    1660    1661    1654    1655    1656    1657    1658
    1659    1660    1661    1655    1656    1657    1658    1661    1656    1657
    1657    1658    1659    1660    1661    1659    1660    1661    1660    1661
    1661    1664    1663    1664    1665    1666    1667    1668    1669    1670
    1671    1672    1664    1665    1666    1668    1669    1665    1666    1667
    1668    1669    1666    1667    1668    1667    1668       0    1669    1670
    1671    1672    1673    1670    1671    1672    1673    1674    1675    1676
    1671    1672    1673    1672    1673    1673    1674    1675    1676    1677
    1678    1695    1674    1675    1676    1677    1678    1679    1695    1696
    1697    1701    1675    1676    1677    1678    1695    1676    1677    1678
    1695    1677    1678    1679    1680    1681    1695    1696    1697    1698
    1699    1701    1702    1678    1679    1695    1696    1697    1701    1679
    1680    1681    1682    1694    1695    1696    1697    1698    1699    1701
    1680    1681    1682    1683    1684    1685    1693    1694    1695    1696
    1697    1698    1699    1700    1701    1681    1682    1694    1695    1697
    1698    1699    1682    1683    1684    1685    1686    1691    1693    1694
    1695    1697    1698    1699    1683    1684    1685    1686    1693    1694
    1697    1684    1685    1694    1685    1686    1687    1690    1693    1694
    1686    1687    1688    1689    1690    1691    1693    1694    1687    1688
    1689    1690    1691    1692    1693    1694    1688    1689    1690    1691
    1694    1689    1690    1690    1691    1692    1693    1694    1692    1693
    1694    1693    1694    1694    1697    1696    1697    1698    1699    1700
    1701    1702    1703    1704    1705    1697    1698    1699    1701    1702
    1698    1699    1700    1701    1702    1699    1700    1701    1700    1701
       0    1702    1703    1704    1705    1706    1703    1704    1705    1706
    1707    1708    1709    1704    1705    1706    1705    1706    1706    1707
    1708    1709    1710    1711    1725    1707    1708    1709    1710    1711
    1712    1725    1726    1727    1731    1708    1709    1710    1711    1725
    1709    1710    1711    1725    1710    1711    1712    1713    1714    1725
    1726    1727    1728    1729    1731    1732    1711    1712    1725    1726
    1727    1731    1712    1713    1714    1715    1723    1725    1726    1727
    1728    1729    1731    1713    1714    1715    1716    1717    1721    1723
    1724    1725    1726    1727    1728    1729    1730    1731    1714    1715
    1723    1725    1727    1728    1729    1715    1716    1717    1718    1719
    1721    1722    1723    1724    1725    1727    1728    1729    1716    1717
    1718    1719    1720    1721    1723    1724    1727    1717    1718    1719
    1723    1718    1719    1720    1721    1722    1723    1719    1720    1721
    1720    1721    1722    1723    1724    1721    1722    1723    1722    1723
    1724    1723    1724    1724    1727       0    1726    1727    1728    1729
    1730    1731    1732    1733    1734    1735    1727    1728    1729    1731
    1732    1728    1729    1730    1731    1732    1729    1730    1731    1730
    1731       0    1732    1733    1734    1735    1736    1733    1734    1735
    1736    1737    1738    1739    1734    1735    1736    1735    1736    1736
    1737    1738    1739    1740    1741    1759    1737    1738    1739    1740
    1741    1742    1759    1760    1761    1765    1738    1739    1740    1741
    1759    1739    1740    1741    1759    1740    1741    1742    1743    1744
    1759    1760    1761    1762    1763    1765    1766    1741    1742    1759
    1760    1761    1765    1742    1743    1744    1745    1758    1759    1760
    1761    1762    1763    1765    1743    1744    1745    1746    1747    1748
    1757    1758    1759    1760    1761    1762    1763    1764    1765    1744
    1745    1758    1759    1761    1762    1763    1745    1746    1747    1748
    1749    1753    1757    1758    1759    1761    1762    1763    1746    1747
    1748    1749    1757    1758    1761    1747    1748    1758    1748    1749
    1750    1751    1757    1758    1749    1750    1751    1752    1753    1757
    1758    1750    1751    1752    1753    1754    1757    1758    1751    1752
    1753    1758    1752    1753    1754    1755    1756    1757    1758    1753
    1754    1757    1754    1755    1756    1757    1758    1755    1756    1757
    1758    1756    1757    1757    1758    1761    1760    1761    1762    1763
    1764    1765    1766    1767    1768    1769    1761    1762    1763    1765
    1766    1762    1763    1764    1765    1766    1763    1764    1765    1764
    1765       0    1766    1767    1768    1769    1770    1767    1768    1769
    1770    1771    1772    1773    1768    1769    1770    1769    1770    1770
    1771    1772    1773    1774    1775    1789    1771    1772    1773    1774
    1775    1776    1789    1790    1791    1795    1772    1773    1774    1775
    1789    1773    1774    1775    1789    1774    1775    1776    1777    1778
    1789    1790    1791    1792    1793    1795    1796    1775    1776    1789
    1790    1791    1795    1776    1777    1778    1779    1787    1789    1790
    1791    1792    1793    1795    1777    1778    1779    1780    1781    1785
    1787    1788    1789    1790    1791    1792    1793    1794    1795    1778
    1779    1787    1789    1791    1792    1793    1779    1780    1781    1782
    1783    1785    1786    1787    1788    1789    1791    1792    1793    1780
    1781    1782    1783    1784    1785    1787    1788    1791    1781    1782
    1783    1787    1782    1783    1784    1785    1786    1787    1783    1784
    1785    1784    1785    1786    1787    1788    1785    1786    1787    1786
    1787    1788    1787    1788    1788    1791       0    1790    1791    1792
    1793    1794    1795    1796    1797    1798    1799    1791    1792    1793
    1795    1796    1792    1793    1794    1795    1796    1793    1794    1795
    1794    1795       0    1796    1797    1798    1799    1800    1797    1798
    1799    1800    1801    1802    1803    1798    1799    1800    1799    1800
    1800    1801    1802    1803    1804    1805    1820    1801    1802    1803
    1804    1805    1806    1820    1821    1822    1826    1802    1803    1804
    1805    1820    1803    1804    1805    1820    1804    1805    1806    1807
    1808    1820    1821    1822    1823    1824    1826    1827    1805    1806
    1820    1821    1822    1826    1806    1807    1808    1809    1818    1820
    1821    1822    1823    1824    1826    1807    1808    1809    1810    1811
    1817    1818    1819    1820    1821    1822    1823    1824    1825    1826
    1808    1809    1818    1820    1822    1823    1824    1809    1810    1811
    1812    1813    1817    1818    1819    1820    1822    1823    1824    1810
    1811    1812    1813    1814    1817    1818    1819    1822    1811    1812
    1813    1818    1812    1813    1814    1815    1816    1817    1818    1813
    1814    1817    1814    1815    1816    1817    1818    1819    1815    1816
    1817    1818    1816    1817    1817    1818    1819    1819    1822       0
    1821    1822    1823    1824    1825    1826    1827    1828    1829    1830
    1822    1823    1824    1826    1827    1823    1824    1825    1826    1827
    1824    1825    1826    1825    1826       0    1827    1828    1829    1830
    1831    1828    1829    1830    1831    1832    1833    1834    1829    1830
    1831    1830    1831    1831    1832    1833    1834    1835    1836    1851
    1832    1833    1834    1835    1836    1837    1851    1852    1853    1857
    1833    1834    1835    1836    1851    1834    1835    1836    1851    1835
    1836    1837    1838    1839    1851    1852    1853    1854    1855    1857
    1858    1836    1837    1851    1852    1853    1857    1837    1838    1839
    1840    1849    1851    1852    1853    1854    1855    1857    1838    1839
    1840    1841    1842    1848    1849    1850    1851    1852    1853    1854
    1855    1856    1857    1839    1840    1849    1851    1853    1854    1855
    1840    1841    1842    1843    1844    1848    1849    1850    1851    1853
    1854    1855    1841    1842    1843    1844    1845    1848    1849    1850
    1853    1842    1843    1844    1849    1843    1844    1845    1846    1847
    1848    1849    1844    1845    1848    1845    1846    1847    1848    1849
    1850    1846    1847    1848    1849    1847    1848    1848    1849    1850
    1850    1853       0    1852    1853    1854    1855    1856    1857    1858
    1859    1860    1861    1853    1854    1855    1857    1858    1854    1855
    1856    1857    1858    1855    1856    1857    1856    1857       0    1858
    1859    1860    1861    1862    1859    1860    1861    1862    1863    1864
    1865    1860    1861    1862    1861    1862    1862    1863    1864    1865
    1866    1867    1885    1863    1864    1865    1866    1867    1868    1885
    1886    1887    1891    1864    1865    1866    1867    1885    1865    1866
    1867    1885    1866    1867    1868    1869    1870    1885    1886    1887
    1888    1889    1891    1892    1867    1868    1885    1886    1887    1891
    1868    1869    1870    1871    1884    1885    1886    1887    1888    1889
    1891    1869    1870    1871    1872    1873    1874    1883    1884    1885
    1886    1887    1888    1889    1890    1891    1870    1871    1884    1885
    1887    1888    1889    1871    1872    1873    1874    1875    1879    1883
    1884    1885    1887    1888    1889    1872    1873    1874    1875    1883
    1884    1887    1873    1874    1884    1874    1875    1876    1877    1883
    1884    1875    1876    1877    1878    1879    1883    1884    1876    1877
    1878    1879    1880    1883    1884    1877    1878    1879    1884    1878
    1879    1880    1881    1882    1883    1884    1879    1880    1883    1880
    1881    1882    1883    1884    1881    1882    1883    1884    1882    1883
    1883    1884    1887    1886    1887    1888    1889    1890    1891    1892
    1893    1894    1895    1887    1888    1889    1891    1892    1888    1889
    1890    1891    1892    1889    1890    1891    1890    1891       0    1892
    1893    1894    1895    1896    1893    1894    1895    1896    1897    1898
    1899    1894    1895    1896    1895    1896    1896    1897    1898    1899
    1900    1901    1918    1897    1898    1899    1900    1901    1902    1918
    1919    1920    1924    1898    1899    1900    1901    1918    1899    1900
    1901    1918    1900    1901    1902    1903    1904    1918    1919    1920
    1921    1922    1924    1925    1901    1902    1918    1919    1920    1924
    1902    1903    1904    1905    1917    1918    1919    1920    1921    1922
    1924    1903    1904    1905    1906    1907    1908    1916    1917    1918
    1919    1920    1921    1922    1923    1924    1904    1905    1917    1918
    1920    1921    1922    1905    1906    1907    1908    1909    1914    1916
    1917    1918    1920    1921    1922    1906    1907    1908    1909    1916
    1917    1920    1907    1908    1917    1908    1909    1910    1913    1916
    1917    1909    1910    1911    1912    1913    1914    1916    1917    1910
    1911    1912    1913    1914    1915    1916    1917    1911    1912    1913
    1914    1917    1912    1913    1913    1914    1915    1916    1917    1915
    1916    1917    1916    1917    1917    1920    1919    1920    1921    1922
    1923    1924    1925    1926    1927    1928    1920    1921    1922    1924
    1925    1921    1922    1923    1924    1925    1922    1923    1924    1923
    1924       0    1925    1926    1927    1928    1929    1926    1927    1928
    1929    1930    1931    1932    1927    1928    1929    1928    1929    1929
    1930    1931    1932    1933    1934    1949    1930    1931    1932    1933
    1934    1935    1949    1950    1951    1955    1931    1932    1933    1934
    1949    1932    1933    1934    1949    1933    1934    1935    1936    1937
    1949    1950    1951    1952    1953    1955    1956    1934    1935    1949
    1950    1951    1955    1935    1936    1937    1938    1947    1949    1950
    1951    1952    1953    1955    1936    1937    1938    1939    1940    1946
    1947    1948    1949    1950    1951    1952    1953    1954    1955    1937
    1938    1947    1949    1951    1952    1953    1938    1939    1940    1941
    1942    1946    1947    1948    1949    1951    1952    1953    1939    1940
    1941    1942    1943    1946    1947    1948    1951    1940    1941    1942
    1947    1941    1942    1943    1944    1945    1946    1947    1942    1943
    1946    1943    1944    1945    1946    1947    1948    1944    1945    1946
    1947    1945    1946    1946    1947    1948    1948    1951       0    1950
    1951    1952    1953    1954    1955    1956    1957    1958    1959    1951
    1952    1953    1955    1956    1952    1953    1954    1955    1956    1953
    1954    1955    1954    1955       0    1956    1957    1958    1959    1960
    1957    1958    1959    1960    1961    1962    1963    1958    1959    1960
    1959    1960    1960    1961    1962    1963    1964    1965    1979    1961
    1962    1963    1964    1965    1966    1979    1980    1981    1985    1962
    1963    1964    1965    1979    1963    1964    1965    1979    1964    1965
    1966    1967    1968    1979    1980    1981    1982    1983    1985    1986
    1965    1966    1979    1980    1981    1985    1966    1967    1968    1969
    1977    1979    1980    1981    1982    1983    1985    1967    1968    1969
    1970    1971    1975    1977    1978    1979    1980    1981    1982    1983
    1984    1985    1968    1969    1977    1979    1981    1982    1983    1969
    1970    1971    1972    1973    1975    1976    1977    1978    1979    1981
    1982    1983    1970    1971    1972    1973    1974    1975    1977    1978
    1981    1971    1972    1973    1977    1972    1973    1974    1975    1976
    1977    1973    1974    1975    1974    1975    1976    1977    1978    1975
    1976    1977    1976    1977    1978    1977    1978    1978    1981       0
    1980    1981    1982    1983    1984    1985    1986    1987    1988    1989
    1981    1982    1983    1985    1986    1982    1983    1984    1985    1986
    1983    1984    1985    1984    1985       0    1986    1987    1988    1989
    1990    1987    1988    1989    1990    1991    1992    1993    1988    1989
    1990    1989    1990    1990    1991    1992    1993    1994    1995    2012
    1991    1992    1993    1994    1995    1996    2012    2013    2014    2018
    1992    1993    1994    1995    2012    1993    1994    1995    2012    1994
    1995    1996    1997    1998    2012    2013    2014    2015    2016    2018
    2019    1995    1996    2012    2013    2014    2018    1996    1997    1998
    1999    2011    2012    2013    2014    2015    2016    2018    1997    1998
    1999    2000    2001    2002    2010    2011    2012    2013    2014    2015
    2016    2017    2018    1998    1999    2011    2012    2014    2015    2016
    1999    2000    2001    2002    2003    2008    2010    2011    2012    2014
    2015    2016    2000    2001    2002    2003    2010    2011    2014    2001
    2002    2011    2002    2003    2004    2007    2010    2011    2003    2004
    2005    2006    2007    2008    2010    2011    2004    2005    2006    2007
    2008    2009    2010    2011    2005    2006    2007    2008    2011    2006
    2007    2007    2008    2009    2010    2011    2009    2010    2011    2010
    2011    2011    2014    2013    2014    2015    2016    2017    2018    2019
    2020    2021    2022    2014    2015    2016    2018    2019    2015    2016
    2017    2018    2019    2016    2017    2018    2017    2018       0    2019
    2020    2021    2022    2023    2020    2021    2022    2023    2024    2025
    2026    2021    2022    2023    2022    2023    2023    2024    2025    2026
    2027    2028    2042    2024    2025    2026    2027    2028    2029    2042
    2043    2044    2048    2025    2026    2027    2028    2042    2026    2027
    2028    2042    2027    2028    2029    2030    2031    2042    2043    2044
    2045    2046    2048    2049    2028    2029    2042    2043    2044    2048
    2029    2030    2031    2032    2040    2042    2043    2044    2045    2046
    2048    2030    2031    2032    2033    2034    2038    2040    2041    2042
    2043    2044    2045    2046    2047    2048    2031    2032    2040    2042
    2044    2045    2046    2032    2033    2034    2035    2036    2038    2039
    2040    2041    2042    2044    2045    2046    2033    2034    2035    2036
    2037    2038    2040    2041    2044    2034    2035    2036    2040    2035
    2036    2037    2038    2039    2040    2036    2037    2038    2037    2038
    2039    2040    2041    2038    2039    2040    2039    2040    2041    2040
    2041    2041    2044       0    2043    2044    2045    2046    2047    2048
    2049    2050    2051    2052    2044    2045    2046    2048    2049    2045
    2046    2047    2048    2049    2046    2047    2048    2047    2048       0
    2049    2050    2051    2052    2053    2050    2051    2052    2053    2054
    2055    2056    2051    2052    2053    2052    2053    2053    2054    2055
    2056    2057    2058    2076    2054    2055    2056    2057    2058    2059
    2076    2077    2078    2082    2055    2056    2057    2058    2076    2056
    2057    2058    2076    2057    2058    2059    2060    2061    2076    2077
    2078    2079    2080    2082    2083    2058    2059    2076    2077    2078
    2082    2059    2060    2061    2062    2075    2076    2077    2078    2079
    2080    2082    2060    2061    2062    2063    2064    2065    2074    2075
    2076    2077    2078    2079    2080    2081    2082    2061    2062    2075
    2076    2078    2079    2080    2062    2063    2064    2065    2066    2070
    2074    2075    2076    2078    2079    2080    2063    2064    2065    2066
    2074    2075    2078    2064    2065    2075    2065    2066    2067    2068
    2074    2075    2066    2067    2068    2069    2070    2074    2075    2067
    2068    2069    2070    2071    2074    2075    2068    2069    2070    2075
    2069    2070    2071    2072    2073    2074    2075    2070    2071    2074
    2071    2072    2073    2074    2075    2072    2073    2074    2075    2073
    2074    2074    2075    2078    2077    2078    2079    2080    2081    2082
    2083    2084    2085    2086    2078    2079    2080    2082    2083    2079
    2080    2081    2082    2083    2080    2081    2082    2081    2082       0
    2083    2084    2085    2086    2087    2084    2085    2086    2087    2088
    2089    2090    2085    2086    2087    2086    2087    2087    2088    2089
    2090    2091    2092    2110    2088    2089    2090    2091    2092    2093
    2110    2111    2112    2116    2089    2090    2091    2092    2110    2090
    2091    2092    2110    2091    2092    2093    2094    2095    2110    2111
    2112    2113    2114    2116    2117    2092    2093    2110    2111    2112
    2116    2093    2094    2095    2096    2109    2110    2111    2112    2113
    2114    2116    2094    2095    2096    2097    2098    2099    2108    2109
    2110    2111    2112    2113    2114    2115    2116    2095    2096    2109
    2110    2112    2113    2114    2096    2097    2098    2099    2100    2104
    2108    2109    2110    2112    2113    2114    2097    2098    2099    2100
    2108    2109    2112    2098    2099    2109    2099    2100    2101    2102
    2108    2109    2100    2101    2102    2103    2104    2108    2109    2101
    2102    2103    2104    2105    2108    2109    2102    2103    2104    2109
    2103    2104    2105    2106    2107    2108    2109    2104    2105    2108
    2105    2106    2107    2108    2109    2106    2107    2108    2109    2107
    2108    2108    2109    2112    2111    2112    2113    2114    2115    2116
    2117    2118    2119    2120    2112    2113    2114    2116    2117    2113
    2114    2115    2116    2117    2114    2115    2116    2115    2116       0
    2117    2118    2119    2120    2121    2118    2119    2120    2121    2122
    2123    2124    2119    2120    2121    2120    2121    2121    2122    2123
    2124    2125    2126    2140    2122    2123    2124    2125    2126    2127
    2140    2141    2142    2146    2123    2124    2125    2126    2140    2124
    2125    2126    2140    2125    2126    2127    2128    2129    2140    2141
    2142    2143    2144    2146    2147    2126    2127    2140    2141    2142
    2146    2127    2128    2129    2130    2138    2140    2141    2142    2143
    2144    2146    2128    2129    2130    2131    2132    2136    2138    2139
    2140    2141    2142    2143    2144    2145    2146    2129    2130    2138
    2140    2142    2143    2144    2130    2131    2132    2133    2134    2136
    2137    2138    2139    2140    2142    2143    2144    2131    2132    2133
    2134    2135    2136    2138    2139    2142    2132    2133    2134    2138
    2133    2134    2135    2136    2137    2138    2134    2135    2136    2135
    2136    2137    2138    2139    2136    2137    2138    2137    2138    2139
    2138    2139    2139    2142       0    2141    2142    2143    2144    2145
    2146    2147    2148    2149    2150    2142    2143    2144    2146    2147
    2143    2144    2145    2146    2147    2144    2145    2146    2145    2146
       0    2147    2148    2149    2150    2151    2148    2149    2150    2151
    2152    2153    2154    2149    2150    2151    2150    2151    2151    2152
    2153    2154    2155    2156    2171    2152    2153    2154    2155    2156
    2157    2171    2172    2173    2177    2153    2154    2155    2156    2171
    2154    2155    2156    2171    2155    2156    2157    2158    2159    2171
    2172    2173    2174    2175    2177    2178    2156    2157    2171    2172
    2173    2177    2157    2158    2159    2160    2169    2171    2172    2173
    2174    2175    2177    2158    2159    2160    2161    2162    2168    2169
    2170    2171    2172    2173    2174    2175    2176    2177    2159    2160
    2169    2171    2173    2174    2175    2160    2161    2162    2163    2164
    2168    2169    2170    2171    2173    2174    2175    2161    2162    2163
    2164    2165    2168    2169    2170    2173    2162    2163    2164    2169
    2163    2164    2165    2166    2167    2168    2169    2164    2165    2168
    2165    2166    2167    2168    2169    2170    2166    2167    2168    2169
    2167    2168    2168    2169    2170    2170    2173       0    2172    2173
    2174    2175    2176    2177    2178    2173    2174    2175    2177    2178
    2174    2175    2176    2177    2178    2175    2176    2177    2176    2177
       0    2178       0       0       0       0       0       0       0       0
       0       0       0       0       0       0       0       0       0       0
       0       0       0       0       0       0       0       0       0       0
       0       0       0       0       0       0       0       0       0       0
       0       0       0       0       0       0       0       0       0       0
       0       0       0       0       0       0       0       0       0       0
       0       0       0       0       0       0       0       0       0       0
       0       0       0       0       0       0       0       0       0       0
       0       0       0       0       0       0       0       0       0       0
       0       0       0       0       0       0       0       0       0       0
       0       0       0       0       0       0       0       0       0       0
       0       0       0       0       0       0       0       0       0       0
       0       0       0       0       0       0       0       0       0       0
       0       0       0       0    2311    2312    2313    2324    2325    2326
    2329    2312    2313    2314    2323    2324    2325    2326    2327    2328
    2329    2313    2314    2315    2323    2324    2325    2326    2329    2330
    2314    2315    2316    2323    2324    2325    2328    2329    2330    2315
    2316    2317    2323    2324    2329    2330    2331    2332    2316    2317
    2318    2322    2323    2330    2331    2332    2317    2318    2319    2321
    2322    2330    2331    2332    2333    2337    2318    2319    2320    2321
    2322    2331    2332    2333    2334    2336    2337    2319    2320    2321
    2322    2331    2332    2333    2334    2335    2337    2320    2321    2322
    2333    2334    2335    2336    2321    2322    2333    2334    2335    2336
    2337    2322    2334    2335    2336    2337    2331    2332    2333    2335
    2336    2337    2324    2325    2326    2327    2328    2329    2330    2339
    2325    2326    2327    2328    2338    2339    2326    2327    2328    2329
    2338    2339    2327    2328    2338    2339    2328    2338    2339    2338
    2339       0       0    2332       0    2334    2335    2336    2337       0
    2339       0    2341    2342    2343    2342    2343    2343       0    2345
    2346    2347    2346    2347    2347       0    2349    2350    2351    2350
    2351    2351       0    2353    2354    2355    2354    2355    2355       0
    2357    2358    2359    2358    2359    2359       0    2361    2362    2363
    2362    2363    2363       0    2365    2366    2367    2366    2367    2367
       0    2369    2370    2371    2370    2371    2371       0    2373    2374
    2375    2374    2375    2375       0    2377    2378    2379    2378    2379
    2379       0    2381    2382    2383    2382    2383    2383       0    2385
    2386    2387    2386    2387    2387       0    2389    2390    2391    2390
    2391    2391       0    2393    2394    2395    2394    2395    2395       0
    2397    2398    2399    2398    2399    2399       0    2401    2402    2403
    2402    2403    2403       0    2405    2406    2407    2406    2407    2407
       0    2409    2410    2411    2410    2411    2411       0    2413    2414
    2415    2414    2415    2415       0    2417    2418    2419    2418    2419
    2419       0    2421    2422    2423    2422    2423    2423       0    2425
    2426    2427    2426    2427    2427       0    2429    2430    2431    2430
    2431    2431       0    2433    2434    2435    2434    2435    2435       0
    2437    2438    2439    2438    2439    2439       0    2441    2442    2443
    2442    2443    2443       0    2445    2446    2447    2446    2447    2447
       0    2449    2450    2451    2450    2451    2451       0    2453    2454
    2455    2454    2455    2455       0    2457    2458    2459    2458    2459
    2459       0    2461    2462    2463    2462    2463    2463       0    2465
    2466    2467    2466    2467    2467       0    2469    2470    2471    2470
    2471    2471       0    2473    2474    2475    2474    2475    2475       0
    2477    2478    2479    2478    2479    2479       0    2481    2482    2483
    2482    2483    2483       0    2485    2486    2487    2486    2487    2487
       0    2489    2490    2491    2490    2491    2491       0    2493    2494
    2495    2494    2495    2495       0    2497    2498    2499    2498    2499
    2499       0    2501    2502    2503    2502    2503    2503       0    2505
    2506    2507    2506    2507    2507       0    2509    2510    2511    2510
    2511    2511       0    2513    2514    2515    2514    2515    2515       0
    2517    2518    2519    2518    2519    2519       0    2521    2522    2523
    2522    2523    2523       0    2525    2526    2527    2526    2527    2527
       0    2529    2530    2531    2530    2531    2531       0    2533    2534
    2535    2534    2535    2535       0    2537    2538    2539    2538    2539
    2539       0    2541    2542    2543    2542    2543    2543       0    2545
    2546    2547    2546    2547    2547       0    2549    2550    2551    2550
    2551    2551       0    2553    2554    2555    2554    2555    2555       0
    2557    2558    2559    2558    2559    2559       0    2561    2562    2563
    2562    2563    2563       0    2565    2566    2567    2566    2567    2567
       0    2569    2570    2571    2570    2571    2571       0    2573    2574
    2575    2574    2575    2575       0    2577    2578    2579    2578    2579
    2579       0    2581    2582    2583    2582    2583    2583       0    2585
    2586    2587    2586    2587    2587       0    2589    2590    2591    2590
    2591    2591       0    2593    2594    2595    2594    2595    2595       0
    2597    2598    2599    2598    2599    2599       0    2601    2602    2603
    2602    2603    2603       0    2605    2606    2607    2606    2607    2607
       0    2609    2610    2611    2610    2611    2611       0    2613    2614
    2615    2614    2615    2615       0    2617    2618    2619    2618    2619
    2619       0    2621    2622    2623    2622    2623    2623       0    2625
    2626    2627    2626    2627    2627       0    2629    2630    2631    2630
    2631    2631       0    2633    2634    2635    2634    2635    2635       0
    2637    2638    2639    2638    2639    2639       0    2641    2642    2643
    2642    2643    2643       0    2645    2646    2647    2646    2647    2647
       0    2649    2650    2651    2650    2651    2651       0    2653    2654
    2655    2654    2655    2655       0    2657    2658    2659    2658    2659
    2659       0    2661    2662    2663    2662    2663    2663       0    2665
    2666    2667    2666    2667    2667       0    2669    2670    2671    2670
    2671    2671       0    2673    2674    2675    2674    2675    2675       0
    2677    2678    2679    2678    2679    2679       0    2681    2682    2683
    2682    2683    2683       0    2685    2686    2687    2686    2687    2687
       0    2689    2690    2691    2690    2691    2691       0    2693    2694
    2695    2694    2695    2695       0    2697    2698    2699    2698    2699
    2699       0    2701    2702    2703    2702    2703    2703       0    2705
    2706    2707    2706    2707    2707       0    2709    2710    2711    2710
    2711    2711       0    2713    2714    2715    2714    2715    2715       0
    2717    2718    2719    2718    2719    2719       0    2721    2722    2723
    2722    2723    2723       0    2725    2726    2727    2726    2727    2727
       0    2729    2730    2731    2730    2731    2731       0    2733    2734
    2735    2734    2735    2735       0    2737    2738    2739    2738    2739
    2739       0    2741    2742    2743    2742    2743    2743       0    2745
    2746    2747    2746    2747    2747       0    2749    2750    2751    2750
    2751    2751       0    2753    2754    2755    2754    2755    2755       0
    2757    2758    2759    2758    2759    2759       0    2761    2762    2763
    2762    2763    2763       0    2765    2766    2767    2766    2767    2767
       0    2769    2770    2771    2770    2771    2771       0    2773    2774
    2775    2774    2775    2775       0    2777    2778    2779    2778    2779
    2779       0    2781    2782    2783    2782    2783    2783       0    2785
    2786    2787    2786    2787    2787       0    2789    2790    2791    2790
    2791    2791       0    2793    2794    2795    2794    2795    2795       0
    2797    2798    2799    2798    2799    2799       0    2801    2802    2803
    2802    2803    2803       0    2805    2806    2807    2806    2807    2807
       0    2809    2810    2811    2810    2811    2811       0    2813    2814
    2815    2814    2815    2815       0    2817    2818    2819    2818    2819
    2819       0    2821    2822    2823    2822    2823    2823       0    2825
    2826    2827    2826    2827    2827       0    2829    2830    2831    2830
    2831    2831       0    2833    2834    2835    2834    2835    2835       0
    2837    2838    2839    2838    2839    2839       0    2841    2842    2843
    2842    2843    2843       0    2845    2846    2847    2846    2847    2847
       0    2849    2850    2851    2850    2851    2851       0    2853    2854
    2855    2854    2855    2855       0    2857    2858    2859    2858    2859
    2859       0    2861    2862    2863    2862    2863    2863       0    2865
    2866    2867    2866    2867    2867       0    2869    2870    2871    2870
    2871    2871       0    2873    2874    2875    2874    2875    2875       0
    2877    2878    2879    2878    2879    2879       0    2881    2882    2883
    2882    2883    2883       0    2885    2886    2887    2886    2887    2887
       0    2889    2890    2891    2890    2891    2891       0    2893    2894
    2895    2894    2895    2895       0    2897    2898    2899    2898    2899
    2899       0    2901    2902    2903    2902    2903    2903       0    2905
    2906    2907    2906    2907    2907       0    2909    2910    2911    2910
    2911    2911       0    2913    2914    2915    2914    2915    2915       0
    2917    2918    2919    2918    2919    2919       0    2921    2922    2923
    2922    2923    2923       0    2925    2926    2927    2926    2927    2927
       0    2929    2930    2931    2930    2931    2931       0    2933    2934
    2935    2934    2935    2935       0    2937    2938    2939    2938    2939
    2939       0    2941    2942    2943    2942    2943    2943       0    2945
    2946    2947    2946    2947    2947       0    2949    2950    2951    2950
    2951    2951       0    2953    2954    2955    2954    2955    2955       0
    2957    2958    2959    2958    2959    2959       0    2961    2962    2963
    2962    2963    2963       0    2965    2966    2967    2966    2967    2967
       0    2969    2970    2971    2970    2971    2971       0    2973    2974
    2975    2974    2975    2975       0    2977    2978    2979    2978    2979
    2979       0    2981    2982    2983    2982    2983    2983       0    2985
    2986    2987    2986    2987    2987       0    2989    2990    2991    2990
    2991    2991       0    2993    2994    2995    2994    2995    2995       0
    2997    2998    2999    2998    2999    2999       0    3001    3002    3003
    3002    3003    3003       0    3005    3006    3007    3006    3007    3007
       0    3009    3010    3011    3010    3011    3011       0    3013    3014
    3015    3014    3015    3015       0    3017    3018    3019    3018    3019
    3019       0    3021    3022    3023    3022    3023    3023       0    3025
    3026    3027    3026    3027    3027       0    3029    3030    3031    3030
    3031    3031       0    3033    3034    3035    3034    3035    3035       0
    3037    3038    3039    3038    3039    3039       0    3041    3042    3043
    3042    3043    3043       0    3045    3046    3047    3046    3047    3047
       0    3049    3050    3051    3050    3051    3051       0    3053    3054
    3055    3054    3055    3055       0    3057    3058    3059    3058    3059
    3059       0    3061    3062    3063    3062    3063    3063       0    3065
    3066    3067    3066    3067    3067       0    3069    3070    3071    3070
    3071    3071       0    3073    3074    3075    3074    3075    3075       0
    3077    3078    3079    3078    3079    3079       0    3081    3082    3083
    3082    3083    3083       0    3085    3086    3087    3086    3087    3087
       0    3089    3090    3091    3090    3091    3091       0    3093    3094
    3095    3094    3095    3095       0    3097    3098    3099    3098    3099
    3099       0    3101    3102    3103    3102    3103    3103       0    3105
    3106    3107    3106    3107    3107       0    3109    3110    3111    3110
    3111    3111       0    3113    3114    3115    3114    3115    3115       0
    3117    3118    3119    3118    3119    3119       0    3121    3122    3123
    3122    3123    3123       0    3125    3126    3127    3126    3127    3127
       0    3129    3130    3131    3130    3131    3131       0    3133    3134
    3135    3134    3135    3135       0    3137    3138    3139    3138    3139
    3139       0    3141    3142    3143    3142    3143    3143       0    3145
    3146    3147    3146    3147    3147       0    3149    3150    3151    3150
    3151    3151       0    3153    3154    3155    3154    3155    3155       0
    3157    3158    3159    3158    3159    3159       0    3161    3162    3163
    3162    3163    3163       0    3165    3166    3167    3166    3167    3167
       0    3169    3170    3171    3170    3171    3171       0    3173    3174
    3175    3174    3175    3175       0    3177    3178    3179    3178    3179
    3179       0    3181    3182    3183    3182    3183    3183       0    3185
    3186    3187    3186    3187    3187       0    3189    3190    3191    3190
    3191    3191       0    3193    3194    3195    3194    3195    3195       0
    3197    3198    3199    3198    3199    3199       0    3201    3202    3203
    3202    3203    3203       0    3205    3206    3207    3206    3207    3207
       0    3209    3210    3211    3210    3211    3211       0    3213    3214
    3215    3214    3215    3215       0    3217    3218    3219    3218    3219
    3219       0    3221    3222    3223    3222    3223    3223       0    3225
    3226    3227    3226    3227    3227       0    3229    3230    3231    3230
    3231    3231       0    3233    3234    3235    3234    3235    3235       0
    3237    3238    3239    3238    3239    3239       0    3241    3242    3243
    3242    3243    3243       0    3245    3246    3247    3246    3247    3247
       0    3249    3250    3251    3250    3251    3251       0    3253    3254
    3255    3254    3255    3255       0    3257    3258    3259    3258    3259
    3259       0    3261    3262    3263    3262    3263    3263       0    3265
    3266    3267    3266    3267    3267       0    3269    3270    3271    3270
    3271    3271       0    3273    3274    3275    3274    3275    3275       0
    3277    3278    3279    3278    3279    3279       0    3281    3282    3283
    3282    3283    3283       0    3285    3286    3287    3286    3287    3287
       0    3289    3290    3291    3290    3291    3291       0    3293    3294
    3295    3294    3295    3295       0    3297    3298    3299    3298    3299
    3299       0    3301    3302    3303    3302    3303    3303       0    3305
    3306    3307    3306    3307    3307       0    3309    3310    3311    3310
    3311    3311       0    3313    3314    3315    3314    3315    3315       0
    3317    3318    3319    3318    3319    3319       0    3321    3322    3323
    3322    3323    3323       0    3325    3326    3327    3326    3327    3327
       0    3329    3330    3331    3330    3331    3331       0    3333    3334
    3335    3334    3335    3335       0    3337    3338    3339    3338    3339
    3339       0    3341    3342    3343    3342    3343    3343       0    3345
    3346    3347    3346    3347    3347       0    3349    3350    3351    3350
    3351    3351       0    3353    3354    3355    3354    3355    3355       0
    3357    3358    3359    3358    3359    3359       0    3361    3362    3363
    3362    3363    3363       0    3365    3366    3367    3366    3367    3367
       0    3369    3370    3371    3370    3371    3371       0    3373    3374
    3375    3374    3375    3375       0    3377    3378    3379    3378    3379
    3379       0    3381    3382    3383    3382    3383    3383       0    3385
    3386    3387    3386    3387    3387       0    3389    3390    3391    3390
    3391    3391       0    3393    3394    3395    3394    3395    3395       0
    3397    3398    3399    3398    3399    3399       0    3401    3402    3403
    3402    3403    3403       0    3405    3406    3407    3406    3407    3407
       0    3409    3410    3411    3410    3411    3411       0    3413    3414
    3415    3414    3415    3415       0    3417    3418    3419    3418    3419
    3419       0    3421    3422    3423    3422    3423    3423       0    3425
    3426    3427    3426    3427    3427       0    3429    3430    3431    3430
    3431    3431       0    3433    3434    3435    3434    3435    3435       0
    3437    3438    3439    3438    3439    3439       0    3441    3442    3443
    3442    3443    3443       0    3445    3446    3447    3446    3447    3447
       0    3449    3450    3451    3450    3451    3451       0    3453    3454
    3455    3454    3455    3455       0    3457    3458    3459    3458    3459
    3459       0    3461    3462    3463    3462    3463    3463       0    3465
    3466    3467    3466    3467    3467       0    3469    3470    3471    3470
    3471    3471       0    3473    3474    3475    3474    3475    3475       0
    3477    3478    3479    3478    3479    3479       0    3481    3482    3483
    3482    3483    3483       0    3485    3486    3487    3486    3487    3487
       0    3489    3490    3491    3490    3491    3491       0    3493    3494
    3495    3494    3495    3495       0    3497    3498    3499    3498    3499
    3499       0    3501    3502    3503    3502    3503    3503       0    3505
    3506    3507    3506    3507    3507       0    3509    3510    3511    3510
    3511    3511       0    3513    3514    3515    3514    3515    3515       0
    3517    3518    3519    3518    3519    3519       0    3521    3522    3523
    3522    3523    3523       0    3525    3526    3527    3526    3527    3527
       0    3529    3530    3531    3530    3531    3531       0    3533    3534
    3535    3534    3535    3535       0    3537    3538    3539    3538    3539
    3539       0    3541    3542    3543    3542    3543    3543       0    3545
    3546    3547    3546    3547    3547       0    3549    3550    3551    3550
    3551    3551       0    3553    3554    3555    3554    3555    3555       0
    3557    3558    3559    3558    3559    3559       0    3561    3562    3563
    3562    3563    3563       0    3565    3566    3567    3566    3567    3567
       0    3569    3570    3571    3570    3571    3571       0    3573    3574
    3575    3574    3575    3575       0    3577    3578    3579    3578    3579
    3579       0    3581    3582    3583    3582    3583    3583       0    3585
    3586    3587    3586    3587    3587       0    3589    3590    3591    3590
    3591    3591       0    3593    3594    3595    3594    3595    3595       0
    3597    3598    3599    3598    3599    3599       0    3601    3602    3603
    3602    3603    3603       0    3605    3606    3607    3606    3607    3607
       0    3609    3610    3611    3610    3611    3611       0    3613    3614
    3615    3614    3615    3615       0    3617    3618    3619    3618    3619
    3619       0    3621    3622    3623    3622    3623    3623       0    3625
    3626    3627    3626    3627    3627       0    3629    3630    3631    3630
    3631    3631       0    3633    3634    3635    3634    3635    3635       0
    3637    3638    3639    3638    3639    3639       0    3641    3642    3643
    3642    3643    3643       0    3645    3646    3647    3646    3647    3647
       0    3649    3650    3651    3650    3651    3651       0    3653    3654
    3655    3654    3655    3655       0    3657    3658    3659    3658    3659
    3659       0    3661    3662    3663    3662    3663    3663       0    3665
    3666    3667    3666    3667    3667       0    3669    3670    3671    3670
    3671    3671       0    3673    3674    3675    3674    3675    3675       0
    3677    3678    3679    3678    3679    3679       0    3681    3682    3683
    3682    3683    3683       0    3685    3686    3687    3686    3687    3687
       0    3689    3690    3691    3690    3691    3691       0    3693    3694
    3695    3694    3695    3695       0    3697    3698    3699    3698    3699
    3699       0    3701    3702    3703    3702    3703    3703       0    3705
    3706    3707    3706    3707    3707       0    3709    3710    3711    3710
    3711    3711       0    3713    3714    3715    3714    3715    3715       0
    3717    3718    3719    3718    3719    3719       0    3721    3722    3723
    3722    3723    3723       0    3725    3726    3727    3726    3727    3727
       0    3729    3730    3731    3730    3731    3731       0    3733    3734
    3735    3734    3735    3735       0    3737    3738    3739    3738    3739
    3739       0    3741    3742    3743    3742    3743    3743       0    3745
    3746    3747    3746    3747    3747       0    3749    3750    3751    3750
    3751    3751       0    3753    3754    3755    3754    3755    3755       0
    3757    3758    3759    3758    3759    3759       0    3761    3762    3763
    3762    3763    3763       0    3765    3766    3767    3766    3767    3767
       0    3769    3770    3771    3770    3771    3771       0    3773    3774
    3775    3774    3775    3775       0    3777    3778    3779    3778    3779
    3779       0    3781    3782    3783    3782    3783    3783       0    3785
    3786    3787    3786    3787    3787       0    3789    3790    3791    3790
    3791    3791       0    3793    3794    3795    3794    3795    3795       0
    3797    3798    3799    3798    3799    3799       0    3801    3802    3803
    3802    3803    3803       0    3805    3806    3807    3806    3807    3807
       0    3809    3810    3811    3810    3811    3811       0    3813    3814
    3815    3814    3815    3815       0    3817    3818    3819    3818    3819
    3819       0    3821    3822    3823    3822    3823    3823       0    3825
    3826    3827    3826    3827    3827       0    3829    3830    3831    3830
    3831    3831       0    3833    3834    3835    3834    3835    3835       0
    3837    3838    3839    3838    3839    3839       0    3841    3842    3843
    3842    3843    3843       0    3845    3846    3847    3846    3847    3847
       0    3849    3850    3851    3850    3851    3851       0    3853    3854
    3855    3854    3855    3855       0    3857    3858    3859    3858    3859
    3859       0    3861    3862    3863    3862    3863    3863       0    3865
    3866    3867    3866    3867    3867       0    3869    3870    3871    3870
    3871    3871       0    3873    3874    3875    3874    3875    3875       0
    3877    3878    3879    3878    3879    3879       0    3881    3882    3883
    3882    3883    3883       0    3885    3886    3887    3886    3887    3887
       0    3889    3890    3891    3890    3891    3891       0    3893    3894
    3895    3894    3895    3895       0    3897    3898    3899    3898    3899
    3899       0    3901    3902    3903    3902    3903    3903       0    3905
    3906    3907    3906    3907    3907       0    3909    3910    3911    3910
    3911    3911       0    3913    3914    3915    3914    3915    3915       0
    3917    3918    3919    3918    3919    3919       0    3921    3922    3923
    3922    3923    3923       0    3925    3926    3927    3926    3927    3927
       0    3929    3930    3931    3930    3931    3931       0    3933    3934
    3935    3934    3935    3935       0    3937    3938    3939    3938    3939
    3939       0    3941    3942    3943    3942    3943    3943       0    3945
    3946    3947    3946    3947    3947       0    3949    3950    3951    3950
    3951    3951       0    3953    3954    3955    3954    3955    3955       0
    3957    3958    3959    3958    3959    3959       0    3961    3962    3963
    3962    3963    3963       0    3965    3966    3967    3966    3967    3967
       0    3969    3970    3971    3970    3971    3971       0    3973    3974
    3975    3974    3975    3975       0    3977    3978    3979    3978    3979
    3979       0    3981    3982    3983    3982    3983    3983       0    3985
    3986    3987    3986    3987    3987       0    3989    3990    3991    3990
    3991    3991       0    3993    3994    3995    3994    3995    3995       0
    3997    3998    3999    3998    3999    3999       0    4001    4002    4003
    4002    4003    4003       0    4005    4006    4007    4006    4007    4007
       0    4009    4010    4011    4010    4011    4011       0    4013    4014
    4015    4014    4015    4015       0    4017    4018    4019    4018    4019
    4019       0    4021    4022    4023    4022    4023    4023       0    4025
    4026    4027    4026    4027    4027       0    4029    4030    4031    4030
    4031    4031       0    4033    4034    4035    4034    4035    4035       0
    4037    4038    4039    4038    4039    4039       0    4041    4042    4043
    4042    4043    4043       0    4045    4046    4047    4046    4047    4047
       0    4049    4050    4051    4050    4051    4051       0    4053    4054
    4055    4054    4055    4055       0    4057    4058    4059    4058    4059
    4059       0    4061    4062    4063    4062    4063    4063       0    4065
    4066    4067    4066    4067    4067       0    4069    4070    4071    4070
    4071    4071       0    4073    4074    4075    4074    4075    4075       0
    4077    4078    4079    4078    4079    4079       0    4081    4082    4083
    4082    4083    4083       0    4085    4086    4087    4086    4087    4087
       0    4089    4090    4091    4090    4091    4091       0    4093    4094
    4095    4094    4095    4095       0    4097    4098    4099    4098    4099
    4099       0    4101    4102    4103    4102    4103    4103       0    4105
    4106    4107    4106    4107    4107       0    4109    4110    4111    4110
    4111    4111       0    4113    4114    4115    4114    4115    4115       0
    4117    4118    4119    4118    4119    4119       0    4121    4122    4123
    4122    4123    4123       0    4125    4126    4127    4126    4127    4127
       0    4129    4130    4131    4130    4131    4131       0    4133    4134
    4135    4134    4135    4135       0    4137    4138    4139    4138    4139
    4139       0    4141    4142    4143    4142    4143    4143       0    4145
    4146    4147    4146    4147    4147       0    4149    4150    4151    4150
    4151    4151       0    4153    4154    4155    4154    4155    4155       0
    4157    4158    4159    4158    4159    4159       0    4161    4162    4163
    4162    4163    4163       0    4165    4166    4167    4166    4167    4167
       0    4169    4170    4171    4170    4171    4171       0    4173    4174
    4175    4174    4175    4175       0    4177    4178    4179    4178    4179
    4179       0    4181    4182    4183    4182    4183    4183       0    4185
    4186    4187    4186    4187    4187       0    4189    4190    4191    4190
    4191    4191       0    4193    4194    4195    4194    4195    4195       0
    4197    4198    4199    4198    4199    4199       0    4201    4202    4203
    4202    4203    4203       0    4205    4206    4207    4206    4207    4207
       0    4209    4210    4211    4210    4211    4211       0    4213    4214
    4215    4214    4215    4215       0    4217    4218    4219    4218    4219
    4219       0    4221    4222    4223    4222    4223    4223       0    4225
    4226    4227    4226    4227    4227       0    4229    4230    4231    4230
    4231    4231       0    4233    4234    4235    4234    4235    4235       0
    4237    4238    4239    4238    4239    4239       0    4241    4242    4243
    4242    4243    4243       0    4245    4246    4247    4246    4247    4247
       0    4249    4250    4251    4250    4251    4251       0    4253    4254
    4255    4254    4255    4255       0    4257    4258    4259    4258    4259
    4259       0    4261    4262    4263    4262    4263    4263       0    4265
    4266    4267    4266    4267    4267       0    4269    4270    4271    4270
    4271    4271       0    4273    4274    4275    4274    4275    4275       0
    4277    4278    4279    4278    4279    4279       0    4281    4282    4283
    4282    4283    4283       0    4285    4286    4287    4286    4287    4287
       0    4289    4290    4291    4290    4291    4291       0    4293    4294
    4295    4294    4295    4295       0    4297    4298    4299    4298    4299
    4299       0    4301    4302    4303    4302    4303    4303       0    4305
    4306    4307    4306    4307    4307       0    4309    4310    4311    4310
    4311    4311       0    4313    4314    4315    4314    4315    4315       0
    4317    4318    4319    4318    4319    4319       0    4321    4322    4323
    4322    4323    4323       0    4325    4326    4327    4326    4327    4327
       0    4329    4330    4331    4330    4331    4331       0    4333    4334
    4335    4334    4335    4335       0    4337    4338    4339    4338    4339
    4339       0    4341    4342    4343    4342    4343    4343       0    4345
    4346    4347    4346    4347    4347       0    4349    4350    4351    4350
    4351    4351       0    4353    4354    4355    4354    4355    4355       0
    4357    4358    4359    4358    4359    4359       0    4361    4362    4363
    4362    4363    4363       0    4365    4366    4367    4366    4367    4367
       0    4369    4370    4371    4370    4371    4371       0    4373    4374
    4375    4374    4375    4375       0    4377    4378    4379    4378    4379
    4379       0    4381    4382    4383    4382    4383    4383       0    4385
    4386    4387    4386    4387    4387       0    4389    4390    4391    4390
    4391    4391       0    4393    4394    4395    4394    4395    4395       0
    4397    4398    4399    4398    4399    4399       0    4401    4402    4403
    4402    4403    4403       0    4405    4406    4407    4406    4407    4407
       0    4409    4410    4411    4410    4411    4411       0    4413    4414
    4415    4414    4415    4415       0    4417    4418    4419    4418    4419
    4419       0    4421    4422    4423    4422    4423    4423       0    4425
    4426    4427    4426    4427    4427       0    4429    4430    4431    4430
    4431    4431       0    4433    4434    4435    4434    4435    4435       0
    4437    4438    4439    4438    4439    4439       0    4441    4442    4443
    4442    4443    4443       0    4445    4446    4447    4446    4447    4447
       0    4449    4450    4451    4450    4451    4451       0    4453    4454
    4455    4454    4455    4455       0    4457    4458    4459    4458    4459
    4459       0    4461    4462    4463    4462    4463    4463       0    4465
    4466    4467    4466    4467    4467       0    4469    4470    4471    4470
    4471    4471       0    4473    4474    4475    4474    4475    4475       0
    4477    4478    4479    4478    4479    4479       0    4481    4482    4483
    4482    4483    4483       0    4485    4486    4487    4486    4487    4487
       0    4489    4490    4491    4490    4491    4491       0    4493    4494
    4495    4494    4495    4495       0    4497    4498    4499    4498    4499
    4499       0    4501    4502    4503    4502    4503    4503       0    4505
    4506    4507    4506    4507    4507       0    4509    4510    4511    4510
    4511    4511       0    4513    4514    4515    4514    4515    4515       0
    4517    4518    4519    4518    4519    4519       0    4521    4522    4523
    4522    4523    4523       0    4525    4526    4527    4526    4527    4527
       0    4529    4530    4531    4530    4531    4531       0    4533    4534
    4535    4534    4535    4535       0    4537    4538    4539    4538    4539
    4539       0    4541    4542    4543    4542    4543    4543       0    4545
    4546    4547    4546    4547    4547       0    4549    4550    4551    4550
    4551    4551       0    4553    4554    4555    4554    4555    4555       0
    4557    4558    4559    4558    4559    4559       0    4561    4562    4563
    4562    4563    4563       0    4565    4566    4567    4566    4567    4567
       0    4569    4570    4571    4570    4571    4571       0    4573    4574
    4575    4574    4575    4575       0    4577    4578    4579    4578    4579
    4579       0    4581    4582    4583    4582    4583    4583       0    4585
    4586    4587    4586    4587    4587       0    4589    4590    4591    4590
    4591    4591       0    4593    4594    4595    4594    4595    4595       0
    4597    4598    4599    4598    4599    4599       0    4601    4602    4603
    4602    4603    4603       0    4605    4606    4607    4606    4607    4607
       0    4609    4610    4611    4610    4611    4611       0    4613    4614
    4615    4614    4615    4615       0    4617    4618    4619    4618    4619
    4619       0    4621    4622    4623    4622    4623    4623       0    4625
    4626    4627    4626    4627    4627       0    4629    4630    4631    4630
    4631    4631       0    4633    4634    4635    4634    4635    4635       0
    4637    4638    4639    4638    4639    4639       0    4641    4642    4643
    4642    4643    4643       0    4645    4646    4647    4646    4647    4647
       0    4649    4650    4651    4650    4651    4651       0    4653    4654
    4655    4654    4655    4655       0    4657    4658    4659    4658    4659
    4659       0    4661    4662    4663    4662    4663    4663       0    4665
    4666    4667    4666    4667    4667       0    4669    4670    4671    4670
    4671    4671       0    4673    4674    4675    4674    4675    4675       0
    4677    4678    4679    4678    4679    4679       0    4681    4682    4683
    4682    4683    4683       0    4685    4686    4687    4686    4687    4687
       0    4689    4690    4691    4690    4691    4691       0    4693    4694
    4695    4694    4695    4695       0    4697    4698    4699    4698    4699
    4699       0    4701    4702    4703    4702    4703    4703       0    4705
    4706    4707    4706    4707    4707       0    4709    4710    4711    4710
    4711    4711       0    4713    4714    4715    4714    4715    4715       0
    4717    4718    4719    4718    4719    4719       0    4721    4722    4723
    4722    4723    4723       0    4725    4726    4727    4726    4727    4727
       0    4729    4730    4731    4730    4731    4731       0    4733    4734
    4735    4734    4735    4735       0    4737    4738    4739    4738    4739
    4739       0    4741    4742    4743    4742    4743    4743       0    4745
    4746    4747    4746    4747    4747       0    4749    4750    4751    4750
    4751    4751       0    4753    4754    4755    4754    4755    4755       0
    4757    4758    4759    4758    4759    4759       0    4761    4762    4763
    4762    4763    4763       0    4765    4766    4767    4766    4767    4767
       0    4769    4770    4771    4770    4771    4771       0    4773    4774
    4775    4774    4775    4775       0    4777    4778    4779    4778    4779
    4779       0    4781    4782    4783    4782    4783    4783       0    4785
    4786    4787    4786    4787    4787       0    4789    4790    4791    4790
    4791    4791       0    4793    4794    4795    4794    4795    4795       0
    4797    4798    4799    4798    4799    4799       0    4801    4802    4803
    4802    4803    4803       0    4805    4806    4807    4806    4807    4807
       0    4809    4810    4811    4810    4811    4811       0    4813    4814
    4815    4814    4815    4815       0    4817    4818    4819    4818    4819
    4819       0    4821    4822    4823    4822    4823    4823       0    4825
    4826    4827    4826    4827    4827       0    4829    4830    4831    4830
    4831    4831       0    4833    4834    4835    4834    4835    4835       0
    4837    4838    4839    4838    4839    4839       0    4841    4842    4843
    4842    4843    4843       0    4845    4846    4847    4846    4847    4847
       0    4849    4850    4851    4850    4851    4851       0    4853    4854
    4855    4854    4855    4855       0    4857    4858    4859    4858    4859
    4859       0    4861    4862    4863    4862    4863    4863       0    4865
    4866    4867    4866    4867    4867       0    4869    4870    4871    4870
    4871    4871       0    4873    4874    4875    4874    4875    4875       0
    4877    4878    4879    4878    4879    4879       0    4881    4882    4883
    4882    4883    4883       0    4885    4886    4887    4886    4887    4887
       0    4889    4890    4891    4890    4891    4891       0    4893    4894
    4895    4894    4895    4895       0    4897    4898    4899    4898    4899
    4899       0    4901    4902    4903    4902    4903    4903       0    4905
    4906    4907    4906    4907    4907       0    4909    4910    4911    4910
    4911    4911       0    4913    4914    4915    4914    4915    4915       0
    4917    4918    4919    4918    4919    4919       0    4921    4922    4923
    4922    4923    4923       0    4925    4926    4927    4926    4927    4927
       0    4929    4930    4931    4930    4931    4931       0    4933    4934
    4935    4934    4935    4935       0    4937    4938    4939    4938    4939
    4939       0    4941    4942    4943    4942    4943    4943       0    4945
    4946    4947    4946    4947    4947       0    4949    4950    4951    4950
    4951    4951       0    4953    4954    4955    4954    4955    4955       0
    4957    4958    4959    4958    4959    4959       0    4961    4962    4963
    4962    4963    4963       0    4965    4966    4967    4966    4967    4967
       0    4969    4970    4971    4970    4971    4971       0    4973    4974
    4975    4974    4975    4975       0    4977    4978    4979    4978    4979
    4979       0    4981    4982    4983    4982    4983    4983       0    4985
    4986    4987    4986    4987    4987       0    4989    4990    4991    4990
    4991    4991       0    4993    4994    4995    4994    4995    4995       0
    4997    4998    4999    4998    4999    4999       0    5001    5002    5003
    5002    5003    5003       0    5005    5006    5007    5006    5007    5007
       0    5009    5010    5011    5010    5011    5011       0    5013    5014
    5015    5014    5015    5015       0    5017    5018    5019    5018    5019
    5019       0    5021    5022    5023    5022    5023    5023       0    5025
    5026    5027    5026    5027    5027       0    5029    5030    5031    5030
    5031    5031       0    5033    5034    5035    5034    5035    5035       0
    5037    5038    5039    5038    5039    5039       0    5041    5042    5043
    5042    5043    5043       0    5045    5046    5047    5046    5047    5047
       0    5049    5050    5051    5050    5051    5051       0    5053    5054
    5055    5054    5055    5055       0    5057    5058    5059    5058    5059
    5059       0    5061    5062    5063    5062    5063    5063       0    5065
    5066    5067    5066    5067    5067       0    5069    5070    5071    5070
    5071    5071       0    5073    5074    5075    5074    5075    5075       0
    5077    5078    5079    5078    5079    5079       0    5081    5082    5083
    5082    5083    5083       0    5085    5086    5087    5086    5087    5087
       0    5089    5090    5091    5090    5091    5091       0    5093    5094
    5095    5094    5095    5095       0    5097    5098    5099    5098    5099
    5099       0    5101    5102    5103    5102    5103    5103       0    5105
    5106    5107    5106    5107    5107       0    5109    5110    5111    5110
    5111    5111       0    5113    5114    5115    5114    5115    5115       0
    5117    5118    5119    5118    5119    5119       0    5121    5122    5123
    5122    5123    5123       0    5125    5126    5127    5126    5127    5127
       0    5129    5130    5131    5130    5131    5131       0    5133    5134
    5135    5134    5135    5135       0    5137    5138    5139    5138    5139
    5139       0    5141    5142    5143    5142    5143    5143       0    5145
    5146    5147    5146    5147    5147       0    5149    5150    5151    5150
    5151    5151       0    5153    5154    5155    5154    5155    5155       0
    5157    5158    5159    5158    5159    5159       0    5161    5162    5163
    5162    5163    5163       0    5165    5166    5167    5166    5167    5167
       0    5169    5170    5171    5170    5171    5171       0    5173    5174
    5175    5174    5175    5175       0    5177    5178    5179    5178    5179
    5179       0    5181    5182    5183    5182    5183    5183       0    5185
    5186    5187    5186    5187    5187       0    5189    5190    5191    5190
    5191    5191       0    5193    5194    5195    5194    5195    5195       0
    5197    5198    5199    5198    5199    5199       0    5201    5202    5203
    5202    5203    5203       0    5205    5206    5207    5206    5207    5207
       0    5209    5210    5211    5210    5211    5211       0    5213    5214
    5215    5214    5215    5215       0    5217    5218    5219    5218    5219
    5219       0    5221    5222    5223    5222    5223    5223       0    5225
    5226    5227    5226    5227    5227       0    5229    5230    5231    5230
    5231    5231       0    5233    5234    5235    5234    5235    5235       0
    5237    5238    5239    5238    5239    5239       0    5241    5242    5243
    5242    5243    5243       0    5245    5246    5247    5246    5247    5247
       0    5249    5250    5251    5250    5251    5251       0    5253    5254
    5255    5254    5255    5255       0    5257    5258    5259    5258    5259
    5259       0    5261    5262    5263    5262    5263    5263       0    5265
    5266    5267    5266    5267    5267       0    5269    5270    5271    5270
    5271    5271       0    5273    5274    5275    5274    5275    5275       0
    5277    5278    5279    5278    5279    5279       0    5281    5282    5283
    5282    5283    5283       0    5285    5286    5287    5286    5287    5287
       0    5289    5290    5291    5290    5291    5291       0    5293    5294
    5295    5294    5295    5295       0    5297    5298    5299    5298    5299
    5299       0    5301    5302    5303    5302    5303    5303       0    5305
    5306    5307    5306    5307    5307       0    5309    5310    5311    5310
    5311    5311       0    5313    5314    5315    5314    5315    5315       0
    5317    5318    5319    5318    5319    5319       0    5321    5322    5323
    5322    5323    5323       0    5325    5326    5327    5326    5327    5327
       0    5329    5330    5331    5330    5331    5331       0    5333    5334
    5335    5334    5335    5335       0    5337    5338    5339    5338    5339
    5339       0    5341    5342    5343    5342    5343    5343       0    5345
    5346    5347    5346    5347    5347       0    5349    5350    5351    5350
    5351    5351       0    5353    5354    5355    5354    5355    5355       0
    5357    5358    5359    5358    5359    5359       0    5361    5362    5363
    5362    5363    5363       0    5365    5366    5367    5366    5367    5367
       0    5369    5370    5371    5370    5371    5371       0    5373    5374
    5375    5374    5375    5375       0    5377    5378    5379    5378    5379
    5379       0    5381    5382    5383    5382    5383    5383       0    5385
    5386    5387    5386    5387    5387       0    5389    5390    5391    5390
    5391    5391       0    5393    5394    5395    5394    5395    5395       0
    5397    5398    5399    5398    5399    5399       0    5401    5402    5403
    5402    5403    5403       0    5405    5406    5407    5406    5407    5407
       0    5409    5410    5411    5410    5411    5411       0    5413    5414
    5415    5414    5415    5415       0    5417    5418    5419    5418    5419
    5419       0    5421    5422    5423    5422    5423    5423       0    5425
    5426    5427    5426    5427    5427       0    5429    5430    5431    5430
    5431    5431       0    5433    5434    5435    5434    5435    5435       0
    5437    5438    5439    5438    5439    5439       0    5441    5442    5443
    5442    5443    5443       0    5445    5446    5447    5446    5447    5447
       0    5449    5450    5451    5450    5451    5451       0    5453    5454
    5455    5454    5455    5455       0    5457    5458    5459    5458    5459
    5459       0    5461    5462    5463    5462    5463    5463       0    5465
    5466    5467    5466    5467    5467       0    5469    5470    5471    5470
    5471    5471       0    5473    5474    5475    5474    5475    5475       0
    5477    5478    5479    5478    5479    5479       0    5481    5482    5483
    5482    5483    5483       0    5485    5486    5487    5486    5487    5487
       0    5489    5490    5491    5490    5491    5491       0    5493    5494
    5495    5494    5495    5495       0    5497    5498    5499    5498    5499
    5499       0    5501    5502    5503    5502    5503    5503       0    5505
    5506    5507    5506    5507    5507       0    5509    5510    5511    5510
    5511    5511       0    5513    5514    5515    5514    5515    5515       0
    5517    5518    5519    5518    5519    5519       0    5521    5522    5523
    5522    5523    5523       0    5525    5526    5527    5526    5527    5527
       0    5529    5530    5531    5530    5531    5531       0    5533    5534
    5535    5534    5535    5535       0    5537    5538    5539    5538    5539
    5539       0    5541    5542    5543    5542    5543    5543       0    5545
    5546    5547    5546    5547    5547       0    5549    5550    5551    5550
    5551    5551       0    5553    5554    5555    5554    5555    5555       0
    5557    5558    5559    5558    5559    5559       0    5561    5562    5563
    5562    5563    5563       0    5565    5566    5567    5566    5567    5567
       0    5569    5570    5571    5570    5571    5571       0    5573    5574
    5575    5574    5575    5575       0    5577    5578    5579    5578    5579
    5579       0    5581    5582    5583    5582    5583    5583       0    5585
    5586    5587    5586    5587    5587       0    5589    5590    5591    5590
    5591    5591       0    5593    5594    5595    5594    5595    5595       0
    5597    5598    5599    5598    5599    5599       0    5601    5602    5603
    5602    5603    5603       0    5605    5606    5607    5606    5607    5607
       0    5609    5610    5611    5610    5611    5611       0    5613    5614
    5615    5614    5615    5615       0    5617    5618    5619    5618    5619
    5619       0    5621    5622    5623    5622    5623    5623       0    5625
    5626    5627    5626    5627    5627       0    5629    5630    5631    5630
    5631    5631       0    5633    5634    5635    5634    5635    5635       0
    5637    5638    5639    5638    5639    5639       0    5641    5642    5643
    5642    5643    5643       0    5645    5646    5647    5646    5647    5647
       0    5649    5650    5651    5650    5651    5651       0    5653    5654
    5655    5654    5655    5655       0    5657    5658    5659    5658    5659
    5659       0    5661    5662    5663    5662    5663    5663       0    5665
    5666    5667    5666    5667    5667       0    5669    5670    5671    5670
    5671    5671       0    5673    5674    5675    5674    5675    5675       0
    5677    5678    5679    5678    5679    5679       0    5681    5682    5683
    5682    5683    5683       0    5685    5686    5687    5686    5687    5687
       0    5689    5690    5691    5690    5691    5691       0    5693    5694
    5695    5694    5695    5695       0    5697    5698    5699    5698    5699
    5699       0    5701    5702    5703    5702    5703    5703       0    5705
    5706    5707    5706    5707    5707       0    5709    5710    5711    5710
    5711    5711       0    5713    5714    5715    5714    5715    5715       0
    5717    5718    5719    5718    5719    5719       0    5721    5722    5723
    5722    5723    5723       0    5725    5726    5727    5726    5727    5727
       0    5729    5730    5731    5730    5731    5731       0    5733    5734
    5735    5734    5735    5735       0    5737    5738    5739    5738    5739
    5739       0    5741    5742    5743    5742    5743    5743       0    5745
    5746    5747    5746    5747    5747       0    5749    5750    5751    5750
    5751    5751       0    5753    5754    5755    5754    5755    5755       0
    5757    5758    5759    5758    5759    5759       0    5761    5762    5763
    5762    5763    5763       0    5765    5766    5767    5766    5767    5767
       0    5769    5770    5771    5770    5771    5771       0    5773    5774
    5775    5774    5775    5775       0    5777    5778    5779    5778    5779
    5779       0    5781    5782    5783    5782    5783    5783       0    5785
    5786    5787    5786    5787    5787       0    5789    5790    5791    5790
    5791    5791       0    5793    5794    5795    5794    5795    5795       0
    5797    5798    5799    5798    5799    5799       0    5801    5802    5803
    5802    5803    5803       0    5805    5806    5807    5806    5807    5807
       0    5809    5810    5811    5810    5811    5811       0    5813    5814
    5815    5814    5815    5815       0    5817    5818    5819    5818    5819
    5819       0    5821    5822    5823    5822    5823    5823       0    5825
    5826    5827    5826    5827    5827       0    5829    5830    5831    5830
    5831    5831       0    5833    5834    5835    5834    5835    5835       0
    5837    5838    5839    5838    5839    5839       0    5841    5842    5843
    5842    5843    5843       0    5845    5846    5847    5846    5847    5847
       0    5849    5850    5851    5850    5851    5851       0    5853    5854
    5855    5854    5855    5855       0    5857    5858    5859    5858    5859
    5859       0    5861    5862    5863    5862    5863    5863       0    5865
    5866    5867    5866    5867    5867       0    5869    5870    5871    5870
    5871    5871       0    5873    5874    5875    5874    5875    5875       0
    5877    5878    5879    5878    5879    5879       0    5881    5882    5883
    5882    5883    5883       0    5885    5886    5887    5886    5887    5887
       0    5889    5890    5891    5890    5891    5891       0    5893    5894
    5895    5894    5895    5895       0    5897    5898    5899    5898    5899
    5899       0    5901    5902    5903    5902    5903    5903       0    5905
    5906    5907    5906    5907    5907       0    5909    5910    5911    5910
    5911    5911       0    5913    5914    5915    5914    5915    5915       0
    5917    5918    5919    5918    5919    5919       0    5921    5922    5923
    5922    5923    5923       0    5925    5926    5927    5926    5927    5927
       0    5929    5930    5931    5930    5931    5931       0    5933    5934
    5935    5934    5935    5935       0    5937    5938    5939    5938    5939
    5939       0    5941    5942    5943    5942    5943    5943       0    5945
    5946    5947    5946    5947    5947       0    5949    5950    5951    5950
    5951    5951       0    5953    5954    5955    5954    5955    5955       0
    5957    5958    5959    5958    5959    5959       0    5961    5962    5963
    5962    5963    5963       0    5965    5966    5967    5966    5967    5967
       0    5969    5970    5971    5970    5971    5971       0    5973    5974
    5975    5974    5975    5975       0    5977    5978    5979    5978    5979
    5979       0    5981    5982    5983    5982    5983    5983       0    5985
    5986    5987    5986    5987    5987       0    5989    5990    5991    5990
    5991    5991       0    5993    5994    5995    5994    5995    5995       0
    5997    5998    5999    5998    5999    5999       0    6001    6002    6003
    6002    6003    6003       0    6005    6006    6007    6006    6007    6007
       0    6009    6010    6011    6010    6011    6011       0    6013    6014
    6015    6014    6015    6015       0    6017    6018    6019    6018    6019
    6019       0    6021    6022    6023    6022    6023    6023       0    6025
    6026    6027    6026    6027    6027       0    6029    6030    6031    6030
    6031    6031       0    6033    6034    6035    6034    6035    6035       0
    6037    6038    6039    6038    6039    6039       0    6041    6042    6043
    6042    6043    6043       0    6045    6046    6047    6046    6047    6047
       0    6049    6050    6051    6050    6051    6051       0    6053    6054
    6055    6054    6055    6055       0    6057    6058    6059    6058    6059
    6059       0    6061    6062    6063    6062    6063    6063       0    6065
    6066    6067    6066    6067    6067       0    6069    6070    6071    6070
    6071    6071       0    6073    6074    6075    6074    6075    6075       0
    6077    6078    6079    6078    6079    6079       0    6081    6082    6083
    6082    6083    6083       0    6085    6086    6087    6086    6087    6087
       0    6089    6090    6091    6090    6091    6091       0    6093    6094
    6095    6094    6095    6095       0    6097    6098    6099    6098    6099
    6099       0    6101    6102    6103    6102    6103    6103       0    6105
    6106    6107    6106    6107    6107       0    6109    6110    6111    6110
    6111    6111       0    6113    6114    6115    6114    6115    6115       0
    6117    6118    6119    6118    6119    6119       0    6121    6122    6123
    6122    6123    6123       0    6125    6126    6127    6126    6127    6127
       0    6129    6130    6131    6130    6131    6131       0    6133    6134
    6135    6134    6135    6135       0    6137    6138    6139    6138    6139
    6139       0    6141    6142    6143    6142    6143    6143       0    6145
    6146    6147    6146    6147    6147       0    6149    6150    6151    6150
    6151    6151       0    6153    6154    6155    6154    6155    6155       0
    6157    6158    6159    6158    6159    6159       0    6161    6162    6163
    6162    6163    6163       0    6165    6166    6167    6166    6167    6167
       0    6169    6170    6171    6170    6171    6171       0    6173    6174
    6175    6174    6175    6175       0    6177    6178    6179    6178    6179
    6179       0    6181    6182    6183    6182    6183    6183       0    6185
    6186    6187    6186    6187    6187       0    6189    6190    6191    6190
    6191    6191       0    6193    6194    6195    6194    6195    6195       0
    6197    6198    6199    6198    6199    6199       0    6201    6202    6203
    6202    6203    6203       0    6205    6206    6207    6206    6207    6207
       0    6209    6210    6211    6210    6211    6211       0    6213    6214
    6215    6214    6215    6215       0    6217    6218    6219    6218    6219
    6219       0    6221    6222    6223    6222    6223    6223       0    6225
    6226    6227    6226    6227    6227       0    6229    6230    6231    6230
    6231    6231       0    6233    6234    6235    6234    6235    6235       0
    6237    6238    6239    6238    6239    6239       0    6241    6242    6243
    6242    6243    6243       0    6245    6246    6247    6246    6247    6247
       0    6249    6250    6251    6250    6251    6251       0    6253    6254
    6255    6254    6255    6255       0    6257    6258    6259    6258    6259
    6259       0    6261    6262    6263    6262    6263    6263       0    6265
    6266    6267    6266    6267    6267       0    6269    6270    6271    6270
    6271    6271       0    6273    6274    6275    6274    6275    6275       0
    6277    6278    6279    6278    6279    6279       0    6281    6282    6283
    6282    6283    6283       0    6285    6286    6287    6286    6287    6287
       0    6289    6290    6291    6290    6291    6291       0    6293    6294
    6295    6294    6295    6295       0    6297    6298    6299    6298    6299
    6299       0    6301    6302    6303    6302    6303    6303       0    6305
    6306    6307    6306    6307    6307       0    6309    6310    6311    6310
    6311    6311       0    6313    6314    6315    6314    6315    6315       0
    6317    6318    6319    6318    6319    6319       0    6321    6322    6323
    6322    6323    6323       0    6325    6326    6327    6326    6327    6327
       0    6329    6330    6331    6330    6331    6331       0    6333    6334
    6335    6334    6335    6335       0    6337    6338    6339    6338    6339
    6339       0    6341    6342    6343    6342    6343    6343       0    6345
    6346    6347    6346    6347    6347       0    6349    6350    6351    6350
    6351    6351       0    6353    6354    6355    6354    6355    6355       0
    6357    6358    6359    6358    6359    6359       0    6361    6362    6363
    6362    6363    6363       0    6365    6366    6367    6366    6367    6367
       0    6369    6370    6371    6370    6371    6371       0    6373    6374
    6375    6374    6375    6375       0    6377    6378    6379    6378    6379
    6379       0    6381    6382    6383    6382    6383    6383       0    6385
    6386    6387    6386    6387    6387       0    6389    6390    6391    6390
    6391    6391       0    6393    6394    6395    6394    6395    6395       0
    6397    6398    6399    6398    6399    6399       0    6401    6402    6403
    6402    6403    6403       0    6405    6406    6407    6406    6407    6407
       0    6409    6410    6411    6410    6411    6411       0    6413    6414
    6415    6414    6415    6415       0    6417    6418    6419    6418    6419
    6419       0    6421    6422    6423    6422    6423    6423       0    6425
    6426    6427    6426    6427    6427       0    6429    6430    6431    6430
    6431    6431       0    6433    6434    6435    6434    6435    6435       0
    6437    6438    6439    6438    6439    6439       0    6441    6442    6443
    6442    6443    6443       0    6445    6446    6447    6446    6447    6447
       0    6449    6450    6451    6450    6451    6451       0    6453    6454
    6455    6454    6455    6455       0    6457    6458    6459    6458    6459
    6459       0    6461    6462    6463    6462    6463    6463       0    6465
    6466    6467    6466    6467    6467       0    6469    6470    6471    6470
    6471    6471       0    6473    6474    6475    6474    6475    6475       0
    6477    6478    6479    6478    6479    6479       0    6481    6482    6483
    6482    6483    6483       0    6485    6486    6487    6486    6487    6487
       0    6489    6490    6491    6490    6491    6491       0    6493    6494
    6495    6494    6495    6495       0    6497    6498    6499    6498    6499
    6499       0    6501    6502    6503    6502    6503    6503       0    6505
    6506    6507    6506    6507    6507       0    6509    6510    6511    6510
    6511    6511       0    6513    6514    6515    6514    6515    6515       0
    6517    6518    6519    6518    6519    6519       0    6521    6522    6523
    6522    6523    6523       0    6525    6526    6527    6526    6527    6527
       0    6529    6530    6531    6530    6531    6531       0    6533    6534
    6535    6534    6535    6535       0    6537    6538    6539    6538    6539
    6539       0    6541    6542    6543    6542    6543    6543       0    6545
    6546    6547    6546    6547    6547       0    6549    6550    6551    6550
    6551    6551       0    6553    6554    6555    6554    6555    6555       0
    6557    6558    6559    6558    6559    6559       0    6561    6562    6563
    6562    6563    6563       0    6565    6566    6567    6566    6567    6567
       0    6569    6570    6571    6570    6571    6571       0    6573    6574
    6575    6574    6575    6575       0    6577    6578    6579    6578    6579
    6579       0    6581    6582    6583    6582    6583    6583       0    6585
    6586    6587    6586    6587    6587       0    6589    6590    6591    6590
    6591    6591       0    6593    6594    6595    6594    6595    6595       0
    6597    6598    6599    6598    6599    6599       0    6601    6602    6603
    6602    6603    6603       0    6605    6606    6607    6606    6607    6607
       0    6609    6610    6611    6610    6611    6611       0    6613    6614
    6615    6614    6615    6615       0    6617    6618    6619    6618    6619
    6619       0    6621    6622    6623    6622    6623    6623       0    6625
    6626    6627    6626    6627    6627       0    6629    6630    6631    6630
    6631    6631       0    6633    6634    6635    6634    6635    6635       0
    6637    6638    6639    6638    6639    6639       0    6641    6642    6643
    6642    6643    6643       0    6645    6646    6647    6646    6647    6647
       0    6649    6650    6651    6650    6651    6651       0    6653    6654
    6655    6654    6655    6655       0    6657    6658    6659    6658    6659
    6659       0    6661    6662    6663    6662    6663    6663       0    6665
    6666    6667    6666    6667    6667       0    6669    6670    6671    6670
    6671    6671       0    6673    6674    6675    6674    6675    6675       0
    6677    6678    6679    6678    6679    6679       0    6681    6682    6683
    6682    6683    6683       0    6685    6686    6687    6686    6687    6687
       0    6689    6690    6691    6690    6691    6691       0    6693    6694
    6695    6694    6695    6695       0    6697    6698    6699    6698    6699
    6699       0    6701    6702    6703    6702    6703    6703       0    6705
    6706    6707    6706    6707    6707       0    6709    6710    6711    6710
    6711    6711       0    6713    6714    6715    6714    6715    6715       0
    6717    6718    6719    6718    6719    6719       0    6721    6722    6723
    6722    6723    6723       0    6725    6726    6727    6726    6727    6727
       0    6729    6730    6731    6730    6731    6731       0    6733    6734
    6735    6734    6735    6735       0    6737    6738    6739    6738    6739
    6739       0    6741    6742    6743    6742    6743    6743       0    6745
    6746    6747    6746    6747    6747       0    6749    6750    6751    6750
    6751    6751       0    6753    6754    6755    6754    6755    6755       0
    6757    6758    6759    6758    6759    6759       0    6761    6762    6763
    6762    6763    6763       0    6765    6766    6767    6766    6767    6767
       0    6769    6770    6771    6770    6771    6771       0    6773    6774
    6775    6774    6775    6775       0    6777    6778    6779    6778    6779
    6779       0    6781    6782    6783    6782    6783    6783       0    6785
    6786    6787    6786    6787    6787       0    6789    6790    6791    6790
    6791    6791       0    6793    6794    6795    6794    6795    6795       0
    6797    6798    6799    6798    6799    6799       0    6801    6802    6803
    6802    6803    6803       0    6805    6806    6807    6806    6807    6807
       0    6809    6810    6811    6810    6811    6811       0    6813    6814
    6815    6814    6815    6815       0    6817    6818    6819    6818    6819
    6819       0    6821    6822    6823    6822    6823    6823       0    6825
    6826    6827    6826    6827    6827       0    6829    6830    6831    6830
    6831    6831       0    6833    6834    6835    6834    6835    6835       0
    6837    6838    6839    6838    6839    6839       0    6841    6842    6843
    6842    6843    6843       0    6845    6846    6847    6846    6847    6847
       0    6849    6850    6851    6850    6851    6851       0    6853    6854
    6855    6854    6855    6855       0    6857    6858    6859    6858    6859
    6859       0    6861    6862    6863    6862    6863    6863       0    6865
    6866    6867    6866    6867    6867       0    6869    6870    6871    6870
    6871    6871       0    6873    6874    6875    6874    6875    6875       0
    6877    6878    6879    6878    6879    6879       0    6881    6882    6883
    6882    6883    6883       0    6885    6886    6887    6886    6887    6887
       0    6889    6890    6891    6890    6891    6891       0    6893    6894
    6895    6894    6895    6895       0    6897    6898    6899    6898    6899
    6899       0    6901    6902    6903    6902    6903    6903       0    6905
    6906    6907    6906    6907    6907       0    6909    6910    6911    6910
    6911    6911       0    6913    6914    6915    6914    6915    6915       0
    6917    6918    6919    6918    6919    6919       0    6921    6922    6923
    6922    6923    6923       0    6925    6926    6927    6926    6927    6927
       0    6929    6930    6931    6930    6931    6931       0    6933    6934
    6935    6934    6935    6935       0    6937    6938    6939    6938    6939
    6939       0    6941    6942    6943    6942    6943    6943       0    6945
    6946    6947    6946    6947    6947       0    6949    6950    6951    6950
    6951    6951       0    6953    6954    6955    6954    6955    6955       0
    6957    6958    6959    6958    6959    6959       0    6961    6962    6963
    6962    6963    6963       0    6965    6966    6967    6966    6967    6967
       0    6969    6970    6971    6970    6971    6971       0    6973    6974
    6975    6974    6975    6975       0    6977    6978    6979    6978    6979
    6979       0    6981    6982    6983    6982    6983    6983       0    6985
    6986    6987    6986    6987    6987       0    6989    6990    6991    6990
    6991    6991       0    6993    6994    6995    6994    6995    6995       0
    6997    6998    6999    6998    6999    6999       0    7001    7002    7003
    7002    7003    7003       0    7005    7006    7007    7006    7007    7007
       0    7009    7010    7011    7010    7011    7011       0    7013    7014
    7015    7014    7015    7015       0    7017    7018    7019    7018    7019
    7019       0    7021    7022    7023    7022    7023    7023       0    7025
    7026    7027    7026    7027    7027       0    7029    7030    7031    7030
    7031    7031       0    7033    7034    7035    7034    7035    7035       0
    7037    7038    7039    7038    7039    7039       0    7041    7042    7043
    7042    7043    7043       0    7045    7046    7047    7046    7047    7047
       0    7049    7050    7051    7050    7051    7051       0    7053    7054
    7055    7054    7055    7055       0    7057    7058    7059    7058    7059
    7059       0    7061    7062    7063    7062    7063    7063       0    7065
    7066    7067    7066    7067    7067       0    7069    7070    7071    7070
    7071    7071       0    7073    7074    7075    7074    7075    7075       0
    7077    7078    7079    7078    7079    7079       0    7081    7082    7083
    7082    7083    7083       0    7085    7086    7087    7086    7087    7087
       0    7089    7090    7091    7090    7091    7091       0    7093    7094
    7095    7094    7095    7095       0    7097    7098    7099    7098    7099
    7099       0    7101    7102    7103    7102    7103    7103       0    7105
    7106    7107    7106    7107    7107       0    7109    7110    7111    7110
    7111    7111       0    7113    7114    7115    7114    7115    7115       0
    7117    7118    7119    7118    7119    7119       0    7121    7122    7123
    7122    7123    7123       0    7125    7126    7127    7126    7127    7127
       0    7129    7130    7131    7130    7131    7131       0    7133    7134
    7135    7134    7135    7135       0    7137    7138    7139    7138    7139
    7139       0    7141    7142    7143    7142    7143    7143       0    7145
    7146    7147    7146    7147    7147       0    7149    7150    7151    7150
    7151    7151       0    7153    7154    7155    7154    7155    7155       0
    7157    7158    7159    7158    7159    7159       0    7161    7162    7163
    7162    7163    7163       0    7165    7166    7167    7166    7167    7167
       0    7169    7170    7171    7170    7171    7171       0    7173    7174
    7175    7174    7175    7175       0    7177    7178    7179    7178    7179
    7179       0    7181    7182    7183    7182    7183    7183       0    7185
    7186    7187    7186    7187    7187       0    7189    7190    7191    7190
    7191    7191       0    7193    7194    7195    7194    7195    7195       0
    7197    7198    7199    7198    7199    7199       0    7201    7202    7203
    7202    7203    7203       0    7205    7206    7207    7206    7207    7207
       0    7209    7210    7211    7210    7211    7211       0    7213    7214
    7215    7214    7215    7215       0    7217    7218    7219    7218    7219
    7219       0    7221    7222    7223    7222    7223    7223       0    7225
    7226    7227    7226    7227    7227       0    7229    7230    7231    7230
    7231    7231       0    7233    7234    7235    7234    7235    7235       0
    7237    7238    7239    7238    7239    7239       0    7241    7242    7243
    7242    7243    7243       0    7245    7246    7247    7246    7247    7247
       0    7249    7250    7251    7250    7251    7251       0    7253    7254
    7255    7254    7255    7255       0    7257    7258    7259    7258    7259
    7259       0    7261    7262    7263    7262    7263    7263       0    7265
    7266    7267    7266    7267    7267       0    7269    7270    7271    7270
    7271    7271       0    7273    7274    7275    7274    7275    7275       0
    7277    7278    7279    7278    7279    7279       0    7281    7282    7283
    7282    7283    7283       0    7285    7286    7287    7286    7287    7287
       0    7289    7290    7291    7290    7291    7291       0    7293    7294
    7295    7294    7295    7295       0    7297    7298    7299    7298    7299
    7299       0    7301    7302    7303    7302    7303    7303       0    7305
    7306    7307    7306    7307    7307       0    7309    7310    7311    7310
    7311    7311       0    7313    7314    7315    7314    7315    7315       0
    7317    7318    7319    7318    7319    7319       0    7321    7322    7323
    7322    7323    7323       0    7325    7326    7327    7326    7327    7327
       0    7329    7330    7331    7330    7331    7331       0    7333    7334
    7335    7334    7335    7335       0    7337    7338    7339    7338    7339
    7339       0    7341    7342    7343    7342    7343    7343       0    7345
    7346    7347    7346    7347    7347       0    7349    7350    7351    7350
    7351    7351       0    7353    7354    7355    7354    7355    7355       0
    7357    7358    7359    7358    7359    7359       0    7361    7362    7363
    7362    7363    7363       0    7365    7366    7367    7366    7367    7367
       0    7369    7370    7371    7370    7371    7371       0    7373    7374
    7375    7374    7375    7375       0    7377    7378    7379    7378    7379
    7379       0    7381    7382    7383    7382    7383    7383       0    7385
    7386    7387    7386    7387    7387       0    7389    7390    7391    7390
    7391    7391       0    7393    7394    7395    7394    7395    7395       0
    7397    7398    7399    7398    7399    7399       0    7401    7402    7403
    7402    7403    7403       0    7405    7406    7407    7406    7407    7407
       0    7409    7410    7411    7410    7411    7411       0    7413    7414
    7415    7414    7415    7415       0    7417    7418    7419    7418    7419
    7419       0    7421    7422    7423    7422    7423    7423       0    7425
    7426    7427    7426    7427    7427       0    7429    7430    7431    7430
    7431    7431       0    7433    7434    7435    7434    7435    7435       0
    7437    7438    7439    7438    7439    7439       0    7441    7442    7443
    7442    7443    7443       0    7445    7446    7447    7446    7447    7447
       0    7449    7450    7451    7450    7451    7451       0    7453    7454
    7455    7454    7455    7455       0    7457    7458    7459    7458    7459
    7459       0    7461    7462    7463    7462    7463    7463       0    7465
    7466    7467    7466    7467    7467       0    7469    7470    7471    7470
    7471    7471       0    7473    7474    7475    7474    7475    7475       0
    7477    7478    7479    7478    7479    7479       0    7481    7482    7483
    7482    7483    7483       0    7485    7486    7487    7486    7487    7487
       0    7489    7490    7491    7490    7491    7491       0    7493    7494
    7495    7494    7495    7495       0    7497    7498    7499    7498    7499
    7499       0    7501    7502    7503    7502    7503    7503       0    7505
    7506    7507    7506    7507    7507       0    7509    7510    7511    7510
    7511    7511       0    7513    7514    7515    7514    7515    7515       0
    7517    7518    7519    7518    7519    7519       0    7521    7522    7523
    7522    7523    7523       0    7525    7526    7527    7526    7527    7527
       0    7529    7530    7531    7530    7531    7531       0    7533    7534
    7535    7534    7535    7535       0    7537    7538    7539    7538    7539
    7539       0    7541    7542    7543    7542    7543    7543       0    7545
    7546    7547    7546    7547    7547       0    7549    7550    7551    7550
    7551    7551       0    7553    7554    7555    7554    7555    7555       0
    7557    7558    7559    7558    7559    7559       0    7561    7562    7563
    7562    7563    7563       0    7565    7566    7567    7566    7567    7567
       0    7569    7570    7571    7570    7571    7571       0    7573    7574
    7575    7574    7575    7575       0    7577    7578    7579    7578    7579
    7579       0    7581    7582    7583    7582    7583    7583       0    7585
    7586    7587    7586    7587    7587       0    7589    7590    7591    7590
    7591    7591       0    7593    7594    7595    7594    7595    7595       0
    7597    7598    7599    7598    7599    7599       0    7601    7602    7603
    7602    7603    7603       0    7605    7606    7607    7606    7607    7607
       0    7609    7610    7611    7610    7611    7611       0    7613    7614
    7615    7614    7615    7615       0    7617    7618    7619    7618    7619
    7619       0    7621    7622    7623    7622    7623    7623       0    7625
    7626    7627    7626    7627    7627       0    7629    7630    7631    7630
    7631    7631       0    7633    7634    7635    7634    7635    7635       0
    7637    7638    7639    7638    7639    7639       0    7641    7642    7643
    7642    7643    7643       0    7645    7646    7647    7646    7647    7647
       0    7649    7650    7651    7650    7651    7651       0    7653    7654
    7655    7654    7655    7655       0    7657    7658    7659    7658    7659
    7659       0    7661    7662    7663    7662    7663    7663       0    7665
    7666    7667    7666    7667    7667       0    7669    7670    7671    7670
    7671    7671       0    7673    7674    7675    7674    7675    7675       0
    7677    7678    7679    7678    7679    7679       0    7681    7682    7683
    7682    7683    7683       0    7685    7686    7687    7686    7687    7687
       0    7689    7690    7691    7690    7691    7691       0    7693    7694
    7695    7694    7695    7695       0    7697    7698    7699    7698    7699
    7699       0    7701    7702    7703    7702    7703    7703       0    7705
    7706    7707    7706    7707    7707       0    7709    7710    7711    7710
    7711    7711       0    7713    7714    7715    7714    7715    7715       0
    7717    7718    7719    7718    7719    7719       0    7721    7722    7723
    7722    7723    7723       0    7725    7726    7727    7726    7727    7727
       0    7729    7730    7731    7730    7731    7731       0    7733    7734
    7735    7734    7735    7735       0    7737    7738    7739    7738    7739
    7739       0    7741    7742    7743    7742    7743    7743       0    7745
    7746    7747    7746    7747    7747       0    7749    7750    7751    7750
    7751    7751       0    7753    7754    7755    7754    7755    7755       0
    7757    7758    7759    7758    7759    7759       0    7761    7762    7763
    7762    7763    7763       0    7765    7766    7767    7766    7767    7767
       0    7769    7770    7771    7770    7771    7771       0    7773    7774
    7775    7774    7775    7775       0    7777    7778    7779    7778    7779
    7779       0    7781    7782    7783    7782    7783    7783       0    7785
    7786    7787    7786    7787    7787       0    7789    7790    7791    7790
    7791    7791       0    7793    7794    7795    7794    7795    7795       0
    7797    7798    7799    7798    7799    7799       0    7801    7802    7803
    7802    7803    7803       0    7805    7806    7807    7806    7807    7807
       0    7809    7810    7811    7810    7811    7811       0    7813    7814
    7815    7814    7815    7815       0    7817    7818    7819    7818    7819
    7819       0    7821    7822    7823    7822    7823    7823       0    7825
    7826    7827    7826    7827    7827       0    7829    7830    7831    7830
    7831    7831       0    7833    7834    7835    7834    7835    7835       0
    7837    7838    7839    7838    7839    7839       0    7841    7842    7843
    7842    7843    7843       0    7845    7846    7847    7846    7847    7847
       0    7849    7850    7851    7850    7851    7851       0    7853    7854
    7855    7854    7855    7855       0    7857    7858    7859    7858    7859
    7859       0    7861    7862    7863    7862    7863    7863       0    7865
    7866    7867    7866    7867    7867       0    7869    7870    7871    7870
    7871    7871       0    7873    7874    7875    7874    7875    7875       0
    7877    7878    7879    7878    7879    7879       0    7881    7882    7883
    7882    7883    7883       0    7885    7886    7887    7886    7887    7887
       0    7889    7890    7891    7890    7891    7891       0    7893    7894
    7895    7894    7895    7895       0    7897    7898    7899    7898    7899
    7899       0    7901    7902    7903    7902    7903    7903       0    7905
    7906    7907    7906    7907    7907       0    7909    7910    7911    7910
    7911    7911       0    7913    7914    7915    7914    7915    7915       0
    7917    7918    7919    7918    7919    7919       0    7921    7922    7923
    7922    7923    7923       0    7925    7926    7927    7926    7927    7927
       0    7929    7930    7931    7930    7931    7931       0    7933    7934
    7935    7934    7935    7935       0    7937    7938    7939    7938    7939
    7939       0    7941    7942    7943    7942    7943    7943       0    7945
    7946    7947    7946    7947    7947       0    7949    7950    7951    7950
    7951    7951       0    7953    7954    7955    7954    7955    7955       0
    7957    7958    7959    7958    7959    7959       0    7961    7962    7963
    7962    7963    7963       0    7965    7966    7967    7966    7967    7967
       0    7969    7970    7971    7970    7971    7971       0    7973    7974
    7975    7974    7975    7975       0    7977    7978    7979    7978    7979
    7979       0    7981    7982    7983    7982    7983    7983       0    7985
    7986    7987    7986    7987    7987       0    7989    7990    7991    7990
    7991    7991       0    7993    7994    7995    7994    7995    7995       0
    7997    7998    7999    7998    7999    7999       0    8001    8002    8003
    8002    8003    8003       0    8005    8006    8007    8006    8007    8007
       0    8009    8010    8011    8010    8011    8011       0    8013    8014
    8015    8014    8015    8015       0    8017    8018    8019    8018    8019
    8019       0    8021    8022    8023    8022    8023    8023       0    8025
    8026    8027    8026    8027    8027       0    8029    8030    8031    8030
    8031    8031       0    8033    8034    8035    8034    8035    8035       0
    8037    8038    8039    8038    8039    8039       0    8041    8042    8043
    8042    8043    8043       0    8045    8046    8047    8046    8047    8047
       0    8049    8050    8051    8050    8051    8051       0    8053    8054
    8055    8054    8055    8055       0    8057    8058    8059    8058    8059
    8059       0    8061    8062    8063    8062    8063    8063       0    8065
    8066    8067    8066    8067    8067       0    8069    8070    8071    8070
    8071    8071       0    8073    8074    8075    8074    8075    8075       0
    8077    8078    8079    8078    8079    8079       0    8081    8082    8083
    8082    8083    8083       0    8085    8086    8087    8086    8087    8087
       0    8089    8090    8091    8090    8091    8091       0    8093    8094
    8095    8094    8095    8095       0    8097    8098    8099    8098    8099
    8099       0    8101    8102    8103    8102    8103    8103       0    8105
    8106    8107    8106    8107    8107       0    8109    8110    8111    8110
    8111    8111       0    8113    8114    8115    8114    8115    8115       0
    8117    8118    8119    8118    8119    8119       0    8121    8122    8123
    8122    8123    8123       0    8125    8126    8127    8126    8127    8127
       0    8129    8130    8131    8130    8131    8131       0    8133    8134
    8135    8134    8135    8135       0    8137    8138    8139    8138    8139
    8139       0    8141    8142    8143    8142    8143    8143       0    8145
    8146    8147    8146    8147    8147       0    8149    8150    8151    8150
    8151    8151       0    8153    8154    8155    8154    8155    8155       0
    8157    8158    8159    8158    8159    8159       0    8161    8162    8163
    8162    8163    8163       0    8165    8166    8167    8166    8167    8167
       0    8169    8170    8171    8170    8171    8171       0    8173    8174
    8175    8174    8175    8175       0    8177    8178    8179    8178    8179
    8179       0    8181    8182    8183    8182    8183    8183       0    8185
    8186    8187    8186    8187    8187       0    8189    8190    8191    8190
    8191    8191       0    8193    8194    8195    8194    8195    8195       0
    8197    8198    8199    8198    8199    8199       0    8201    8202    8203
    8202    8203    8203       0    8205    8206    8207    8206    8207    8207
       0    8209    8210    8211    8210    8211    8211       0    8213    8214
    8215    8214    8215    8215       0    8217    8218    8219    8218    8219
    8219       0    8221    8222    8223    8222    8223    8223       0    8225
    8226    8227    8226    8227    8227       0    8229    8230    8231    8230
    8231    8231       0    8233    8234    8235    8234    8235    8235       0
    8237    8238    8239    8238    8239    8239       0    8241    8242    8243
    8242    8243    8243       0    8245    8246    8247    8246    8247    8247
       0    8249    8250    8251    8250    8251    8251       0    8253    8254
    8255    8254    8255    8255       0    8257    8258    8259    8258    8259
    8259       0    8261    8262    8263    8262    8263    8263       0    8265
    8266    8267    8266    8267    8267       0    8269    8270    8271    8270
    8271    8271       0    8273    8274    8275    8274    8275    8275       0
    8277    8278    8279    8278    8279    8279       0    8281    8282    8283
    8282    8283    8283       0    8285    8286    8287    8286    8287    8287
       0    8289    8290    8291    8290    8291    8291       0    8293    8294
    8295    8294    8295    8295       0    8297    8298    8299    8298    8299
    8299       0    8301    8302    8303    8302    8303    8303       0    8305
    8306    8307    8306    8307    8307       0    8309    8310    8311    8310
    8311    8311       0    8313    8314    8315    8314    8315    8315       0
    8317    8318    8319    8318    8319    8319       0    8321    8322    8323
    8322    8323    8323       0    8325    8326    8327    8326    8327    8327
       0    8329    8330    8331    8330    8331    8331       0    8333    8334
    8335    8334    8335    8335       0    8337    8338    8339    8338    8339
    8339       0    8341    8342    8343    8342    8343    8343       0    8345
    8346    8347    8346    8347    8347       0    8349    8350    8351    8350
    8351    8351       0    8353    8354    8355    8354    8355    8355       0
    8357    8358    8359    8358    8359    8359       0    8361    8362    8363
    8362    8363    8363       0    8365    8366    8367    8366    8367    8367
       0    8369    8370    8371    8370    8371    8371       0    8373    8374
    8375    8374    8375    8375       0    8377    8378    8379    8378    8379
    8379       0    8381    8382    8383    8382    8383    8383       0    8385
    8386    8387    8386    8387    8387       0    8389    8390    8391    8390
    8391    8391       0    8393    8394    8395    8394    8395    8395       0
    8397    8398    8399    8398    8399    8399       0    8401    8402    8403
    8402    8403    8403       0    8405    8406    8407    8406    8407    8407
       0    8409    8410    8411    8410    8411    8411       0    8413    8414
    8415    8414    8415    8415       0    8417    8418    8419    8418    8419
    8419       0    8421    8422    8423    8422    8423    8423       0    8425
    8426    8427    8426    8427    8427       0    8429    8430    8431    8430
    8431    8431       0    8433    8434    8435    8434    8435    8435       0
    8437    8438    8439    8438    8439    8439       0    8441    8442    8443
    8442    8443    8443       0    8445    8446    8447    8446    8447    8447
       0    8449    8450    8451    8450    8451    8451       0    8453    8454
    8455    8454    8455    8455       0    8457    8458    8459    8458    8459
    8459       0    8461    8462    8463    8462    8463    8463       0    8465
    8466    8467    8466    8467    8467       0    8469    8470    8471    8470
    8471    8471       0    8473    8474    8475    8474    8475    8475       0
    8477    8478    8479    8478    8479    8479       0    8481    8482    8483
    8482    8483    8483       0    8485    8486    8487    8486    8487    8487
       0    8489    8490    8491    8490    8491    8491       0    8493    8494
    8495    8494    8495    8495       0    8497    8498    8499    8498    8499
    8499       0    8501    8502    8503    8502    8503    8503       0    8505
    8506    8507    8506    8507    8507       0    8509    8510    8511    8510
    8511    8511       0    8513    8514    8515    8514    8515    8515       0
    8517    8518    8519    8518    8519    8519       0    8521    8522    8523
    8522    8523    8523       0    8525    8526    8527    8526    8527    8527
       0    8529    8530    8531    8530    8531    8531       0    8533    8534
    8535    8534    8535    8535       0    8537    8538    8539    8538    8539
    8539       0    8541    8542    8543    8542    8543    8543       0    8545
    8546    8547    8546    8547    8547       0    8549    8550    8551    8550
    8551    8551       0    8553    8554    8555    8554    8555    8555       0
    8557    8558    8559    8558    8559    8559       0    8561    8562    8563
    8562    8563    8563       0    8565    8566    8567    8566    8567    8567
       0    8569    8570    8571    8570    8571    8571       0    8573    8574
    8575    8574    8575    8575       0    8577    8578    8579    8578    8579
    8579       0    8581    8582    8583    8582    8583    8583       0    8585
    8586    8587    8586    8587    8587       0    8589    8590    8591    8590
    8591    8591       0    8593    8594    8595    8594    8595    8595       0
    8597    8598    8599    8598    8599    8599       0    8601    8602    8603
    8602    8603    8603       0    8605    8606    8607    8606    8607    8607
       0    8609    8610    8611    8610    8611    8611       0    8613    8614
    8615    8614    8615    8615       0    8617    8618    8619    8618    8619
    8619       0    8621    8622    8623    8622    8623    8623       0    8625
    8626    8627    8626    8627    8627       0    8629    8630    8631    8630
    8631    8631       0    8633    8634    8635    8634    8635    8635       0
    8637    8638    8639    8638    8639    8639       0    8641    8642    8643
    8642    8643    8643       0    8645    8646    8647    8646    8647    8647
       0    8649    8650    8651    8650    8651    8651       0    8653    8654
    8655    8654    8655    8655       0    8657    8658    8659    8658    8659
    8659       0    8661    8662    8663    8662    8663    8663       0    8665
    8666    8667    8666    8667    8667       0    8669    8670    8671    8670
    8671    8671       0    8673    8674    8675    8674    8675    8675       0
    8677    8678    8679    8678    8679    8679       0    8681    8682    8683
    8682    8683    8683       0    8685    8686    8687    8686    8687    8687
       0    8689    8690    8691    8690    8691    8691       0    8693    8694
    8695    8694    8695    8695       0    8697    8698    8699    8698    8699
    8699       0    8701    8702    8703    8702    8703    8703       0    8705
    8706    8707    8706    8707    8707       0    8709    8710    8711    8710
    8711    8711       0    8713    8714    8715    8714    8715    8715       0
    8717    8718    8719    8718    8719    8719       0    8721    8722    8723
    8722    8723    8723       0    8725    8726    8727    8726    8727    8727
       0    8729    8730    8731    8730    8731    8731       0    8733    8734
    8735    8734    8735    8735       0    8737    8738    8739    8738    8739
    8739       0    8741    8742    8743    8742    8743    8743       0    8745
    8746    8747    8746    8747    8747       0    8749    8750    8751    8750
    8751    8751       0    8753    8754    8755    8754    8755    8755       0
    8757    8758    8759    8758    8759    8759       0    8761    8762    8763
    8762    8763    8763       0    8765    8766    8767    8766    8767    8767
       0    8769    8770    8771    8770    8771    8771       0    8773    8774
    8775    8774    8775    8775       0    8777    8778    8779    8778    8779
    8779       0    8781    8782    8783    8782    8783    8783       0    8785
    8786    8787    8786    8787    8787       0    8789    8790    8791    8790
    8791    8791       0    8793    8794    8795    8794    8795    8795       0
    8797    8798    8799    8798    8799    8799       0    8801    8802    8803
    8802    8803    8803       0    8805    8806    8807    8806    8807    8807
       0    8809    8810    8811    8810    8811    8811       0    8813    8814
    8815    8814    8815    8815       0    8817    8818    8819    8818    8819
    8819       0    8821    8822    8823    8822    8823    8823       0    8825
    8826    8827    8826    8827    8827       0    8829    8830    8831    8830
    8831    8831       0    8833    8834    8835    8834    8835    8835       0
    8837    8838    8839    8838    8839    8839       0    8841    8842    8843
    8842    8843    8843       0    8845    8846    8847    8846    8847    8847
       0    8849    8850    8851    8850    8851    8851       0    8853    8854
    8855    8854    8855    8855       0    8857    8858    8859    8858    8859
    8859       0    8861    8862    8863    8862    8863    8863       0    8865
    8866    8867    8866    8867    8867       0    8869    8870    8871    8870
    8871    8871       0    8873    8874    8875    8874    8875    8875       0
    8877    8878    8879    8878    8879    8879       0    8881    8882    8883
    8882    8883    8883       0    8885    8886    8887    8886    8887    8887
       0    8889    8890    8891    8890    8891    8891       0    8893    8894
    8895    8894    8895    8895       0    8897    8898    8899    8898    8899
    8899       0    8901    8902    8903    8902    8903    8903       0    8905
    8906    8907    8906    8907    8907       0    8909    8910    8911    8910
    8911    8911       0    8913    8914    8915    8914    8915    8915       0
    8917    8918    8919    8918    8919    8919       0    8921    8922    8923
    8922    8923    8923       0    8925    8926    8927    8926    8927    8927
       0    8929    8930    8931    8930    8931    8931       0    8933    8934
    8935    8934    8935    8935       0    8937    8938    8939    8938    8939
    8939       0    8941    8942    8943    8942    8943    8943       0    8945
    8946    8947    8946    8947    8947       0    8949    8950    8951    8950
    8951    8951       0    8953    8954    8955    8954    8955    8955       0
    8957    8958    8959    8958    8959    8959       0    8961    8962    8963
    8962    8963    8963       0    8965    8966    8967    8966    8967    8967
       0    8969    8970    8971    8970    8971    8971       0    8973    8974
    8975    8974    8975    8975       0    8977    8978    8979    8978    8979
    8979       0    8981    8982    8983    8982    8983    8983       0    8985
    8986    8987    8986    8987    8987       0    8989    8990    8991    8990
    8991    8991       0    8993    8994    8995    8994    8995    8995       0
    8997    8998    8999    8998    8999    8999       0    9001    9002    9003
    9002    9003    9003       0    9005    9006    9007    9006    9007    9007
       0    9009    9010    9011    9010    9011    9011       0    9013    9014
    9015    9014    9015    9015       0    9017    9018    9019    9018    9019
    9019       0    9021    9022    9023    9022    9023    9023       0    9025
    9026    9027    9026    9027    9027       0    9029    9030    9031    9030
    9031    9031       0    9033    9034    9035    9034    9035    9035       0
    9037    9038    9039    9038    9039    9039       0    9041    9042    9043
    9042    9043    9043       0    9045    9046    9047    9046    9047    9047
       0    9049    9050    9051    9050    9051    9051       0    9053    9054
    9055    9054    9055    9055       0    9057    9058    9059    9058    9059
    9059       0    9061    9062    9063    9062    9063    9063       0    9065
    9066    9067    9066    9067    9067       0    9069    9070    9071    9070
    9071    9071       0    9073    9074    9075    9074    9075    9075       0
    9077    9078    9079    9078    9079    9079       0    9081    9082    9083
    9082    9083    9083       0    9085    9086    9087    9086    9087    9087
       0    9089    9090    9091    9090    9091    9091       0    9093    9094
    9095    9094    9095    9095       0    9097    9098    9099    9098    9099
    9099       0    9101    9102    9103    9102    9103    9103       0    9105
    9106    9107    9106    9107    9107       0    9109    9110    9111    9110
    9111    9111       0    9113    9114    9115    9114    9115    9115       0
    9117    9118    9119    9118    9119    9119       0    9121    9122    9123
    9122    9123    9123       0    9125    9126    9127    9126    9127    9127
       0    9129    9130    9131    9130    9131    9131       0    9133    9134
    9135    9134    9135    9135       0    9137    9138    9139    9138    9139
    9139       0    9141    9142    9143    9142    9143    9143       0    9145
    9146    9147    9146    9147    9147       0    9149    9150    9151    9150
    9151    9151       0    9153    9154    9155    9154    9155    9155       0
    9157    9158    9159    9158    9159    9159       0    9161    9162    9163
    9162    9163    9163       0    9165    9166    9167    9166    9167    9167
       0    9169    9170    9171    9170    9171    9171       0    9173    9174
    9175    9174    9175    9175       0    9177    9178    9179    9178    9179
    9179       0    9181    9182    9183    9182    9183    9183       0    9185
    9186    9187    9186    9187    9187       0    9189    9190    9191    9190
    9191    9191       0    9193    9194    9195    9194    9195    9195       0
    9197    9198    9199    9198    9199    9199       0    9201    9202    9203
    9202    9203    9203       0    9205    9206    9207    9206    9207    9207
       0    9209    9210    9211    9210    9211    9211       0    9213    9214
    9215    9214    9215    9215       0    9217    9218    9219    9218    9219
    9219       0    9221    9222    9223    9222    9223    9223       0    9225
    9226    9227    9226    9227    9227       0    9229    9230    9231    9230
    9231    9231       0    9233    9234    9235    9234    9235    9235       0
    9237    9238    9239    9238    9239    9239       0    9241    9242    9243
    9242    9243    9243       0    9245    9246    9247    9246    9247    9247
       0    9249    9250    9251    9250    9251    9251       0    9253    9254
    9255    9254    9255    9255       0    9257    9258    9259    9258    9259
    9259       0    9261    9262    9263    9262    9263    9263       0    9265
    9266    9267    9266    9267    9267       0    9269    9270    9271    9270
    9271    9271       0    9273    9274    9275    9274    9275    9275       0
    9277    9278    9279    9278    9279    9279       0    9281    9282    9283
    9282    9283    9283       0    9285    9286    9287    9286    9287    9287
       0    9289    9290    9291    9290    9291    9291       0    9293    9294
    9295    9294    9295    9295       0    9297    9298    9299    9298    9299
    9299       0    9301    9302    9303    9302    9303    9303       0    9305
    9306    9307    9306    9307    9307       0    9309    9310    9311    9310
    9311    9311       0    9313    9314    9315    9314    9315    9315       0
    9317    9318    9319    9318    9319    9319       0    9321    9322    9323
    9322    9323    9323       0    9325    9326    9327    9326    9327    9327
       0    9329    9330    9331    9330    9331    9331       0    9333    9334
    9335    9334    9335    9335       0    9337    9338    9339    9338    9339
    9339       0    9341    9342    9343    9342    9343    9343       0    9345
    9346    9347    9346    9347    9347       0    9349    9350    9351    9350
    9351    9351       0    9353    9354    9355    9354    9355    9355       0
    9357    9358    9359    9358    9359    9359       0    9361    9362    9363
    9362    9363    9363       0    9365    9366    9367    9366    9367    9367
       0    9369    9370    9371    9370    9371    9371       0    9373    9374
    9375    9374    9375    9375       0    9377    9378    9379    9378    9379
    9379       0    9381    9382    9383    9382    9383    9383       0    9385
    9386    9387    9386    9387    9387       0    9389    9390    9391    9390
    9391    9391       0    9393    9394    9395    9394    9395    9395       0
    9397    9398    9399    9398    9399    9399       0    9401    9402    9403
    9402    9403    9403       0    9405    9406    9407    9406    9407    9407
       0    9409    9410    9411    9410    9411    9411       0    9413    9414
    9415    9414    9415    9415       0    9417    9418    9419    9418    9419
    9419       0    9421    9422    9423    9422    9423    9423       0    9425
    9426    9427    9426    9427    9427       0    9429    9430    9431    9430
    9431    9431       0    9433    9434    9435    9434    9435    9435       0
    9437    9438    9439    9438    9439    9439       0    9441    9442    9443
    9442    9443    9443       0    9445    9446    9447    9446    9447    9447
       0    9449    9450    9451    9450    9451    9451       0    9453    9454
    9455    9454    9455    9455       0    9457    9458    9459    9458    9459
    9459       0    9461    9462    9463    9462    9463    9463       0    9465
    9466    9467    9466    9467    9467       0    9469    9470    9471    9470
    9471    9471       0    9473    9474    9475    9474    9475    9475       0
    9477    9478    9479    9478    9479    9479       0    9481    9482    9483
    9482    9483    9483       0    9485    9486    9487    9486    9487    9487
       0    9489    9490    9491    9490    9491    9491       0    9493    9494
    9495    9494    9495    9495       0    9497    9498    9499    9498    9499
    9499       0    9501    9502    9503    9502    9503    9503       0    9505
    9506    9507    9506    9507    9507       0    9509    9510    9511    9510
    9511    9511       0    9513    9514    9515    9514    9515    9515       0
    9517    9518    9519    9518    9519    9519       0    9521    9522    9523
    9522    9523    9523       0    9525    9526    9527    9526    9527    9527
       0    9529    9530    9531    9530    9531    9531       0    9533    9534
    9535    9534    9535    9535       0    9537    9538    9539    9538    9539
    9539       0    9541    9542    9543    9542    9543    9543       0    9545
    9546    9547    9546    9547    9547       0    9549    9550    9551    9550
    9551    9551       0    9553    9554    9555    9554    9555    9555       0
    9557    9558    9559    9558    9559    9559       0    9561    9562    9563
    9562    9563    9563       0    9565    9566    9567    9566    9567    9567
       0    9569    9570    9571    9570    9571    9571       0    9573    9574
    9575    9574    9575    9575       0    9577    9578    9579    9578    9579
    9579       0    9581    9582    9583    9582    9583    9583       0    9585
    9586    9587    9586    9587    9587       0    9589    9590    9591    9590
    9591    9591       0    9593    9594    9595    9594    9595    9595       0
    9597    9598    9599    9598    9599    9599       0    9601    9602    9603
    9602    9603    9603       0    9605    9606    9607    9606    9607    9607
       0    9609    9610    9611    9610    9611    9611       0    9613    9614
    9615    9614    9615    9615       0    9617    9618    9619    9618    9619
    9619       0    9621    9622    9623    9622    9623    9623       0    9625
    9626    9627    9626    9627    9627       0    9629    9630    9631    9630
    9631    9631       0    9633    9634    9635    9634    9635    9635       0
    9637    9638    9639    9638    9639    9639       0    9641    9642    9643
    9642    9643    9643       0    9645    9646    9647    9646    9647    9647
       0    9649    9650    9651    9650    9651    9651       0    9653    9654
    9655    9654    9655    9655       0    9657    9658    9659    9658    9659
    9659       0    9661    9662    9663    9662    9663    9663       0    9665
    9666    9667    9666    9667    9667       0    9669    9670    9671    9670
    9671    9671       0    9673    9674    9675    9674    9675    9675       0
    9677    9678    9679    9678    9679    9679       0    9681    9682    9683
    9682    9683    9683       0    9685    9686    9687    9686    9687    9687
       0    9689    9690    9691    9690    9691    9691       0    9693    9694
    9695    9694    9695    9695       0    9697    9698    9699    9698    9699
    9699       0    9701    9702    9703    9702    9703    9703       0    9705
    9706    9707    9706    9707    9707       0    9709    9710    9711    9710
    9711    9711       0    9713    9714    9715    9714    9715    9715       0
    9717    9718    9719    9718    9719    9719       0    9721    9722    9723
    9722    9723    9723       0    9725    9726    9727    9726    9727    9727
       0    9729    9730    9731    9730    9731    9731       0    9733    9734
    9735    9734    9735    9735       0    9737    9738    9739    9738    9739
    9739       0    9741    9742    9743    9742    9743    9743       0    9745
    9746    9747    9746    9747    9747       0    9749    9750    9751    9750
    9751    9751       0    9753    9754    9755    9754    9755    9755       0
    9757    9758    9759    9758    9759    9759       0    9761    9762    9763
    9762    9763    9763       0    9765    9766    9767    9766    9767    9767
       0    9769    9770    9771    9770    9771    9771       0    9773    9774
    9775    9774    9775    9775       0    9777    9778    9779    9778    9779
    9779       0    9781    9782    9783    9782    9783    9783       0    9785
    9786    9787    9786    9787    9787       0    9789    9790    9791    9790
    9791    9791       0    9793    9794    9795    9794    9795    9795       0
    9797    9798    9799    9798    9799    9799       0    9801    9802    9803
    9802    9803    9803       0    9805    9806    9807    9806    9807    9807
       0    9809    9810    9811    9810    9811    9811       0    9813    9814
    9815    9814    9815    9815       0    9817    9818    9819    9818    9819
    9819       0    9821    9822    9823    9822    9823    9823       0    9825
    9826    9827    9826    9827    9827       0    9829    9830    9831    9830
    9831    9831       0    9833    9834    9835    9834    9835    9835       0
    9837    9838    9839    9838    9839    9839       0    9841    9842    9843
    9842    9843    9843       0    9845    9846    9847    9846    9847    9847
       0    9849    9850    9851    9850    9851    9851       0    9853    9854
    9855    9854    9855    9855       0    9857    9858    9859    9858    9859
    9859       0    9861    9862    9863    9862    9863    9863       0    9865
    9866    9867    9866    9867    9867       0    9869    9870    9871    9870
    9871    9871       0    9873    9874    9875    9874    9875    9875       0
    9877    9878    9879    9878    9879    9879       0    9881    9882    9883
    9882    9883    9883       0    9885    9886    9887    9886    9887    9887
       0    9889    9890    9891    9890    9891    9891       0    9893    9894
    9895    9894    9895    9895       0    9897    9898    9899    9898    9899
    9899       0    9901    9902    9903    9902    9903    9903       0    9905
    9906    9907    9906    9907    9907       0    9909    9910    9911    9910
    9911    9911       0    9913    9914    9915    9914    9915    9915       0
    9917    9918    9919    9918    9919    9919       0    9921    9922    9923
    9922    9923    9923       0    9925    9926    9927    9926    9927    9927
       0    9929    9930    9931    9930    9931    9931       0    9933    9934
    9935    9934    9935    9935       0    9937    9938    9939    9938    9939
    9939       0    9941    9942    9943    9942    9943    9943       0    9945
    9946    9947    9946    9947    9947       0    9949    9950    9951    9950
    9951    9951       0    9953    9954    9955    9954    9955    9955       0
    9957    9958    9959    9958    9959    9959       0    9961    9962    9963
    9962    9963    9963       0    9965    9966    9967    9966    9967    9967
       0    9969    9970    9971    9970    9971    9971       0    9973    9974
    9975    9974    9975    9975       0    9977    9978    9979    9978    9979
    9979       0    9981    9982    9983    9982    9983    9983       0    9985
    9986    9987    9986    9987    9987       0    9989    9990    9991    9990
    9991    9991       0    9993    9994    9995    9994    9995    9995       0
    9997    9998    9999    9998    9999    9999       0   10001   10002   10003
   10002   10003   10003       0   10005   10006   10007   10006   10007   10007
       0   10009   10010   10011   10010   10011   10011       0   10013   10014
   10015   10014   10015   10015       0   10017   10018   10019   10018   10019
   10019       0   10021   10022   10023   10022   10023   10023       0   10025
   10026   10027   10026   10027   10027       0   10029   10030   10031   10030
   10031   10031       0   10033   10034   10035   10034   10035   10035       0
   10037   10038   10039   10038   10039   10039       0   10041   10042   10043
   10042   10043   10043       0   10045   10046   10047   10046   10047   10047
       0   10049   10050   10051   10050   10051   10051       0   10053   10054
   10055   10054   10055   10055       0   10057   10058   10059   10058   10059
   10059       0   10061   10062   10063   10062   10063   10063       0   10065
   10066   10067   10066   10067   10067       0   10069   10070   10071   10070
   10071   10071       0   10073   10074   10075   10074   10075   10075       0
   10077   10078   10079   10078   10079   10079       0   10081   10082   10083
   10082   10083   10083       0   10085   10086   10087   10086   10087   10087
       0   10089   10090   10091   10090   10091   10091       0   10093   10094
   10095   10094   10095   10095       0   10097   10098   10099   10098   10099
   10099       0   10101   10102   10103   10102   10103   10103       0   10105
   10106   10107   10106   10107   10107       0   10109   10110   10111   10110
   10111   10111       0   10113   10114   10115   10114   10115   10115       0
   10117   10118   10119   10118   10119   10119       0   10121   10122   10123
   10122   10123   10123       0   10125   10126   10127   10126   10127   10127
       0   10129   10130   10131   10130   10131   10131       0   10133   10134
   10135   10134   10135   10135       0   10137   10138   10139   10138   10139
   10139       0   10141   10142   10143   10142   10143   10143       0   10145
   10146   10147   10146   10147   10147       0   10149   10150   10151   10150
   10151   10151       0   10153   10154   10155   10154   10155   10155       0
   10157   10158   10159   10158   10159   10159       0   10161   10162   10163
   10162   10163   10163       0   10165   10166   10167   10166   10167   10167
       0   10169   10170   10171   10170   10171   10171       0   10173   10174
   10175   10174   10175   10175       0   10177   10178   10179   10178   10179
   10179       0   10181   10182   10183   10182   10183   10183       0   10185
   10186   10187   10186   10187   10187       0   10189   10190   10191   10190
   10191   10191       0   10193   10194   10195   10194   10195   10195       0
   10197   10198   10199   10198   10199   10199       0   10201   10202   10203
   10202   10203   10203       0   10205   10206   10207   10206   10207   10207
       0   10209   10210   10211   10210   10211   10211       0   10213   10214
   10215   10214   10215   10215       0   10217   10218   10219   10218   10219
   10219       0   10221   10222   10223   10222   10223   10223       0   10225
   10226   10227   10226   10227   10227       0   10229   10230   10231   10230
   10231   10231       0   10233   10234   10235   10234   10235   10235       0
   10237   10238   10239   10238   10239   10239       0   10241   10242   10243
   10242   10243   10243       0   10245   10246   10247   10246   10247   10247
       0   10249   10250   10251   10250   10251   10251       0   10253   10254
   10255   10254   10255   10255       0   10257   10258   10259   10258   10259
   10259       0   10261   10262   10263   10262   10263   10263       0   10265
   10266   10267   10266   10267   10267       0   10269   10270   10271   10270
   10271   10271       0   10273   10274   10275   10274   10275   10275       0
   10277   10278   10279   10278   10279   10279       0   10281   10282   10283
   10282   10283   10283       0   10285   10286   10287   10286   10287   10287
       0   10289   10290   10291   10290   10291   10291       0   10293   10294
   10295   10294   10295   10295       0   10297   10298   10299   10298   10299
   10299       0   10301   10302   10303   10302   10303   10303       0   10305
   10306   10307   10306   10307   10307       0   10309   10310   10311   10310
   10311   10311       0   10313   10314   10315   10314   10315   10315       0
   10317   10318   10319   10318   10319   10319       0   10321   10322   10323
   10322   10323   10323       0   10325   10326   10327   10326   10327   10327
       0   10329   10330   10331   10330   10331   10331       0   10333   10334
   10335   10334   10335   10335       0   10337   10338   10339   10338   10339
   10339       0   10341   10342   10343   10342   10343   10343       0   10345
   10346   10347   10346   10347   10347       0   10349   10350   10351   10350
   10351   10351       0   10353   10354   10355   10354   10355   10355       0
   10357   10358   10359   10358   10359   10359       0   10361   10362   10363
   10362   10363   10363       0   10365   10366   10367   10366   10367   10367
       0   10369   10370   10371   10370   10371   10371       0   10373   10374
   10375   10374   10375   10375       0   10377   10378   10379   10378   10379
   10379       0   10381   10382   10383   10382   10383   10383       0   10385
   10386   10387   10386   10387   10387       0   10389   10390   10391   10390
   10391   10391       0   10393   10394   10395   10394   10395   10395       0
   10397   10398   10399   10398   10399   10399       0   10401   10402   10403
   10402   10403   10403       0   10405   10406   10407   10406   10407   10407
       0   10409   10410   10411   10410   10411   10411       0   10413   10414
   10415   10414   10415   10415       0   10417   10418   10419   10418   10419
   10419       0   10421   10422   10423   10422   10423   10423       0   10425
   10426   10427   10426   10427   10427       0   10429   10430   10431   10430
   10431   10431       0   10433   10434   10435   10434   10435   10435       0
   10437   10438   10439   10438   10439   10439       0   10441   10442   10443
   10442   10443   10443       0   10445   10446   10447   10446   10447   10447
       0   10449   10450   10451   10450   10451   10451       0   10453   10454
   10455   10454   10455   10455       0   10457   10458   10459   10458   10459
   10459       0   10461   10462   10463   10462   10463   10463       0   10465
   10466   10467   10466   10467   10467       0   10469   10470   10471   10470
   10471   10471       0   10473   10474   10475   10474   10475   10475       0
   10477   10478   10479   10478   10479   10479       0   10481   10482   10483
   10482   10483   10483       0   10485   10486   10487   10486   10487   10487
       0   10489   10490   10491   10490   10491   10491       0   10493   10494
   10495   10494   10495   10495       0   10497   10498   10499   10498   10499
   10499       0   10501   10502   10503   10502   10503   10503       0   10505
   10506   10507   10506   10507   10507       0   10509   10510   10511   10510
   10511   10511       0   10513   10514   10515   10514   10515   10515       0
   10517   10518   10519   10518   10519   10519       0   10521   10522   10523
   10522   10523   10523       0   10525   10526   10527   10526   10527   10527
       0   10529   10530   10531   10530   10531   10531       0   10533   10534
   10535   10534   10535   10535       0   10537   10538   10539   10538   10539
   10539       0   10541   10542   10543   10542   10543   10543       0   10545
   10546   10547   10546   10547   10547       0   10549   10550   10551   10550
   10551   10551       0   10553   10554   10555   10554   10555   10555       0
   10557   10558   10559   10558   10559   10559       0   10561   10562   10563
   10562   10563   10563       0   10565   10566   10567   10566   10567   10567
       0   10569   10570   10571   10570   10571   10571       0   10573   10574
   10575   10574   10575   10575       0   10577   10578   10579   10578   10579
   10579       0   10581   10582   10583   10582   10583   10583       0   10585
   10586   10587   10586   10587   10587       0   10589   10590   10591   10590
   10591   10591       0   10593   10594   10595   10594   10595   10595       0
   10597   10598   10599   10598   10599   10599       0   10601   10602   10603
   10602   10603   10603       0   10605   10606   10607   10606   10607   10607
       0   10609   10610   10611   10610   10611   10611       0   10613   10614
   10615   10614   10615   10615       0   10617   10618   10619   10618   10619
   10619       0   10621   10622   10623   10622   10623   10623       0   10625
   10626   10627   10626   10627   10627       0   10629   10630   10631   10630
   10631   10631       0   10633   10634   10635   10634   10635   10635       0
   10637   10638   10639   10638   10639   10639       0   10641   10642   10643
   10642   10643   10643       0   10645   10646   10647   10646   10647   10647
       0   10649   10650   10651   10650   10651   10651       0   10653   10654
   10655   10654   10655   10655       0   10657   10658   10659   10658   10659
   10659       0   10661   10662   10663   10662   10663   10663       0   10665
   10666   10667   10666   10667   10667       0   10669   10670   10671   10670
   10671   10671       0   10673   10674   10675   10674   10675   10675       0
   10677   10678   10679   10678   10679   10679       0   10681   10682   10683
   10682   10683   10683       0   10685   10686   10687   10686   10687   10687
       0   10689   10690   10691   10690   10691   10691       0   10693   10694
   10695   10694   10695   10695       0   10697   10698   10699   10698   10699
   10699       0   10701   10702   10703   10702   10703   10703       0   10705
   10706   10707   10706   10707   10707       0   10709   10710   10711   10710
   10711   10711       0   10713   10714   10715   10714   10715   10715       0
   10717   10718   10719   10718   10719   10719       0   10721   10722   10723
   10722   10723   10723       0   10725   10726   10727   10726   10727   10727
       0   10729   10730   10731   10730   10731   10731       0   10733   10734
   10735   10734   10735   10735       0   10737   10738   10739   10738   10739
   10739       0   10741   10742   10743   10742   10743   10743       0   10745
   10746   10747   10746   10747   10747       0   10749   10750   10751   10750
   10751   10751       0   10753   10754   10755   10754   10755   10755       0
   10757   10758   10759   10758   10759   10759       0   10761   10762   10763
   10762   10763   10763       0   10765   10766   10767   10766   10767   10767
       0   10769   10770   10771   10770   10771   10771       0   10773   10774
   10775   10774   10775   10775       0   10777   10778   10779   10778   10779
   10779       0   10781   10782   10783   10782   10783   10783       0   10785
   10786   10787   10786   10787   10787       0   10789   10790   10791   10790
   10791   10791       0   10793   10794   10795   10794   10795   10795       0
   10797   10798   10799   10798   10799   10799       0   10801   10802   10803
   10802   10803   10803       0   10805   10806   10807   10806   10807   10807
       0   10809   10810   10811   10810   10811   10811       0   10813   10814
   10815   10814   10815   10815       0   10817   10818   10819   10818   10819
   10819       0   10821   10822   10823   10822   10823   10823       0   10825
   10826   10827   10826   10827   10827       0   10829   10830   10831   10830
   10831   10831       0   10833   10834   10835   10834   10835   10835       0
   10837   10838   10839   10838   10839   10839       0   10841   10842   10843
   10842   10843   10843       0   10845   10846   10847   10846   10847   10847
       0   10849   10850   10851   10850   10851   10851       0   10853   10854
   10855   10854   10855   10855       0   10857   10858   10859   10858   10859
   10859       0   10861   10862   10863   10862   10863   10863       0   10865
   10866   10867   10866   10867   10867       0   10869   10870   10871   10870
   10871   10871       0   10873   10874   10875   10874   10875   10875       0
   10877   10878   10879   10878   10879   10879       0   10881   10882   10883
   10882   10883   10883       0   10885   10886   10887   10886   10887   10887
       0   10889   10890   10891   10890   10891   10891       0   10893   10894
   10895   10894   10895   10895       0   10897   10898   10899   10898   10899
   10899       0   10901   10902   10903   10902   10903   10903       0   10905
   10906   10907   10906   10907   10907       0   10909   10910   10911   10910
   10911   10911       0   10913   10914   10915   10914   10915   10915       0
   10917   10918   10919   10918   10919   10919       0   10921   10922   10923
   10922   10923   10923       0   10925   10926   10927   10926   10927   10927
       0   10929   10930   10931   10930   10931   10931       0   10933   10934
   10935   10934   10935   10935       0   10937   10938   10939   10938   10939
   10939       0   10941   10942   10943   10942   10943   10943       0   10945
   10946   10947   10946   10947   10947       0   10949   10950   10951   10950
   10951   10951       0   10953   10954   10955   10954   10955   10955       0
   10957   10958   10959   10958   10959   10959       0   10961   10962   10963
   10962   10963   10963       0   10965   10966   10967   10966   10967   10967
       0   10969   10970   10971   10970   10971   10971       0   10973   10974
   10975   10974   10975   10975       0   10977   10978   10979   10978   10979
   10979       0   10981   10982   10983   10982   10983   10983       0   10985
   10986   10987   10986   10987   10987       0   10989   10990   10991   10990
   10991   10991       0   10993   10994   10995   10994   10995   10995       0
   10997   10998   10999   10998   10999   10999       0   11001   11002   11003
   11002   11003   11003       0   11005   11006   11007   11006   11007   11007
       0   11009   11010   11011   11010   11011   11011       0   11013   11014
   11015   11014   11015   11015       0   11017   11018   11019   11018   11019
   11019       0   11021   11022   11023   11022   11023   11023       0   11025
   11026   11027   11026   11027   11027       0   11029   11030   11031   11030
   11031   11031       0   11033   11034   11035   11034   11035   11035       0
   11037   11038   11039   11038   11039   11039       0   11041   11042   11043
   11042   11043   11043       0   11045   11046   11047   11046   11047   11047
       0   11049   11050   11051   11050   11051   11051       0   11053   11054
   11055   11054   11055   11055       0   11057   11058   11059   11058   11059
   11059       0   11061   11062   11063   11062   11063   11063       0   11065
   11066   11067   11066   11067   11067       0   11069   11070   11071   11070
   11071   11071       0   11073   11074   11075   11074   11075   11075       0
   11077   11078   11079   11078   11079   11079       0   11081   11082   11083
   11082   11083   11083       0   11085   11086   11087   11086   11087   11087
       0   11089   11090   11091   11090   11091   11091       0   11093   11094
   11095   11094   11095   11095       0   11097   11098   11099   11098   11099
   11099       0   11101   11102   11103   11102   11103   11103       0   11105
   11106   11107   11106   11107   11107       0   11109   11110   11111   11110
   11111   11111       0   11113   11114   11115   11114   11115   11115       0
   11117   11118   11119   11118   11119   11119       0   11121   11122   11123
   11122   11123   11123       0   11125   11126   11127   11126   11127   11127
       0   11129   11130   11131   11130   11131   11131       0   11133   11134
   11135   11134   11135   11135       0   11137   11138   11139   11138   11139
   11139       0   11141   11142   11143   11142   11143   11143       0   11145
   11146   11147   11146   11147   11147       0   11149   11150   11151   11150
   11151   11151       0   11153   11154   11155   11154   11155   11155       0
   11157   11158   11159   11158   11159   11159       0   11161   11162   11163
   11162   11163   11163       0   11165   11166   11167   11166   11167   11167
       0   11169   11170   11171   11170   11171   11171       0   11173   11174
   11175   11174   11175   11175       0   11177   11178   11179   11178   11179
   11179       0   11181   11182   11183   11182   11183   11183       0   11185
   11186   11187   11186   11187   11187       0   11189   11190   11191   11190
   11191   11191       0   11193   11194   11195   11194   11195   11195       0
   11197   11198   11199   11198   11199   11199       0   11201   11202   11203
   11202   11203   11203       0   11205   11206   11207   11206   11207   11207
       0   11209   11210   11211   11210   11211   11211       0   11213   11214
   11215   11214   11215   11215       0   11217   11218   11219   11218   11219
   11219       0   11221   11222   11223   11222   11223   11223       0   11225
   11226   11227   11226   11227   11227       0   11229   11230   11231   11230
   11231   11231       0   11233   11234   11235   11234   11235   11235       0
   11237   11238   11239   11238   11239   11239       0   11241   11242   11243
   11242   11243   11243       0   11245   11246   11247   11246   11247   11247
       0   11249   11250   11251   11250   11251   11251       0   11253   11254
   11255   11254   11255   11255       0   11257   11258   11259   11258   11259
   11259       0   11261   11262   11263   11262   11263   11263       0   11265
   11266   11267   11266   11267   11267       0   11269   11270   11271   11270
   11271   11271       0   11273   11274   11275   11274   11275   11275       0
   11277   11278   11279   11278   11279   11279       0   11281   11282   11283
   11282   11283   11283       0   11285   11286   11287   11286   11287   11287
       0   11289   11290   11291   11290   11291   11291       0   11293   11294
   11295   11294   11295   11295       0   11297   11298   11299   11298   11299
   11299       0   11301   11302   11303   11302   11303   11303       0   11305
   11306   11307   11306   11307   11307       0   11309   11310   11311   11310
   11311   11311       0   11313   11314   11315   11314   11315   11315       0
   11317   11318   11319   11318   11319   11319       0   11321   11322   11323
   11322   11323   11323       0   11325   11326   11327   11326   11327   11327
       0   11329   11330   11331   11330   11331   11331       0   11333   11334
   11335   11334   11335   11335       0   11337   11338   11339   11338   11339
   11339       0   11341   11342   11343   11342   11343   11343       0   11345
   11346   11347   11346   11347   11347       0   11349   11350   11351   11350
   11351   11351       0   11353   11354   11355   11354   11355   11355       0
   11357   11358   11359   11358   11359   11359       0   11361   11362   11363
   11362   11363   11363       0   11365   11366   11367   11366   11367   11367
       0   11369   11370   11371   11370   11371   11371       0   11373   11374
   11375   11374   11375   11375       0   11377   11378   11379   11378   11379
   11379       0   11381   11382   11383   11382   11383   11383       0   11385
   11386   11387   11386   11387   11387       0   11389   11390   11391   11390
   11391   11391       0   11393   11394   11395   11394   11395   11395       0
   11397   11398   11399   11398   11399   11399       0   11401   11402   11403
   11402   11403   11403       0   11405   11406   11407   11406   11407   11407
       0   11409   11410   11411   11410   11411   11411       0   11413   11414
   11415   11414   11415   11415       0   11417   11418   11419   11418   11419
   11419       0   11421   11422   11423   11422   11423   11423       0   11425
   11426   11427   11426   11427   11427       0   11429   11430   11431   11430
   11431   11431       0   11433   11434   11435   11434   11435   11435       0
   11437   11438   11439   11438   11439   11439       0   11441   11442   11443
   11442   11443   11443       0   11445   11446   11447   11446   11447   11447
       0   11449   11450   11451   11450   11451   11451       0   11453   11454
   11455   11454   11455   11455       0   11457   11458   11459   11458   11459
   11459       0   11461   11462   11463   11462   11463   11463       0   11465
   11466   11467   11466   11467   11467       0   11469   11470   11471   11470
   11471   11471       0   11473   11474   11475   11474   11475   11475       0
   11477   11478   11479   11478   11479   11479       0   11481   11482   11483
   11482   11483   11483       0   11485   11486   11487   11486   11487   11487
       0   11489   11490   11491   11490   11491   11491       0   11493   11494
   11495   11494   11495   11495       0   11497   11498   11499   11498   11499
   11499       0   11501   11502   11503   11502   11503   11503       0   11505
   11506   11507   11506   11507   11507       0   11509   11510   11511   11510
   11511   11511       0   11513   11514   11515   11514   11515   11515       0
   11517   11518   11519   11518   11519   11519       0   11521   11522   11523
   11522   11523   11523       0   11525   11526   11527   11526   11527   11527
       0   11529   11530   11531   11530   11531   11531       0   11533   11534
   11535   11534   11535   11535       0   11537   11538   11539   11538   11539
   11539       0   11541   11542   11543   11542   11543   11543       0   11545
   11546   11547   11546   11547   11547       0   11549   11550   11551   11550
   11551   11551       0   11553   11554   11555   11554   11555   11555       0
   11557   11558   11559   11558   11559   11559       0   11561   11562   11563
   11562   11563   11563       0   11565   11566   11567   11566   11567   11567
       0   11569   11570   11571   11570   11571   11571       0   11573   11574
   11575   11574   11575   11575       0   11577   11578   11579   11578   11579
   11579       0   11581   11582   11583   11582   11583   11583       0   11585
   11586   11587   11586   11587   11587       0   11589   11590   11591   11590
   11591   11591       0   11593   11594   11595   11594   11595   11595       0
   11597   11598   11599   11598   11599   11599       0   11601   11602   11603
   11602   11603   11603       0   11605   11606   11607   11606   11607   11607
       0   11609   11610   11611   11610   11611   11611       0   11613   11614
   11615   11614   11615   11615       0   11617   11618   11619   11618   11619
   11619       0   11621   11622   11623   11622   11623   11623       0   11625
   11626   11627   11626   11627   11627       0   11629   11630   11631   11630
   11631   11631       0   11633   11634   11635   11634   11635   11635       0
   11637   11638   11639   11638   11639   11639       0   11641   11642   11643
   11642   11643   11643       0   11645   11646   11647   11646   11647   11647
       0   11649   11650   11651   11650   11651   11651       0   11653   11654
   11655   11654   11655   11655       0   11657   11658   11659   11658   11659
   11659       0   11661   11662   11663   11662   11663   11663       0   11665
   11666   11667   11666   11667   11667       0   11669   11670   11671   11670
   11671   11671       0   11673   11674   11675   11674   11675   11675       0
   11677   11678   11679   11678   11679   11679       0   11681   11682   11683
   11682   11683   11683       0   11685   11686   11687   11686   11687   11687
       0   11689   11690   11691   11690   11691   11691       0   11693   11694
   11695   11694   11695   11695       0   11697   11698   11699   11698   11699
   11699       0   11701   11702   11703   11702   11703   11703       0   11705
   11706   11707   11706   11707   11707       0   11709   11710   11711   11710
   11711   11711       0   11713   11714   11715   11714   11715   11715       0
   11717   11718   11719   11718   11719   11719       0   11721   11722   11723
   11722   11723   11723       0   11725   11726   11727   11726   11727   11727
       0   11729   11730   11731   11730   11731   11731       0   11733   11734
   11735   11734   11735   11735       0   11737   11738   11739   11738   11739
   11739       0   11741   11742   11743   11742   11743   11743       0   11745
   11746   11747   11746   11747   11747       0   11749   11750   11751   11750
   11751   11751       0   11753   11754   11755   11754   11755   11755       0
   11757   11758   11759   11758   11759   11759       0   11761   11762   11763
   11762   11763   11763       0   11765   11766   11767   11766   11767   11767
       0   11769   11770   11771   11770   11771   11771       0   11773   11774
   11775   11774   11775   11775       0   11777   11778   11779   11778   11779
   11779       0   11781   11782   11783   11782   11783   11783       0   11785
   11786   11787   11786   11787   11787       0   11789   11790   11791   11790
   11791   11791       0   11793   11794   11795   11794   11795   11795       0
   11797   11798   11799   11798   11799   11799       0   11801   11802   11803
   11802   11803   11803       0   11805   11806   11807   11806   11807   11807
       0   11809   11810   11811   11810   11811   11811       0   11813   11814
   11815   11814   11815   11815       0   11817   11818   11819   11818   11819
   11819       0   11821   11822   11823   11822   11823   11823       0   11825
   11826   11827   11826   11827   11827       0   11829   11830   11831   11830
   11831   11831       0   11833   11834   11835   11834   11835   11835       0
   11837   11838   11839   11838   11839   11839       0   11841   11842   11843
   11842   11843   11843       0   11845   11846   11847   11846   11847   11847
       0   11849   11850   11851   11850   11851   11851       0   11853   11854
   11855   11854   11855   11855       0   11857   11858   11859   11858   11859
   11859       0   11861   11862   11863   11862   11863   11863       0   11865
   11866   11867   11866   11867   11867       0   11869   11870   11871   11870
   11871   11871       0   11873   11874   11875   11874   11875   11875       0
   11877   11878   11879   11878   11879   11879       0   11881   11882   11883
   11882   11883   11883       0   11885   11886   11887   11886   11887   11887
       0   11889   11890   11891   11890   11891   11891       0   11893   11894
   11895   11894   11895   11895       0   11897   11898   11899   11898   11899
   11899       0   11901   11902   11903   11902   11903   11903       0   11905
   11906   11907   11906   11907   11907       0   11909   11910   11911   11910
   11911   11911       0   11913   11914   11915   11914   11915   11915       0
   11917   11918   11919   11918   11919   11919       0   11921   11922   11923
   11922   11923   11923       0   11925   11926   11927   11926   11927   11927
       0   11929   11930   11931   11930   11931   11931       0   11933   11934
   11935   11934   11935   11935       0   11937   11938   11939   11938   11939
   11939       0   11941   11942   11943   11942   11943   11943       0   11945
   11946   11947   11946   11947   11947       0   11949   11950   11951   11950
   11951   11951       0   11953   11954   11955   11954   11955   11955       0
   11957   11958   11959   11958   11959   11959       0   11961   11962   11963
   11962   11963   11963       0   11965   11966   11967   11966   11967   11967
       0   11969   11970   11971   11970   11971   11971       0   11973   11974
   11975   11974   11975   11975       0   11977   11978   11979   11978   11979
   11979       0   11981   11982   11983   11982   11983   11983       0   11985
   11986   11987   11986   11987   11987       0   11989   11990   11991   11990
   11991   11991       0   11993   11994   11995   11994   11995   11995       0
   11997   11998   11999   11998   11999   11999       0   12001   12002   12003
   12002   12003   12003       0   12005   12006   12007   12006   12007   12007
       0   12009   12010   12011   12010   12011   12011       0   12013   12014
   12015   12014   12015   12015       0   12017   12018   12019   12018   12019
   12019       0   12021   12022   12023   12022   12023   12023       0   12025
   12026   12027   12026   12027   12027       0   12029   12030   12031   12030
   12031   12031       0   12033   12034   12035   12034   12035   12035       0
   12037   12038   12039   12038   12039   12039       0   12041   12042   12043
   12042   12043   12043       0   12045   12046   12047   12046   12047   12047
       0   12049   12050   12051   12050   12051   12051       0   12053   12054
   12055   12054   12055   12055       0   12057   12058   12059   12058   12059
   12059       0   12061   12062   12063   12062   12063   12063       0   12065
   12066   12067   12066   12067   12067       0   12069   12070   12071   12070
   12071   12071       0   12073   12074   12075   12074   12075   12075       0
   12077   12078   12079   12078   12079   12079       0   12081   12082   12083
   12082   12083   12083       0   12085   12086   12087   12086   12087   12087
       0   12089   12090   12091   12090   12091   12091       0   12093   12094
   12095   12094   12095   12095       0   12097   12098   12099   12098   12099
   12099       0   12101   12102   12103   12102   12103   12103       0   12105
   12106   12107   12106   12107   12107       0   12109   12110   12111   12110
   12111   12111       0   12113   12114   12115   12114   12115   12115       0
   12117   12118   12119   12118   12119   12119       0   12121   12122   12123
   12122   12123   12123       0   12125   12126   12127   12126   12127   12127
       0   12129   12130   12131   12130   12131   12131       0   12133   12134
   12135   12134   12135   12135       0   12137   12138   12139   12138   12139
   12139       0   12141   12142   12143   12142   12143   12143       0   12145
   12146   12147   12146   12147   12147       0   12149   12150   12151   12150
   12151   12151       0   12153   12154   12155   12154   12155   12155       0
   12157   12158   12159   12158   12159   12159       0   12161   12162   12163
   12162   12163   12163       0   12165   12166   12167   12166   12167   12167
       0   12169   12170   12171   12170   12171   12171       0   12173   12174
   12175   12174   12175   12175       0   12177   12178   12179   12178   12179
   12179       0   12181   12182   12183   12182   12183   12183       0   12185
   12186   12187   12186   12187   12187       0   12189   12190   12191   12190
   12191   12191       0   12193   12194   12195   12194   12195   12195       0
   12197   12198   12199   12198   12199   12199       0   12201   12202   12203
   12202   12203   12203       0   12205   12206   12207   12206   12207   12207
       0   12209   12210   12211   12210   12211   12211       0   12213   12214
   12215   12214   12215   12215       0   12217   12218   12219   12218   12219
   12219       0   12221   12222   12223   12222   12223   12223       0   12225
   12226   12227   12226   12227   12227       0   12229   12230   12231   12230
   12231   12231       0   12233   12234   12235   12234   12235   12235       0
   12237   12238   12239   12238   12239   12239       0   12241   12242   12243
   12242   12243   12243       0   12245   12246   12247   12246   12247   12247
       0   12249   12250   12251   12250   12251   12251       0   12253   12254
   12255   12254   12255   12255       0   12257   12258   12259   12258   12259
   12259       0   12261   12262   12263   12262   12263   12263       0   12265
   12266   12267   12266   12267   12267       0   12269   12270   12271   12270
   12271   12271       0   12273   12274   12275   12274   12275   12275       0
   12277   12278   12279   12278   12279   12279       0   12281   12282   12283
   12282   12283   12283       0   12285   12286   12287   12286   12287   12287
       0   12289   12290   12291   12290   12291   12291       0   12293   12294
   12295   12294   12295   12295       0   12297   12298   12299   12298   12299
   12299       0   12301   12302   12303   12302   12303   12303       0   12305
   12306   12307   12306   12307   12307       0   12309   12310   12311   12310
   12311   12311       0   12313   12314   12315   12314   12315   12315       0
   12317   12318   12319   12318   12319   12319       0   12321   12322   12323
   12322   12323   12323       0   12325   12326   12327   12326   12327   12327
       0   12329   12330   12331   12330   12331   12331       0   12333   12334
   12335   12334   12335   12335       0   12337   12338   12339   12338   12339
   12339       0   12341   12342   12343   12342   12343   12343       0   12345
   12346   12347   12346   12347   12347       0   12349   12350   12351   12350
   12351   12351       0   12353   12354   12355   12354   12355   12355       0
   12357   12358   12359   12358   12359   12359       0   12361   12362   12363
   12362   12363   12363       0   12365   12366   12367   12366   12367   12367
       0   12369   12370   12371   12370   12371   12371       0   12373   12374
   12375   12374   12375   12375       0   12377   12378   12379   12378   12379
   12379       0   12381   12382   12383   12382   12383   12383       0   12385
   12386   12387   12386   12387   12387       0   12389   12390   12391   12390
   12391   12391       0   12393   12394   12395   12394   12395   12395       0
   12397   12398   12399   12398   12399   12399       0   12401   12402   12403
   12402   12403   12403       0   12405   12406   12407   12406   12407   12407
       0   12409   12410   12411   12410   12411   12411       0   12413   12414
   12415   12414   12415   12415       0   12417   12418   12419   12418   12419
   12419       0   12421   12422   12423   12422   12423   12423       0   12425
   12426   12427   12426   12427   12427       0   12429   12430   12431   12430
   12431   12431       0   12433   12434   12435   12434   12435   12435       0
   12437   12438   12439   12438   12439   12439       0   12441   12442   12443
   12442   12443   12443       0   12445   12446   12447   12446   12447   12447
       0   12449   12450   12451   12450   12451   12451       0   12453   12454
   12455   12454   12455   12455       0   12457   12458   12459   12458   12459
   12459       0   12461   12462   12463   12462   12463   12463       0   12465
   12466   12467   12466   12467   12467       0   12469   12470   12471   12470
   12471   12471       0   12473   12474   12475   12474   12475   12475       0
   12477   12478   12479   12478   12479   12479       0   12481   12482   12483
   12482   12483   12483       0   12485   12486   12487   12486   12487   12487
       0   12489   12490   12491   12490   12491   12491       0   12493   12494
   12495   12494   12495   12495       0   12497   12498   12499   12498   12499
   12499       0   12501   12502   12503   12502   12503   12503       0   12505
   12506   12507   12506   12507   12507       0   12509   12510   12511   12510
   12511   12511       0   12513   12514   12515   12514   12515   12515       0
   12517   12518   12519   12518   12519   12519       0   12521   12522   12523
   12522   12523   12523       0   12525   12526   12527   12526   12527   12527
       0   12529   12530   12531   12530   12531   12531       0   12533   12534
   12535   12534   12535   12535       0   12537   12538   12539   12538   12539
   12539       0   12541   12542   12543   12542   12543   12543       0   12545
   12546   12547   12546   12547   12547       0   12549   12550   12551   12550
   12551   12551       0   12553   12554   12555   12554   12555   12555       0
   12557   12558   12559   12558   12559   12559       0   12561   12562   12563
   12562   12563   12563       0   12565   12566   12567   12566   12567   12567
       0   12569   12570   12571   12570   12571   12571       0   12573   12574
   12575   12574   12575   12575       0   12577   12578   12579   12578   12579
   12579       0   12581   12582   12583   12582   12583   12583       0   12585
   12586   12587   12586   12587   12587       0   12589   12590   12591   12590
   12591   12591       0   12593   12594   12595   12594   12595   12595       0
   12597   12598   12599   12598   12599   12599       0   12601   12602   12603
   12602   12603   12603       0   12605   12606   12607   12606   12607   12607
       0   12609   12610   12611   12610   12611   12611       0   12613   12614
   12615   12614   12615   12615       0   12617   12618   12619   12618   12619
   12619       0   12621   12622   12623   12622   12623   12623       0   12625
   12626   12627   12626   12627   12627       0   12629   12630   12631   12630
   12631   12631       0   12633   12634   12635   12634   12635   12635       0
   12637   12638   12639   12638   12639   12639       0   12641   12642   12643
   12642   12643   12643       0   12645   12646   12647   12646   12647   12647
       0   12649   12650   12651   12650   12651   12651       0   12653   12654
   12655   12654   12655   12655       0   12657   12658   12659   12658   12659
   12659       0   12661   12662   12663   12662   12663   12663       0   12665
   12666   12667   12666   12667   12667       0   12669   12670   12671   12670
   12671   12671       0   12673   12674   12675   12674   12675   12675       0
   12677   12678   12679   12678   12679   12679       0   12681   12682   12683
   12682   12683   12683       0   12685   12686   12687   12686   12687   12687
       0   12689   12690   12691   12690   12691   12691       0   12693   12694
   12695   12694   12695   12695       0   12697   12698   12699   12698   12699
   12699       0   12701   12702   12703   12702   12703   12703       0   12705
   12706   12707   12706   12707   12707       0   12709   12710   12711   12710
   12711   12711       0   12713   12714   12715   12714   12715   12715       0
   12717   12718   12719   12718   12719   12719       0   12721   12722   12723
   12722   12723   12723       0   12725   12726   12727   12726   12727   12727
       0   12729   12730   12731   12730   12731   12731       0   12733   12734
   12735   12734   12735   12735       0   12737   12738   12739   12738   12739
   12739       0   12741   12742   12743   12742   12743   12743       0   12745
   12746   12747   12746   12747   12747       0   12749   12750   12751   12750
   12751   12751       0   12753   12754   12755   12754   12755   12755       0
   12757   12758   12759   12758   12759   12759       0   12761   12762   12763
   12762   12763   12763       0   12765   12766   12767   12766   12767   12767
       0   12769   12770   12771   12770   12771   12771       0   12773   12774
   12775   12774   12775   12775       0   12777   12778   12779   12778   12779
   12779       0   12781   12782   12783   12782   12783   12783       0   12785
   12786   12787   12786   12787   12787       0   12789   12790   12791   12790
   12791   12791       0   12793   12794   12795   12794   12795   12795       0
   12797   12798   12799   12798   12799   12799       0   12801   12802   12803
   12802   12803   12803       0   12805   12806   12807   12806   12807   12807
       0   12809   12810   12811   12810   12811   12811       0   12813   12814
   12815   12814   12815   12815       0   12817   12818   12819   12818   12819
   12819       0   12821   12822   12823   12822   12823   12823       0   12825
   12826   12827   12826   12827   12827       0   12829   12830   12831   12830
   12831   12831       0   12833   12834   12835   12834   12835   12835       0
   12837   12838   12839   12838   12839   12839       0   12841   12842   12843
   12842   12843   12843       0   12845   12846   12847   12846   12847   12847
       0   12849   12850   12851   12850   12851   12851       0   12853   12854
   12855   12854   12855   12855       0   12857   12858   12859   12858   12859
   12859       0   12861   12862   12863   12862   12863   12863       0   12865
   12866   12867   12866   12867   12867       0   12869   12870   12871   12870
   12871   12871       0   12873   12874   12875   12874   12875   12875       0
   12877   12878   12879   12878   12879   12879       0   12881   12882   12883
   12882   12883   12883       0   12885   12886   12887   12886   12887   12887
       0   12889   12890   12891   12890   12891   12891       0   12893   12894
   12895   12894   12895   12895       0   12897   12898   12899   12898   12899
   12899       0   12901   12902   12903   12902   12903   12903       0   12905
   12906   12907   12906   12907   12907       0   12909   12910   12911   12910
   12911   12911       0   12913   12914   12915   12914   12915   12915       0
   12917   12918   12919   12918   12919   12919       0   12921   12922   12923
   12922   12923   12923       0   12925   12926   12927   12926   12927   12927
       0   12929   12930   12931   12930   12931   12931       0   12933   12934
   12935   12934   12935   12935       0   12937   12938   12939   12938   12939
   12939       0   12941   12942   12943   12942   12943   12943       0   12945
   12946   12947   12946   12947   12947       0   12949   12950   12951   12950
   12951   12951       0   12953   12954   12955   12954   12955   12955       0
   12957   12958   12959   12958   12959   12959       0   12961   12962   12963
   12962   12963   12963       0   12965   12966   12967   12966   12967   12967
       0   12969   12970   12971   12970   12971   12971       0   12973   12974
   12975   12974   12975   12975       0   12977   12978   12979   12978   12979
   12979       0   12981   12982   12983   12982   12983   12983       0   12985
   12986   12987   12986   12987   12987       0   12989   12990   12991   12990
   12991   12991       0   12993   12994   12995   12994   12995   12995       0
   12997   12998   12999   12998   12999   12999       0   13001   13002   13003
   13002   13003   13003       0   13005   13006   13007   13006   13007   13007
       0   13009   13010   13011   13010   13011   13011       0   13013   13014
   13015   13014   13015   13015       0   13017   13018   13019   13018   13019
   13019       0   13021   13022   13023   13022   13023   13023       0   13025
   13026   13027   13026   13027   13027       0   13029   13030   13031   13030
   13031   13031       0   13033   13034   13035   13034   13035   13035       0
   13037   13038   13039   13038   13039   13039       0   13041   13042   13043
   13042   13043   13043       0   13045   13046   13047   13046   13047   13047
       0   13049   13050   13051   13050   13051   13051       0   13053   13054
   13055   13054   13055   13055       0   13057   13058   13059   13058   13059
   13059       0   13061   13062   13063   13062   13063   13063       0   13065
   13066   13067   13066   13067   13067       0   13069   13070   13071   13070
   13071   13071       0   13073   13074   13075   13074   13075   13075       0
   13077   13078   13079   13078   13079   13079       0   13081   13082   13083
   13082   13083   13083       0   13085   13086   13087   13086   13087   13087
       0   13089   13090   13091   13090   13091   13091       0   13093   13094
   13095   13094   13095   13095       0   13097   13098   13099   13098   13099
   13099       0   13101   13102   13103   13102   13103   13103       0   13105
   13106   13107   13106   13107   13107       0   13109   13110   13111   13110
   13111   13111       0   13113   13114   13115   13114   13115   13115       0
   13117   13118   13119   13118   13119   13119       0   13121   13122   13123
   13122   13123   13123       0   13125   13126   13127   13126   13127   13127
       0   13129   13130   13131   13130   13131   13131       0   13133   13134
   13135   13134   13135   13135       0   13137   13138   13139   13138   13139
   13139       0   13141   13142   13143   13142   13143   13143       0   13145
   13146   13147   13146   13147   13147       0   13149   13150   13151   13150
   13151   13151       0   13153   13154   13155   13154   13155   13155       0
   13157   13158   13159   13158   13159   13159       0   13161   13162   13163
   13162   13163   13163       0   13165   13166   13167   13166   13167   13167
       0   13169   13170   13171   13170   13171   13171       0   13173   13174
   13175   13174   13175   13175       0   13177   13178   13179   13178   13179
   13179       0   13181   13182   13183   13182   13183   13183       0   13185
   13186   13187   13186   13187   13187       0   13189   13190   13191   13190
   13191   13191       0   13193   13194   13195   13194   13195   13195       0
   13197   13198   13199   13198   13199   13199       0   13201   13202   13203
   13202   13203   13203       0   13205   13206   13207   13206   13207   13207
       0   13209   13210   13211   13210   13211   13211       0   13213   13214
   13215   13214   13215   13215       0   13217   13218   13219   13218   13219
   13219       0   13221   13222   13223   13222   13223   13223       0   13225
   13226   13227   13226   13227   13227       0   13229   13230   13231   13230
   13231   13231       0   13233   13234   13235   13234   13235   13235       0
   13237   13238   13239   13238   13239   13239       0   13241   13242   13243
   13242   13243   13243       0   13245   13246   13247   13246   13247   13247
       0   13249   13250   13251   13250   13251   13251       0   13253   13254
   13255   13254   13255   13255       0   13257   13258   13259   13258   13259
   13259       0   13261   13262   13263   13262   13263   13263       0   13265
   13266   13267   13266   13267   13267       0   13269   13270   13271   13270
   13271   13271       0   13273   13274   13275   13274   13275   13275       0
   13277   13278   13279   13278   13279   13279       0   13281   13282   13283
   13282   13283   13283       0   13285   13286   13287   13286   13287   13287
       0   13289   13290   13291   13290   13291   13291       0   13293   13294
   13295   13294   13295   13295       0   13297   13298   13299   13298   13299
   13299       0   13301   13302   13303   13302   13303   13303       0   13305
   13306   13307   13306   13307   13307       0   13309   13310   13311   13310
   13311   13311       0   13313   13314   13315   13314   13315   13315       0
   13317   13318   13319   13318   13319   13319       0   13321   13322   13323
   13322   13323   13323       0   13325   13326   13327   13326   13327   13327
       0   13329   13330   13331   13330   13331   13331       0   13333   13334
   13335   13334   13335   13335       0   13337   13338   13339   13338   13339
   13339       0   13341   13342   13343   13342   13343   13343       0   13345
   13346   13347   13346   13347   13347       0   13349   13350   13351   13350
   13351   13351       0   13353   13354   13355   13354   13355   13355       0
   13357   13358   13359   13358   13359   13359       0   13361   13362   13363
   13362   13363   13363       0   13365   13366   13367   13366   13367   13367
       0   13369   13370   13371   13370   13371   13371       0   13373   13374
   13375   13374   13375   13375       0   13377   13378   13379   13378   13379
   13379       0   13381   13382   13383   13382   13383   13383       0   13385
   13386   13387   13386   13387   13387       0   13389   13390   13391   13390
   13391   13391       0   13393   13394   13395   13394   13395   13395       0
   13397   13398   13399   13398   13399   13399       0   13401   13402   13403
   13402   13403   13403       0   13405   13406   13407   13406   13407   13407
       0   13409   13410   13411   13410   13411   13411       0   13413   13414
   13415   13414   13415   13415       0   13417   13418   13419   13418   13419
   13419       0   13421   13422   13423   13422   13423   13423       0   13425
   13426   13427   13426   13427   13427       0   13429   13430   13431   13430
   13431   13431       0   13433   13434   13435   13434   13435   13435       0
   13437   13438   13439   13438   13439   13439       0   13441   13442   13443
   13442   13443   13443       0   13445   13446   13447   13446   13447   13447
       0   13449   13450   13451   13450   13451   13451       0   13453   13454
   13455   13454   13455   13455       0   13457   13458   13459   13458   13459
   13459       0   13461   13462   13463   13462   13463   13463       0   13465
   13466   13467   13466   13467   13467       0   13469   13470   13471   13470
   13471   13471       0   13473   13474   13475   13474   13475   13475       0
   13477   13478   13479   13478   13479   13479       0   13481   13482   13483
   13482   13483   13483       0   13485   13486   13487   13486   13487   13487
       0   13489   13490   13491   13490   13491   13491       0   13493   13494
   13495   13494   13495   13495       0   13497   13498   13499   13498   13499
   13499       0   13501   13502   13503   13502   13503   13503       0   13505
   13506   13507   13506   13507   13507       0   13509   13510   13511   13510
   13511   13511       0   13513   13514   13515   13514   13515   13515       0
   13517   13518   13519   13518   13519   13519       0   13521   13522   13523
   13522   13523   13523       0   13525   13526   13527   13526   13527   13527
       0   13529   13530   13531   13530   13531   13531       0   13533   13534
   13535   13534   13535   13535       0   13537   13538   13539   13538   13539
   13539       0   13541   13542   13543   13542   13543   13543       0   13545
   13546   13547   13546   13547   13547       0   13549   13550   13551   13550
   13551   13551       0   13553   13554   13555   13554   13555   13555       0
   13557   13558   13559   13558   13559   13559       0   13561   13562   13563
   13562   13563   13563       0   13565   13566   13567   13566   13567   13567
       0   13569   13570   13571   13570   13571   13571       0   13573   13574
   13575   13574   13575   13575       0   13577   13578   13579   13578   13579
   13579       0   13581   13582   13583   13582   13583   13583       0   13585
   13586   13587   13586   13587   13587       0   13589   13590   13591   13590
   13591   13591       0   13593   13594   13595   13594   13595   13595       0
   13597   13598   13599   13598   13599   13599       0   13601   13602   13603
   13602   13603   13603       0   13605   13606   13607   13606   13607   13607
       0   13609   13610   13611   13610   13611   13611       0   13613   13614
   13615   13614   13615   13615       0   13617   13618   13619   13618   13619
   13619       0   13621   13622   13623   13622   13623   13623       0   13625
   13626   13627   13626   13627   13627       0   13629   13630   13631   13630
   13631   13631       0   13633   13634   13635   13634   13635   13635       0
   13637   13638   13639   13638   13639   13639       0   13641   13642   13643
   13642   13643   13643       0   13645   13646   13647   13646   13647   13647
       0   13649   13650   13651   13650   13651   13651       0   13653   13654
   13655   13654   13655   13655       0   13657   13658   13659   13658   13659
   13659       0   13661   13662   13663   13662   13663   13663       0   13665
   13666   13667   13666   13667   13667       0   13669   13670   13671   13670
   13671   13671       0   13673   13674   13675   13674   13675   13675       0
   13677   13678   13679   13678   13679   13679       0   13681   13682   13683
   13682   13683   13683       0   13685   13686   13687   13686   13687   13687
       0   13689   13690   13691   13690   13691   13691       0   13693   13694
   13695   13694   13695   13695       0   13697   13698   13699   13698   13699
   13699       0   13701   13702   13703   13702   13703   13703       0   13705
   13706   13707   13706   13707   13707       0   13709   13710   13711   13710
   13711   13711       0   13713   13714   13715   13714   13715   13715       0
   13717   13718   13719   13718   13719   13719       0   13721   13722   13723
   13722   13723   13723       0   13725   13726   13727   13726   13727   13727
       0   13729   13730   13731   13730   13731   13731       0   13733   13734
   13735   13734   13735   13735       0   13737   13738   13739   13738   13739
   13739       0   13741   13742   13743   13742   13743   13743       0   13745
   13746   13747   13746   13747   13747       0   13749   13750   13751   13750
   13751   13751       0   13753   13754   13755   13754   13755   13755       0
   13757   13758   13759   13758   13759   13759       0   13761   13762   13763
   13762   13763   13763       0   13765   13766   13767   13766   13767   13767
       0   13769   13770   13771   13770   13771   13771       0   13773   13774
   13775   13774   13775   13775       0   13777   13778   13779   13778   13779
   13779       0   13781   13782   13783   13782   13783   13783       0   13785
   13786   13787   13786   13787   13787       0   13789   13790   13791   13790
   13791   13791       0   13793   13794   13795   13794   13795   13795       0
   13797   13798   13799   13798   13799   13799       0   13801   13802   13803
   13802   13803   13803       0   13805   13806   13807   13806   13807   13807
       0   13809   13810   13811   13810   13811   13811       0   13813   13814
   13815   13814   13815   13815       0   13817   13818   13819   13818   13819
   13819       0   13821   13822   13823   13822   13823   13823       0   13825
   13826   13827   13826   13827   13827       0   13829   13830   13831   13830
   13831   13831       0   13833   13834   13835   13834   13835   13835       0
   13837   13838   13839   13838   13839   13839       0   13841   13842   13843
   13842   13843   13843       0   13845   13846   13847   13846   13847   13847
       0   13849   13850   13851   13850   13851   13851       0   13853   13854
   13855   13854   13855   13855       0   13857   13858   13859   13858   13859
   13859       0   13861   13862   13863   13862   13863   13863       0   13865
   13866   13867   13866   13867   13867       0   13869   13870   13871   13870
   13871   13871       0   13873   13874   13875   13874   13875   13875       0
   13877   13878   13879   13878   13879   13879       0   13881   13882   13883
   13882   13883   13883       0   13885   13886   13887   13886   13887   13887
       0   13889   13890   13891   13890   13891   13891       0   13893   13894
   13895   13894   13895   13895       0   13897   13898   13899   13898   13899
   13899       0   13901   13902   13903   13902   13903   13903       0   13905
   13906   13907   13906   13907   13907       0   13909   13910   13911   13910
   13911   13911       0   13913   13914   13915   13914   13915   13915       0
   13917   13918   13919   13918   13919   13919       0   13921   13922   13923
   13922   13923   13923       0   13925   13926   13927   13926   13927   13927
       0   13929   13930   13931   13930   13931   13931       0   13933   13934
   13935   13934   13935   13935       0   13937   13938   13939   13938   13939
   13939       0   13941   13942   13943   13942   13943   13943       0   13945
   13946   13947   13946   13947   13947       0   13949   13950   13951   13950
   13951   13951       0   13953   13954   13955   13954   13955   13955       0
   13957   13958   13959   13958   13959   13959       0   13961   13962   13963
   13962   13963   13963       0   13965   13966   13967   13966   13967   13967
       0   13969   13970   13971   13970   13971   13971       0   13973   13974
   13975   13974   13975   13975       0   13977   13978   13979   13978   13979
   13979       0   13981   13982   13983   13982   13983   13983       0   13985
   13986   13987   13986   13987   13987       0   13989   13990   13991   13990
   13991   13991       0   13993   13994   13995   13994   13995   13995       0
   13997   13998   13999   13998   13999   13999       0   14001   14002   14003
   14002   14003   14003       0   14005   14006   14007   14006   14007   14007
       0   14009   14010   14011   14010   14011   14011       0   14013   14014
   14015   14014   14015   14015       0   14017   14018   14019   14018   14019
   14019       0   14021   14022   14023   14022   14023   14023       0   14025
   14026   14027   14026   14027   14027       0   14029   14030   14031   14030
   14031   14031       0   14033   14034   14035   14034   14035   14035       0
   14037   14038   14039   14038   14039   14039       0   14041   14042   14043
   14042   14043   14043       0   14045   14046   14047   14046   14047   14047
       0   14049   14050   14051   14050   14051   14051       0   14053   14054
   14055   14054   14055   14055       0   14057   14058   14059   14058   14059
   14059       0   14061   14062   14063   14062   14063   14063       0   14065
   14066   14067   14066   14067   14067       0   14069   14070   14071   14070
   14071   14071       0   14073   14074   14075   14074   14075   14075       0
   14077   14078   14079   14078   14079   14079       0   14081   14082   14083
   14082   14083   14083       0   14085   14086   14087   14086   14087   14087
       0   14089   14090   14091   14090   14091   14091       0   14093   14094
   14095   14094   14095   14095       0   14097   14098   14099   14098   14099
   14099       0   14101   14102   14103   14102   14103   14103       0   14105
   14106   14107   14106   14107   14107       0   14109   14110   14111   14110
   14111   14111       0   14113   14114   14115   14114   14115   14115       0
   14117   14118   14119   14118   14119   14119       0   14121   14122   14123
   14122   14123   14123       0   14125   14126   14127   14126   14127   14127
       0   14129   14130   14131   14130   14131   14131       0   14133   14134
   14135   14134   14135   14135       0   14137   14138   14139   14138   14139
   14139       0   14141   14142   14143   14142   14143   14143       0   14145
   14146   14147   14146   14147   14147       0   14149   14150   14151   14150
   14151   14151       0   14153   14154   14155   14154   14155   14155       0
   14157   14158   14159   14158   14159   14159       0   14161   14162   14163
   14162   14163   14163       0   14165   14166   14167   14166   14167   14167
       0   14169   14170   14171   14170   14171   14171       0   14173   14174
   14175   14174   14175   14175       0   14177   14178   14179   14178   14179
   14179       0   14181   14182   14183   14182   14183   14183       0   14185
   14186   14187   14186   14187   14187       0   14189   14190   14191   14190
   14191   14191       0   14193   14194   14195   14194   14195   14195       0
   14197   14198   14199   14198   14199   14199       0   14201   14202   14203
   14202   14203   14203       0   14205   14206   14207   14206   14207   14207
       0   14209   14210   14211   14210   14211   14211       0   14213   14214
   14215   14214   14215   14215       0   14217   14218   14219   14218   14219
   14219       0   14221   14222   14223   14222   14223   14223       0   14225
   14226   14227   14226   14227   14227       0   14229   14230   14231   14230
   14231   14231       0   14233   14234   14235   14234   14235   14235       0
   14237   14238   14239   14238   14239   14239       0   14241   14242   14243
   14242   14243   14243       0   14245   14246   14247   14246   14247   14247
       0   14249   14250   14251   14250   14251   14251       0   14253   14254
   14255   14254   14255   14255       0   14257   14258   14259   14258   14259
   14259       0   14261   14262   14263   14262   14263   14263       0   14265
   14266   14267   14266   14267   14267       0   14269   14270   14271   14270
   14271   14271       0   14273   14274   14275   14274   14275   14275       0
   14277   14278   14279   14278   14279   14279       0   14281   14282   14283
   14282   14283   14283       0   14285   14286   14287   14286   14287   14287
       0   14289   14290   14291   14290   14291   14291       0   14293   14294
   14295   14294   14295   14295       0   14297   14298   14299   14298   14299
   14299       0   14301   14302   14303   14302   14303   14303       0   14305
   14306   14307   14306   14307   14307       0   14309   14310   14311   14310
   14311   14311       0   14313   14314   14315   14314   14315   14315       0
   14317   14318   14319   14318   14319   14319       0   14321   14322   14323
   14322   14323   14323       0   14325   14326   14327   14326   14327   14327
       0   14329   14330   14331   14330   14331   14331       0   14333   14334
   14335   14334   14335   14335       0   14337   14338   14339   14338   14339
   14339       0   14341   14342   14343   14342   14343   14343       0   14345
   14346   14347   14346   14347   14347       0   14349   14350   14351   14350
   14351   14351       0   14353   14354   14355   14354   14355   14355       0
   14357   14358   14359   14358   14359   14359       0   14361   14362   14363
   14362   14363   14363       0   14365   14366   14367   14366   14367   14367
       0   14369   14370   14371   14370   14371   14371       0   14373   14374
   14375   14374   14375   14375       0   14377   14378   14379   14378   14379
   14379       0   14381   14382   14383   14382   14383   14383       0   14385
   14386   14387   14386   14387   14387       0   14389   14390   14391   14390
   14391   14391       0   14393   14394   14395   14394   14395   14395       0
   14397   14398   14399   14398   14399   14399       0   14401   14402   14403
   14402   14403   14403       0   14405   14406   14407   14406   14407   14407
       0   14409   14410   14411   14410   14411   14411       0   14413   14414
   14415   14414   14415   14415       0   14417   14418   14419   14418   14419
   14419       0   14421   14422   14423   14422   14423   14423       0   14425
   14426   14427   14426   14427   14427       0   14429   14430   14431   14430
   14431   14431       0   14433   14434   14435   14434   14435   14435       0
   14437   14438   14439   14438   14439   14439       0   14441   14442   14443
   14442   14443   14443       0   14445   14446   14447   14446   14447   14447
       0   14449   14450   14451   14450   14451   14451       0   14453   14454
   14455   14454   14455   14455       0   14457   14458   14459   14458   14459
   14459       0   14461   14462   14463   14462   14463   14463       0   14465
   14466   14467   14466   14467   14467       0   14469   14470   14471   14470
   14471   14471       0   14473   14474   14475   14474   14475   14475       0
   14477   14478   14479   14478   14479   14479       0   14481   14482   14483
   14482   14483   14483       0   14485   14486   14487   14486   14487   14487
       0   14489   14490   14491   14490   14491   14491       0   14493   14494
   14495   14494   14495   14495       0   14497   14498   14499   14498   14499
   14499       0   14501   14502   14503   14502   14503   14503       0   14505
   14506   14507   14506   14507   14507       0   14509   14510   14511   14510
   14511   14511       0   14513   14514   14515   14514   14515   14515       0
   14517   14518   14519   14518   14519   14519       0   14521   14522   14523
   14522   14523   14523       0   14525   14526   14527   14526   14527   14527
       0   14529   14530   14531   14530   14531   14531       0   14533   14534
   14535   14534   14535   14535       0   14537   14538   14539   14538   14539
   14539       0   14541   14542   14543   14542   14543   14543       0   14545
   14546   14547   14546   14547   14547       0   14549   14550   14551   14550
   14551   14551       0   14553   14554   14555   14554   14555   14555       0
   14557   14558   14559   14558   14559   14559       0   14561   14562   14563
   14562   14563   14563       0   14565   14566   14567   14566   14567   14567
       0   14569   14570   14571   14570   14571   14571       0   14573   14574
   14575   14574   14575   14575       0   14577   14578   14579   14578   14579
   14579       0   14581   14582   14583   14582   14583   14583       0   14585
   14586   14587   14586   14587   14587       0   14589   14590   14591   14590
   14591   14591       0   14593   14594   14595   14594   14595   14595       0
   14597   14598   14599   14598   14599   14599       0   14601   14602   14603
   14602   14603   14603       0   14605   14606   14607   14606   14607   14607
       0   14609   14610   14611   14610   14611   14611       0   14613   14614
   14615   14614   14615   14615       0   14617   14618   14619   14618   14619
   14619       0   14621   14622   14623   14622   14623   14623       0   14625
   14626   14627   14626   14627   14627       0   14629   14630   14631   14630
   14631   14631       0   14633   14634   14635   14634   14635   14635       0
   14637   14638   14639   14638   14639   14639       0   14641   14642   14643
   14642   14643   14643       0   14645   14646   14647   14646   14647   14647
       0   14649   14650   14651   14650   14651   14651       0   14653   14654
   14655   14654   14655   14655       0   14657   14658   14659   14658   14659
   14659       0   14661   14662   14663   14662   14663   14663       0   14665
   14666   14667   14666   14667   14667       0   14669   14670   14671   14670
   14671   14671       0   14673   14674   14675   14674   14675   14675       0
   14677   14678   14679   14678   14679   14679       0   14681   14682   14683
   14682   14683   14683       0   14685   14686   14687   14686   14687   14687
       0   14689   14690   14691   14690   14691   14691       0   14693   14694
   14695   14694   14695   14695       0   14697   14698   14699   14698   14699
   14699       0   14701   14702   14703   14702   14703   14703       0   14705
   14706   14707   14706   14707   14707       0   14709   14710   14711   14710
   14711   14711       0   14713   14714   14715   14714   14715   14715       0
   14717   14718   14719   14718   14719   14719       0   14721   14722   14723
   14722   14723   14723       0   14725   14726   14727   14726   14727   14727
       0   14729   14730   14731   14730   14731   14731       0   14733   14734
   14735   14734   14735   14735       0   14737   14738   14739   14738   14739
   14739       0   14741   14742   14743   14742   14743   14743       0   14745
   14746   14747   14746   14747   14747       0   14749   14750   14751   14750
   14751   14751       0   14753   14754   14755   14754   14755   14755       0
   14757   14758   14759   14758   14759   14759       0   14761   14762   14763
   14762   14763   14763       0   14765   14766   14767   14766   14767   14767
       0   14769   14770   14771   14770   14771   14771       0   14773   14774
   14775   14774   14775   14775       0   14777   14778   14779   14778   14779
   14779       0   14781   14782   14783   14782   14783   14783       0   14785
   14786   14787   14786   14787   14787       0   14789   14790   14791   14790
   14791   14791       0   14793   14794   14795   14794   14795   14795       0
   14797   14798   14799   14798   14799   14799       0   14801   14802   14803
   14802   14803   14803       0   14805   14806   14807   14806   14807   14807
       0   14809   14810   14811   14810   14811   14811       0   14813   14814
   14815   14814   14815   14815       0   14817   14818   14819   14818   14819
   14819       0   14821   14822   14823   14822   14823   14823       0   14825
   14826   14827   14826   14827   14827       0   14829   14830   14831   14830
   14831   14831       0   14833   14834   14835   14834   14835   14835       0
   14837   14838   14839   14838   14839   14839       0   14841   14842   14843
   14842   14843   14843       0   14845   14846   14847   14846   14847   14847
       0   14849   14850   14851   14850   14851   14851       0   14853   14854
   14855   14854   14855   14855       0   14857   14858   14859   14858   14859
   14859       0   14861   14862   14863   14862   14863   14863       0   14865
   14866   14867   14866   14867   14867       0   14869   14870   14871   14870
   14871   14871       0   14873   14874   14875   14874   14875   14875       0
   14877   14878   14879   14878   14879   14879       0   14881   14882   14883
   14882   14883   14883       0   14885   14886   14887   14886   14887   14887
       0   14889   14890   14891   14890   14891   14891       0   14893   14894
   14895   14894   14895   14895       0   14897   14898   14899   14898   14899
   14899       0   14901   14902   14903   14902   14903   14903       0   14905
   14906   14907   14906   14907   14907       0   14909   14910   14911   14910
   14911   14911       0   14913   14914   14915   14914   14915   14915       0
   14917   14918   14919   14918   14919   14919       0   14921   14922   14923
   14922   14923   14923       0   14925   14926   14927   14926   14927   14927
       0   14929   14930   14931   14930   14931   14931       0   14933   14934
   14935   14934   14935   14935       0   14937   14938   14939   14938   14939
   14939       0   14941   14942   14943   14942   14943   14943       0   14945
   14946   14947   14946   14947   14947       0   14949   14950   14951   14950
   14951   14951       0   14953   14954   14955   14954   14955   14955       0
   14957   14958   14959   14958   14959   14959       0   14961   14962   14963
   14962   14963   14963       0   14965   14966   14967   14966   14967   14967
       0   14969   14970   14971   14970   14971   14971       0   14973   14974
   14975   14974   14975   14975       0   14977   14978   14979   14978   14979
   14979       0   14981   14982   14983   14982   14983   14983       0   14985
   14986   14987   14986   14987   14987       0   14989   14990   14991   14990
   14991   14991       0   14993   14994   14995   14994   14995   14995       0
   14997   14998   14999   14998   14999   14999       0   15001   15002   15003
   15002   15003   15003       0   15005   15006   15007   15006   15007   15007
       0   15009   15010   15011   15010   15011   15011       0   15013   15014
   15015   15014   15015   15015       0   15017   15018   15019   15018   15019
   15019       0   15021   15022   15023   15022   15023   15023       0   15025
   15026   15027   15026   15027   15027       0   15029   15030   15031   15030
   15031   15031       0   15033   15034   15035   15034   15035   15035       0
   15037   15038   15039   15038   15039   15039       0   15041   15042   15043
   15042   15043   15043       0   15045   15046   15047   15046   15047   15047
       0   15049   15050   15051   15050   15051   15051       0   15053   15054
   15055   15054   15055   15055       0   15057   15058   15059   15058   15059
   15059       0   15061   15062   15063   15062   15063   15063       0   15065
   15066   15067   15066   15067   15067       0   15069   15070   15071   15070
   15071   15071       0   15073   15074   15075   15074   15075   15075       0
   15077   15078   15079   15078   15079   15079       0   15081   15082   15083
   15082   15083   15083       0   15085   15086   15087   15086   15087   15087
       0   15089   15090   15091   15090   15091   15091       0   15093   15094
   15095   15094   15095   15095       0   15097   15098   15099   15098   15099
   15099       0   15101   15102   15103   15102   15103   15103       0   15105
   15106   15107   15106   15107   15107       0   15109   15110   15111   15110
   15111   15111       0   15113   15114   15115   15114   15115   15115       0
   15117   15118   15119   15118   15119   15119       0   15121   15122   15123
   15122   15123   15123       0   15125   15126   15127   15126   15127   15127
       0   15129   15130   15131   15130   15131   15131       0   15133   15134
   15135   15134   15135   15135       0   15137   15138   15139   15138   15139
   15139       0   15141   15142   15143   15142   15143   15143       0   15145
   15146   15147   15146   15147   15147       0   15149   15150   15151   15150
   15151   15151       0   15153   15154   15155   15154   15155   15155       0
   15157   15158   15159   15158   15159   15159       0   15161   15162   15163
   15162   15163   15163       0   15165   15166   15167   15166   15167   15167
       0   15169   15170   15171   15170   15171   15171       0   15173   15174
   15175   15174   15175   15175       0   15177   15178   15179   15178   15179
   15179       0   15181   15182   15183   15182   15183   15183       0   15185
   15186   15187   15186   15187   15187       0   15189   15190   15191   15190
   15191   15191       0   15193   15194   15195   15194   15195   15195       0
   15197   15198   15199   15198   15199   15199       0   15201   15202   15203
   15202   15203   15203       0   15205   15206   15207   15206   15207   15207
       0   15209   15210   15211   15210   15211   15211       0   15213   15214
   15215   15214   15215   15215       0   15217   15218   15219   15218   15219
   15219       0   15221   15222   15223   15222   15223   15223       0   15225
   15226   15227   15226   15227   15227       0   15229   15230   15231   15230
   15231   15231       0   15233   15234   15235   15234   15235   15235       0
   15237   15238   15239   15238   15239   15239       0   15241   15242   15243
   15242   15243   15243       0   15245   15246   15247   15246   15247   15247
       0   15249   15250   15251   15250   15251   15251       0   15253   15254
   15255   15254   15255   15255       0   15257   15258   15259   15258   15259
   15259       0   15261   15262   15263   15262   15263   15263       0   15265
   15266   15267   15266   15267   15267       0   15269   15270   15271   15270
   15271   15271       0   15273   15274   15275   15274   15275   15275       0
   15277   15278   15279   15278   15279   15279       0   15281   15282   15283
   15282   15283   15283       0   15285   15286   15287   15286   15287   15287
       0   15289   15290   15291   15290   15291   15291       0   15293   15294
   15295   15294   15295   15295       0   15297   15298   15299   15298   15299
   15299       0   15301   15302   15303   15302   15303   15303       0   15305
   15306   15307   15306   15307   15307       0   15309   15310   15311   15310
   15311   15311       0   15313   15314   15315   15314   15315   15315       0
   15317   15318   15319   15318   15319   15319       0   15321   15322   15323
   15322   15323   15323       0   15325   15326   15327   15326   15327   15327
       0   15329   15330   15331   15330   15331   15331       0   15333   15334
   15335   15334   15335   15335       0   15337   15338   15339   15338   15339
   15339       0   15341   15342   15343   15342   15343   15343       0   15345
   15346   15347   15346   15347   15347       0   15349   15350   15351   15350
   15351   15351       0   15353   15354   15355   15354   15355   15355       0
   15357   15358   15359   15358   15359   15359       0   15361   15362   15363
   15362   15363   15363       0   15365   15366   15367   15366   15367   15367
       0   15369   15370   15371   15370   15371   15371       0   15373   15374
   15375   15374   15375   15375       0   15377   15378   15379   15378   15379
   15379       0   15381   15382   15383   15382   15383   15383       0   15385
   15386   15387   15386   15387   15387       0   15389   15390   15391   15390
   15391   15391       0   15393   15394   15395   15394   15395   15395       0
   15397   15398   15399   15398   15399   15399       0   15401   15402   15403
   15402   15403   15403       0   15405   15406   15407   15406   15407   15407
       0   15409   15410   15411   15410   15411   15411       0   15413   15414
   15415   15414   15415   15415       0   15417   15418   15419   15418   15419
   15419       0   15421   15422   15423   15422   15423   15423       0   15425
   15426   15427   15426   15427   15427       0   15429   15430   15431   15430
   15431   15431       0   15433   15434   15435   15434   15435   15435       0
   15437   15438   15439   15438   15439   15439       0   15441   15442   15443
   15442   15443   15443       0   15445   15446   15447   15446   15447   15447
       0   15449   15450   15451   15450   15451   15451       0   15453   15454
   15455   15454   15455   15455       0   15457   15458   15459   15458   15459
   15459       0   15461   15462   15463   15462   15463   15463       0   15465
   15466   15467   15466   15467   15467       0   15469   15470   15471   15470
   15471   15471       0   15473   15474   15475   15474   15475   15475       0
   15477   15478   15479   15478   15479   15479       0   15481   15482   15483
   15482   15483   15483       0   15485   15486   15487   15486   15487   15487
       0   15489   15490   15491   15490   15491   15491       0   15493   15494
   15495   15494   15495   15495       0   15497   15498   15499   15498   15499
   15499       0   15501   15502   15503   15502   15503   15503       0   15505
   15506   15507   15506   15507   15507       0   15509   15510   15511   15510
   15511   15511       0   15513   15514   15515   15514   15515   15515       0
   15517   15518   15519   15518   15519   15519       0   15521   15522   15523
   15522   15523   15523       0   15525   15526   15527   15526   15527   15527
       0   15529   15530   15531   15530   15531   15531       0   15533   15534
   15535   15534   15535   15535       0   15537   15538   15539   15538   15539
   15539       0   15541   15542   15543   15542   15543   15543       0   15545
   15546   15547   15546   15547   15547       0   15549   15550   15551   15550
   15551   15551       0   15553   15554   15555   15554   15555   15555       0
   15557   15558   15559   15558   15559   15559       0   15561   15562   15563
   15562   15563   15563       0   15565   15566   15567   15566   15567   15567
       0   15569   15570   15571   15570   15571   15571       0   15573   15574
   15575   15574   15575   15575       0   15577   15578   15579   15578   15579
   15579       0   15581   15582   15583   15582   15583   15583       0   15585
   15586   15587   15586   15587   15587       0   15589   15590   15591   15590
   15591   15591       0   15593   15594   15595   15594   15595   15595       0
   15597   15598   15599   15598   15599   15599       0   15601   15602   15603
   15602   15603   15603       0   15605   15606   15607   15606   15607   15607
       0   15609   15610   15611   15610   15611   15611       0   15613   15614
   15615   15614   15615   15615       0   15617   15618   15619   15618   15619
   15619       0   15621   15622   15623   15622   15623   15623       0   15625
   15626   15627   15626   15627   15627       0   15629   15630   15631   15630
   15631   15631       0   15633   15634   15635   15634   15635   15635       0
   15637   15638   15639   15638   15639   15639       0   15641   15642   15643
   15642   15643   15643       0   15645   15646   15647   15646   15647   15647
       0   15649   15650   15651   15650   15651   15651       0   15653   15654
   15655   15654   15655   15655       0   15657   15658   15659   15658   15659
   15659       0   15661   15662   15663   15662   15663   15663       0   15665
   15666   15667   15666   15667   15667       0   15669   15670   15671   15670
   15671   15671       0   15673   15674   15675   15674   15675   15675       0
   15677   15678   15679   15678   15679   15679       0   15681   15682   15683
   15682   15683   15683       0   15685   15686   15687   15686   15687   15687
       0   15689   15690   15691   15690   15691   15691       0   15693   15694
   15695   15694   15695   15695       0   15697   15698   15699   15698   15699
   15699       0   15701   15702   15703   15702   15703   15703       0   15705
   15706   15707   15706   15707   15707       0   15709   15710   15711   15710
   15711   15711       0   15713   15714   15715   15714   15715   15715       0
   15717   15718   15719   15718   15719   15719       0   15721   15722   15723
   15722   15723   15723       0   15725   15726   15727   15726   15727   15727
       0   15729   15730   15731   15730   15731   15731       0   15733   15734
   15735   15734   15735   15735       0   15737   15738   15739   15738   15739
   15739       0   15741   15742   15743   15742   15743   15743       0   15745
   15746   15747   15746   15747   15747       0   15749   15750   15751   15750
   15751   15751       0   15753   15754   15755   15754   15755   15755       0
   15757   15758   15759   15758   15759   15759       0   15761   15762   15763
   15762   15763   15763       0   15765   15766   15767   15766   15767   15767
       0   15769   15770   15771   15770   15771   15771       0   15773   15774
   15775   15774   15775   15775       0   15777   15778   15779   15778   15779
   15779       0   15781   15782   15783   15782   15783   15783       0   15785
   15786   15787   15786   15787   15787       0   15789   15790   15791   15790
   15791   15791       0   15793   15794   15795   15794   15795   15795       0
   15797   15798   15799   15798   15799   15799       0   15801   15802   15803
   15802   15803   15803       0   15805   15806   15807   15806   15807   15807
       0   15809   15810   15811   15810   15811   15811       0   15813   15814
   15815   15814   15815   15815       0   15817   15818   15819   15818   15819
   15819       0   15821   15822   15823   15822   15823   15823       0   15825
   15826   15827   15826   15827   15827       0   15829   15830   15831   15830
   15831   15831       0   15833   15834   15835   15834   15835   15835       0
   15837   15838   15839   15838   15839   15839       0   15841   15842   15843
   15842   15843   15843       0   15845   15846   15847   15846   15847   15847
       0   15849   15850   15851   15850   15851   15851       0   15853   15854
   15855   15854   15855   15855       0   15857   15858   15859   15858   15859
   15859       0   15861   15862   15863   15862   15863   15863       0   15865
   15866   15867   15866   15867   15867       0   15869   15870   15871   15870
   15871   15871       0   15873   15874   15875   15874   15875   15875       0
   15877   15878   15879   15878   15879   15879       0   15881   15882   15883
   15882   15883   15883       0   15885   15886   15887   15886   15887   15887
       0   15889   15890   15891   15890   15891   15891       0   15893   15894
   15895   15894   15895   15895       0   15897   15898   15899   15898   15899
   15899       0   15901   15902   15903   15902   15903   15903       0   15905
   15906   15907   15906   15907   15907       0   15909   15910   15911   15910
   15911   15911       0   15913   15914   15915   15914   15915   15915       0
   15917   15918   15919   15918   15919   15919       0   15921   15922   15923
   15922   15923   15923       0   15925   15926   15927   15926   15927   15927
       0   15929   15930   15931   15930   15931   15931       0   15933   15934
   15935   15934   15935   15935       0   15937   15938   15939   15938   15939
   15939       0   15941   15942   15943   15942   15943   15943       0   15945
   15946   15947   15946   15947   15947       0   15949   15950   15951   15950
   15951   15951       0   15953   15954   15955   15954   15955   15955       0
   15957   15958   15959   15958   15959   15959       0   15961   15962   15963
   15962   15963   15963       0   15965   15966   15967   15966   15967   15967
       0   15969   15970   15971   15970   15971   15971       0   15973   15974
   15975   15974   15975   15975       0   15977   15978   15979   15978   15979
   15979       0   15981   15982   15983   15982   15983   15983       0   15985
   15986   15987   15986   15987   15987       0   15989   15990   15991   15990
   15991   15991       0   15993   15994   15995   15994   15995   15995       0
   15997   15998   15999   15998   15999   15999       0   16001   16002   16003
   16002   16003   16003       0   16005   16006   16007   16006   16007   16007
       0   16009   16010   16011   16010   16011   16011       0   16013   16014
   16015   16014   16015   16015       0   16017   16018   16019   16018   16019
   16019       0   16021   16022   16023   16022   16023   16023       0   16025
   16026   16027   16026   16027   16027       0   16029   16030   16031   16030
   16031   16031       0   16033   16034   16035   16034   16035   16035       0
   16037   16038   16039   16038   16039   16039       0   16041   16042   16043
   16042   16043   16043       0   16045   16046   16047   16046   16047   16047
       0   16049   16050   16051   16050   16051   16051       0   16053   16054
   16055   16054   16055   16055       0   16057   16058   16059   16058   16059
   16059       0   16061   16062   16063   16062   16063   16063       0   16065
   16066   16067   16066   16067   16067       0   16069   16070   16071   16070
   16071   16071       0   16073   16074   16075   16074   16075   16075       0
   16077   16078   16079   16078   16079   16079       0   16081   16082   16083
   16082   16083   16083       0   16085   16086   16087   16086   16087   16087
       0   16089   16090   16091   16090   16091   16091       0   16093   16094
   16095   16094   16095   16095       0   16097   16098   16099   16098   16099
   16099       0   16101   16102   16103   16102   16103   16103       0   16105
   16106   16107   16106   16107   16107       0   16109   16110   16111   16110
   16111   16111       0   16113   16114   16115   16114   16115   16115       0
   16117   16118   16119   16118   16119   16119       0   16121   16122   16123
   16122   16123   16123       0   16125   16126   16127   16126   16127   16127
       0   16129   16130   16131   16130   16131   16131       0   16133   16134
   16135   16134   16135   16135       0   16137   16138   16139   16138   16139
   16139       0   16141   16142   16143   16142   16143   16143       0   16145
   16146   16147   16146   16147   16147       0   16149   16150   16151   16150
   16151   16151       0   16153   16154   16155   16154   16155   16155       0
   16157   16158   16159   16158   16159   16159       0   16161   16162   16163
   16162   16163   16163       0   16165   16166   16167   16166   16167   16167
       0   16169   16170   16171   16170   16171   16171       0   16173   16174
   16175   16174   16175   16175       0   16177   16178   16179   16178   16179
   16179       0   16181   16182   16183   16182   16183   16183       0   16185
   16186   16187   16186   16187   16187       0   16189   16190   16191   16190
   16191   16191       0   16193   16194   16195   16194   16195   16195       0
   16197   16198   16199   16198   16199   16199       0   16201   16202   16203
   16202   16203   16203       0   16205   16206   16207   16206   16207   16207
       0   16209   16210   16211   16210   16211   16211       0   16213   16214
   16215   16214   16215   16215       0   16217   16218   16219   16218   16219
   16219       0   16221   16222   16223   16222   16223   16223       0   16225
   16226   16227   16226   16227   16227       0   16229   16230   16231   16230
   16231   16231       0   16233   16234   16235   16234   16235   16235       0
   16237   16238   16239   16238   16239   16239       0   16241   16242   16243
   16242   16243   16243       0   16245   16246   16247   16246   16247   16247
       0   16249   16250   16251   16250   16251   16251       0   16253   16254
   16255   16254   16255   16255       0   16257   16258   16259   16258   16259
   16259       0   16261   16262   16263   16262   16263   16263       0   16265
   16266   16267   16266   16267   16267       0   16269   16270   16271   16270
   16271   16271       0   16273   16274   16275   16274   16275   16275       0
   16277   16278   16279   16278   16279   16279       0   16281   16282   16283
   16282   16283   16283       0   16285   16286   16287   16286   16287   16287
       0   16289   16290   16291   16290   16291   16291       0   16293   16294
   16295   16294   16295   16295       0   16297   16298   16299   16298   16299
   16299       0   16301   16302   16303   16302   16303   16303       0   16305
   16306   16307   16306   16307   16307       0   16309   16310   16311   16310
   16311   16311       0   16313   16314   16315   16314   16315   16315       0
   16317   16318   16319   16318   16319   16319       0   16321   16322   16323
   16322   16323   16323       0   16325   16326   16327   16326   16327   16327
       0   16329   16330   16331   16330   16331   16331       0   16333   16334
   16335   16334   16335   16335       0   16337   16338   16339   16338   16339
   16339       0   16341   16342   16343   16342   16343   16343       0   16345
   16346   16347   16346   16347   16347       0   16349   16350   16351   16350
   16351   16351       0   16353   16354   16355   16354   16355   16355       0
   16357   16358   16359   16358   16359   16359       0   16361   16362   16363
   16362   16363   16363       0   16365   16366   16367   16366   16367   16367
       0   16369   16370   16371   16370   16371   16371       0   16373   16374
   16375   16374   16375   16375       0   16377   16378   16379   16378   16379
   16379       0   16381   16382   16383   16382   16383   16383       0   16385
   16386   16387   16386   16387   16387       0   16389   16390   16391   16390
   16391   16391       0   16393   16394   16395   16394   16395   16395       0
   16397   16398   16399   16398   16399   16399       0   16401   16402   16403
   16402   16403   16403       0   16405   16406   16407   16406   16407   16407
       0   16409   16410   16411   16410   16411   16411       0   16413   16414
   16415   16414   16415   16415       0   16417   16418   16419   16418   16419
   16419       0   16421   16422   16423   16422   16423   16423       0   16425
   16426   16427   16426   16427   16427       0   16429   16430   16431   16430
   16431   16431       0   16433   16434   16435   16434   16435   16435       0
   16437   16438   16439   16438   16439   16439       0   16441   16442   16443
   16442   16443   16443       0   16445   16446   16447   16446   16447   16447
       0   16449   16450   16451   16450   16451   16451       0   16453   16454
   16455   16454   16455   16455       0   16457   16458   16459   16458   16459
   16459       0   16461   16462   16463   16462   16463   16463       0   16465
   16466   16467   16466   16467   16467       0   16469   16470   16471   16470
   16471   16471       0   16473   16474   16475   16474   16475   16475       0
   16477   16478   16479   16478   16479   16479       0   16481   16482   16483
   16482   16483   16483       0   16485   16486   16487   16486   16487   16487
       0   16489   16490   16491   16490   16491   16491       0   16493   16494
   16495   16494   16495   16495       0   16497   16498   16499   16498   16499
   16499       0   16501   16502   16503   16502   16503   16503       0   16505
   16506   16507   16506   16507   16507       0   16509   16510   16511   16510
   16511   16511       0   16513   16514   16515   16514   16515   16515       0
   16517   16518   16519   16518   16519   16519       0   16521   16522   16523
   16522   16523   16523       0   16525   16526   16527   16526   16527   16527
       0   16529   16530   16531   16530   16531   16531       0   16533   16534
   16535   16534   16535   16535       0   16537   16538   16539   16538   16539
   16539       0   16541   16542   16543   16542   16543   16543       0   16545
   16546   16547   16546   16547   16547       0   16549   16550   16551   16550
   16551   16551       0   16553   16554   16555   16554   16555   16555       0
   16557   16558   16559   16558   16559   16559       0   16561   16562   16563
   16562   16563   16563       0   16565   16566   16567   16566   16567   16567
       0   16569   16570   16571   16570   16571   16571       0   16573   16574
   16575   16574   16575   16575       0   16577   16578   16579   16578   16579
   16579       0   16581   16582   16583   16582   16583   16583       0   16585
   16586   16587   16586   16587   16587       0   16589   16590   16591   16590
   16591   16591       0   16593   16594   16595   16594   16595   16595       0
   16597   16598   16599   16598   16599   16599       0   16601   16602   16603
   16602   16603   16603       0   16605   16606   16607   16606   16607   16607
       0   16609   16610   16611   16610   16611   16611       0   16613   16614
   16615   16614   16615   16615       0   16617   16618   16619   16618   16619
   16619       0   16621   16622   16623   16622   16623   16623       0   16625
   16626   16627   16626   16627   16627       0   16629   16630   16631   16630
   16631   16631       0   16633   16634   16635   16634   16635   16635       0
   16637   16638   16639   16638   16639   16639       0   16641   16642   16643
   16642   16643   16643       0   16645   16646   16647   16646   16647   16647
       0   16649   16650   16651   16650   16651   16651       0   16653   16654
   16655   16654   16655   16655       0   16657   16658   16659   16658   16659
   16659       0   16661   16662   16663   16662   16663   16663       0   16665
   16666   16667   16666   16667   16667       0   16669   16670   16671   16670
   16671   16671       0   16673   16674   16675   16674   16675   16675       0
   16677   16678   16679   16678   16679   16679       0   16681   16682   16683
   16682   16683   16683       0   16685   16686   16687   16686   16687   16687
       0   16689   16690   16691   16690   16691   16691       0   16693   16694
   16695   16694   16695   16695       0   16697   16698   16699   16698   16699
   16699       0   16701   16702   16703   16702   16703   16703       0   16705
   16706   16707   16706   16707   16707       0   16709   16710   16711   16710
   16711   16711       0   16713   16714   16715   16714   16715   16715       0
   16717   16718   16719   16718   16719   16719       0   16721   16722   16723
   16722   16723   16723       0   16725   16726   16727   16726   16727   16727
       0   16729   16730   16731   16730   16731   16731       0   16733   16734
   16735   16734   16735   16735       0   16737   16738   16739   16738   16739
   16739       0   16741   16742   16743   16742   16743   16743       0   16745
   16746   16747   16746   16747   16747       0   16749   16750   16751   16750
   16751   16751       0   16753   16754   16755   16754   16755   16755       0
   16757   16758   16759   16758   16759   16759       0   16761   16762   16763
   16762   16763   16763       0   16765   16766   16767   16766   16767   16767
       0   16769   16770   16771   16770   16771   16771       0   16773   16774
   16775   16774   16775   16775       0   16777   16778   16779   16778   16779
   16779       0   16781   16782   16783   16782   16783   16783       0   16785
   16786   16787   16786   16787   16787       0   16789   16790   16791   16790
   16791   16791       0   16793   16794   16795   16794   16795   16795       0
   16797   16798   16799   16798   16799   16799       0   16801   16802   16803
   16802   16803   16803       0   16805   16806   16807   16806   16807   16807
       0   16809   16810   16811   16810   16811   16811       0   16813   16814
   16815   16814   16815   16815       0   16817   16818   16819   16818   16819
   16819       0   16821   16822   16823   16822   16823   16823       0   16825
   16826   16827   16826   16827   16827       0   16829   16830   16831   16830
   16831   16831       0   16833   16834   16835   16834   16835   16835       0
   16837   16838   16839   16838   16839   16839       0   16841   16842   16843
   16842   16843   16843       0   16845   16846   16847   16846   16847   16847
       0   16849   16850   16851   16850   16851   16851       0   16853   16854
   16855   16854   16855   16855       0   16857   16858   16859   16858   16859
   16859       0   16861   16862   16863   16862   16863   16863       0   16865
   16866   16867   16866   16867   16867       0   16869   16870   16871   16870
   16871   16871       0   16873   16874   16875   16874   16875   16875       0
   16877   16878   16879   16878   16879   16879       0   16881   16882   16883
   16882   16883   16883       0   16885   16886   16887   16886   16887   16887
       0   16889   16890   16891   16890   16891   16891       0   16893   16894
   16895   16894   16895   16895       0   16897   16898   16899   16898   16899
   16899       0   16901   16902   16903   16902   16903   16903       0   16905
   16906   16907   16906   16907   16907       0   16909   16910   16911   16910
   16911   16911       0   16913   16914   16915   16914   16915   16915       0
   16917   16918   16919   16918   16919   16919       0   16921   16922   16923
   16922   16923   16923       0   16925   16926   16927   16926   16927   16927
       0   16929   16930   16931   16930   16931   16931       0   16933   16934
   16935   16934   16935   16935       0   16937   16938   16939   16938   16939
   16939       0   16941   16942   16943   16942   16943   16943       0   16945
   16946   16947   16946   16947   16947       0   16949   16950   16951   16950
   16951   16951       0   16953   16954   16955   16954   16955   16955       0
   16957   16958   16959   16958   16959   16959       0   16961   16962   16963
   16962   16963   16963       0   16965   16966   16967   16966   16967   16967
       0   16969   16970   16971   16970   16971   16971       0   16973   16974
   16975   16974   16975   16975       0   16977   16978   16979   16978   16979
   16979       0   16981   16982   16983   16982   16983   16983       0   16985
   16986   16987   16986   16987   16987       0   16989   16990   16991   16990
   16991   16991       0   16993   16994   16995   16994   16995   16995       0
   16997   16998   16999   16998   16999   16999       0   17001   17002   17003
   17002   17003   17003       0   17005   17006   17007   17006   17007   17007
       0   17009   17010   17011   17010   17011   17011       0   17013   17014
   17015   17014   17015   17015       0   17017   17018   17019   17018   17019
   17019       0   17021   17022   17023   17022   17023   17023       0   17025
   17026   17027   17026   17027   17027       0   17029   17030   17031   17030
   17031   17031       0   17033   17034   17035   17034   17035   17035       0
   17037   17038   17039   17038   17039   17039       0   17041   17042   17043
   17042   17043   17043       0   17045   17046   17047   17046   17047   17047
       0   17049   17050   17051   17050   17051   17051       0   17053   17054
   17055   17054   17055   17055       0   17057   17058   17059   17058   17059
   17059       0   17061   17062   17063   17062   17063   17063       0   17065
   17066   17067   17066   17067   17067       0   17069   17070   17071   17070
   17071   17071       0   17073   17074   17075   17074   17075   17075       0
   17077   17078   17079   17078   17079   17079       0   17081   17082   17083
   17082   17083   17083       0   17085   17086   17087   17086   17087   17087
       0   17089   17090   17091   17090   17091   17091       0   17093   17094
   17095   17094   17095   17095       0   17097   17098   17099   17098   17099
   17099       0   17101   17102   17103   17102   17103   17103       0   17105
   17106   17107   17106   17107   17107       0   17109   17110   17111   17110
   17111   17111       0   17113   17114   17115   17114   17115   17115       0
   17117   17118   17119   17118   17119   17119       0   17121   17122   17123
   17122   17123   17123       0   17125   17126   17127   17126   17127   17127
       0   17129   17130   17131   17130   17131   17131       0   17133   17134
   17135   17134   17135   17135       0   17137   17138   17139   17138   17139
   17139       0   17141   17142   17143   17142   17143   17143       0   17145
   17146   17147   17146   17147   17147       0   17149   17150   17151   17150
   17151   17151       0   17153   17154   17155   17154   17155   17155       0
   17157   17158   17159   17158   17159   17159       0   17161   17162   17163
   17162   17163   17163       0   17165   17166   17167   17166   17167   17167
       0   17169   17170   17171   17170   17171   17171       0   17173   17174
   17175   17174   17175   17175       0   17177   17178   17179   17178   17179
   17179       0   17181   17182   17183   17182   17183   17183       0   17185
   17186   17187   17186   17187   17187       0   17189   17190   17191   17190
   17191   17191       0   17193   17194   17195   17194   17195   17195       0
   17197   17198   17199   17198   17199   17199       0   17201   17202   17203
   17202   17203   17203       0   17205   17206   17207   17206   17207   17207
       0   17209   17210   17211   17210   17211   17211       0   17213   17214
   17215   17214   17215   17215       0   17217   17218   17219   17218   17219
   17219       0   17221   17222   17223   17222   17223   17223       0   17225
   17226   17227   17226   17227   17227       0   17229   17230   17231   17230
   17231   17231       0   17233   17234   17235   17234   17235   17235       0
   17237   17238   17239   17238   17239   17239       0   17241   17242   17243
   17242   17243   17243       0   17245   17246   17247   17246   17247   17247
       0   17249   17250   17251   17250   17251   17251       0   17253   17254
   17255   17254   17255   17255       0   17257   17258   17259   17258   17259
   17259       0   17261   17262   17263   17262   17263   17263       0   17265
   17266   17267   17266   17267   17267       0   17269   17270   17271   17270
   17271   17271       0   17273   17274   17275   17274   17275   17275       0
   17277   17278   17279   17278   17279   17279       0   17281   17282   17283
   17282   17283   17283       0   17285   17286   17287   17286   17287   17287
       0   17289   17290   17291   17290   17291   17291       0   17293   17294
   17295   17294   17295   17295       0   17297   17298   17299   17298   17299
   17299       0   17301   17302   17303   17302   17303   17303       0   17305
   17306   17307   17306   17307   17307       0   17309   17310   17311   17310
   17311   17311       0   17313   17314   17315   17314   17315   17315       0
   17317   17318   17319   17318   17319   17319       0   17321   17322   17323
   17322   17323   17323       0   17325   17326   17327   17326   17327   17327
       0   17329   17330   17331   17330   17331   17331       0   17333   17334
   17335   17334   17335   17335       0   17337   17338   17339   17338   17339
   17339       0   17341   17342   17343   17342   17343   17343       0   17345
   17346   17347   17346   17347   17347       0   17349   17350   17351   17350
   17351   17351       0   17353   17354   17355   17354   17355   17355       0
   17357   17358   17359   17358   17359   17359       0   17361   17362   17363
   17362   17363   17363       0   17365   17366   17367   17366   17367   17367
       0   17369   17370   17371   17370   17371   17371       0   17373   17374
   17375   17374   17375   17375       0   17377   17378   17379   17378   17379
   17379       0   17381   17382   17383   17382   17383   17383       0   17385
   17386   17387   17386   17387   17387       0   17389   17390   17391   17390
   17391   17391       0   17393   17394   17395   17394   17395   17395       0
   17397   17398   17399   17398   17399   17399       0   17401   17402   17403
   17402   17403   17403       0   17405   17406   17407   17406   17407   17407
       0   17409   17410   17411   17410   17411   17411       0   17413   17414
   17415   17414   17415   17415       0   17417   17418   17419   17418   17419
   17419       0   17421   17422   17423   17422   17423   17423       0   17425
   17426   17427   17426   17427   17427       0   17429   17430   17431   17430
   17431   17431       0   17433   17434   17435   17434   17435   17435       0
   17437   17438   17439   17438   17439   17439       0   17441   17442   17443
   17442   17443   17443       0   17445   17446   17447   17446   17447   17447
       0   17449   17450   17451   17450   17451   17451       0   17453   17454
   17455   17454   17455   17455       0   17457   17458   17459   17458   17459
   17459       0   17461   17462   17463   17462   17463   17463       0   17465
   17466   17467   17466   17467   17467       0   17469   17470   17471   17470
   17471   17471       0   17473   17474   17475   17474   17475   17475       0
   17477   17478   17479   17478   17479   17479       0   17481   17482   17483
   17482   17483   17483       0   17485   17486   17487   17486   17487   17487
       0   17489   17490   17491   17490   17491   17491       0   17493   17494
   17495   17494   17495   17495       0   17497   17498   17499   17498   17499
   17499       0   17501   17502   17503   17502   17503   17503       0   17505
   17506   17507   17506   17507   17507       0   17509   17510   17511   17510
   17511   17511       0   17513   17514   17515   17514   17515   17515       0
   17517   17518   17519   17518   17519   17519       0   17521   17522   17523
   17522   17523   17523       0   17525   17526   17527   17526   17527   17527
       0   17529   17530   17531   17530   17531   17531       0   17533   17534
   17535   17534   17535   17535       0   17537   17538   17539   17538   17539
   17539       0   17541   17542   17543   17542   17543   17543       0   17545
   17546   17547   17546   17547   17547       0   17549   17550   17551   17550
   17551   17551       0   17553   17554   17555   17554   17555   17555       0
   17557   17558   17559   17558   17559   17559       0   17561   17562   17563
   17562   17563   17563       0   17565   17566   17567   17566   17567   17567
       0   17569   17570   17571   17570   17571   17571       0   17573   17574
   17575   17574   17575   17575       0   17577   17578   17579   17578   17579
   17579       0   17581   17582   17583   17582   17583   17583       0   17585
   17586   17587   17586   17587   17587       0   17589   17590   17591   17590
   17591   17591       0   17593   17594   17595   17594   17595   17595       0
   17597   17598   17599   17598   17599   17599       0   17601   17602   17603
   17602   17603   17603       0   17605   17606   17607   17606   17607   17607
       0   17609   17610   17611   17610   17611   17611       0   17613   17614
   17615   17614   17615   17615       0   17617   17618   17619   17618   17619
   17619       0   17621   17622   17623   17622   17623   17623       0   17625
   17626   17627   17626   17627   17627       0   17629   17630   17631   17630
   17631   17631       0   17633   17634   17635   17634   17635   17635       0
   17637   17638   17639   17638   17639   17639       0   17641   17642   17643
   17642   17643   17643       0   17645   17646   17647   17646   17647   17647
       0   17649   17650   17651   17650   17651   17651       0   17653   17654
   17655   17654   17655   17655       0   17657   17658   17659   17658   17659
   17659       0   17661   17662   17663   17662   17663   17663       0   17665
   17666   17667   17666   17667   17667       0   17669   17670   17671   17670
   17671   17671       0   17673   17674   17675   17674   17675   17675       0
   17677   17678   17679   17678   17679   17679       0   17681   17682   17683
   17682   17683   17683       0   17685   17686   17687   17686   17687   17687
       0   17689   17690   17691   17690   17691   17691       0   17693   17694
   17695   17694   17695   17695       0   17697   17698   17699   17698   17699
   17699       0   17701   17702   17703   17702   17703   17703       0   17705
   17706   17707   17706   17707   17707       0   17709   17710   17711   17710
   17711   17711       0   17713   17714   17715   17714   17715   17715       0
   17717   17718   17719   17718   17719   17719       0   17721   17722   17723
   17722   17723   17723       0   17725   17726   17727   17726   17727   17727
       0   17729   17730   17731   17730   17731   17731       0   17733   17734
   17735   17734   17735   17735       0   17737   17738   17739   17738   17739
   17739       0   17741   17742   17743   17742   17743   17743       0   17745
   17746   17747   17746   17747   17747       0   17749   17750   17751   17750
   17751   17751       0   17753   17754   17755   17754   17755   17755       0
   17757   17758   17759   17758   17759   17759       0   17761   17762   17763
   17762   17763   17763       0   17765   17766   17767   17766   17767   17767
       0   17769   17770   17771   17770   17771   17771       0   17773   17774
   17775   17774   17775   17775       0   17777   17778   17779   17778   17779
   17779       0   17781   17782   17783   17782   17783   17783       0   17785
   17786   17787   17786   17787   17787       0   17789   17790   17791   17790
   17791   17791       0   17793   17794   17795   17794   17795   17795       0
   17797   17798   17799   17798   17799   17799       0   17801   17802   17803
   17802   17803   17803       0   17805   17806   17807   17806   17807   17807
       0   17809   17810   17811   17810   17811   17811       0   17813   17814
   17815   17814   17815   17815       0   17817   17818   17819   17818   17819
   17819       0   17821   17822   17823   17822   17823   17823       0   17825
   17826   17827   17826   17827   17827       0   17829   17830   17831   17830
   17831   17831       0   17833   17834   17835   17834   17835   17835       0
   17837   17838   17839   17838   17839   17839       0   17841   17842   17843
   17842   17843   17843       0   17845   17846   17847   17846   17847   17847
       0   17849   17850   17851   17850   17851   17851       0   17853   17854
   17855   17854   17855   17855       0   17857   17858   17859   17858   17859
   17859       0   17861   17862   17863   17862   17863   17863       0   17865
   17866   17867   17866   17867   17867       0   17869   17870   17871   17870
   17871   17871       0   17873   17874   17875   17874   17875   17875       0
   17877   17878   17879   17878   17879   17879       0   17881   17882   17883
   17882   17883   17883       0   17885   17886   17887   17886   17887   17887
       0   17889   17890   17891   17890   17891   17891       0   17893   17894
   17895   17894   17895   17895       0   17897   17898   17899   17898   17899
   17899       0   17901   17902   17903   17902   17903   17903       0   17905
   17906   17907   17906   17907   17907       0   17909   17910   17911   17910
   17911   17911       0   17913   17914   17915   17914   17915   17915       0
   17917   17918   17919   17918   17919   17919       0   17921   17922   17923
   17922   17923   17923       0   17925   17926   17927   17926   17927   17927
       0   17929   17930   17931   17930   17931   17931       0   17933   17934
   17935   17934   17935   17935       0   17937   17938   17939   17938   17939
   17939       0   17941   17942   17943   17942   17943   17943       0   17945
   17946   17947   17946   17947   17947       0   17949   17950   17951   17950
   17951   17951       0   17953   17954   17955   17954   17955   17955       0
   17957   17958   17959   17958   17959   17959       0   17961   17962   17963
   17962   17963   17963       0   17965   17966   17967   17966   17967   17967
       0   17969   17970   17971   17970   17971   17971       0   17973   17974
   17975   17974   17975   17975       0   17977   17978   17979   17978   17979
   17979       0   17981   17982   17983   17982   17983   17983       0   17985
   17986   17987   17986   17987   17987       0   17989   17990   17991   17990
   17991   17991       0   17993   17994   17995   17994   17995   17995       0
   17997   17998   17999   17998   17999   17999       0   18001   18002   18003
   18002   18003   18003       0   18005   18006   18007   18006   18007   18007
       0   18009   18010   18011   18010   18011   18011       0   18013   18014
   18015   18014   18015   18015       0   18017   18018   18019   18018   18019
   18019       0   18021   18022   18023   18022   18023   18023       0   18025
   18026   18027   18026   18027   18027       0   18029   18030   18031   18030
   18031   18031       0   18033   18034   18035   18034   18035   18035       0
   18037   18038   18039   18038   18039   18039       0   18041   18042   18043
   18042   18043   18043       0   18045   18046   18047   18046   18047   18047
       0   18049   18050   18051   18050   18051   18051       0   18053   18054
   18055   18054   18055   18055       0   18057   18058   18059   18058   18059
   18059       0   18061   18062   18063   18062   18063   18063       0   18065
   18066   18067   18066   18067   18067       0   18069   18070   18071   18070
   18071   18071       0   18073   18074   18075   18074   18075   18075       0
   18077   18078   18079   18078   18079   18079       0   18081   18082   18083
   18082   18083   18083       0   18085   18086   18087   18086   18087   18087
       0   18089   18090   18091   18090   18091   18091       0   18093   18094
   18095   18094   18095   18095       0   18097   18098   18099   18098   18099
   18099       0   18101   18102   18103   18102   18103   18103       0   18105
   18106   18107   18106   18107   18107       0   18109   18110   18111   18110
   18111   18111       0   18113   18114   18115   18114   18115   18115       0
   18117   18118   18119   18118   18119   18119       0   18121   18122   18123
   18122   18123   18123       0   18125   18126   18127   18126   18127   18127
       0   18129   18130   18131   18130   18131   18131       0   18133   18134
   18135   18134   18135   18135       0   18137   18138   18139   18138   18139
   18139       0   18141   18142   18143   18142   18143   18143       0   18145
   18146   18147   18146   18147   18147       0   18149   18150   18151   18150
   18151   18151       0   18153   18154   18155   18154   18155   18155       0
   18157   18158   18159   18158   18159   18159       0   18161   18162   18163
   18162   18163   18163       0   18165   18166   18167   18166   18167   18167
       0   18169   18170   18171   18170   18171   18171       0   18173   18174
   18175   18174   18175   18175       0   18177   18178   18179   18178   18179
   18179       0   18181   18182   18183   18182   18183   18183       0   18185
   18186   18187   18186   18187   18187       0   18189   18190   18191   18190
   18191   18191       0   18193   18194   18195   18194   18195   18195       0
   18197   18198   18199   18198   18199   18199       0   18201   18202   18203
   18202   18203   18203       0   18205   18206   18207   18206   18207   18207
       0   18209   18210   18211   18210   18211   18211       0   18213   18214
   18215   18214   18215   18215       0   18217   18218   18219   18218   18219
   18219       0   18221   18222   18223   18222   18223   18223       0   18225
   18226   18227   18226   18227   18227       0   18229   18230   18231   18230
   18231   18231       0   18233   18234   18235   18234   18235   18235       0
   18237   18238   18239   18238   18239   18239       0   18241   18242   18243
   18242   18243   18243       0   18245   18246   18247   18246   18247   18247
       0   18249   18250   18251   18250   18251   18251       0   18253   18254
   18255   18254   18255   18255       0   18257   18258   18259   18258   18259
   18259       0   18261   18262   18263   18262   18263   18263       0   18265
   18266   18267   18266   18267   18267       0   18269   18270   18271   18270
   18271   18271       0   18273   18274   18275   18274   18275   18275       0
   18277   18278   18279   18278   18279   18279       0   18281   18282   18283
   18282   18283   18283       0   18285   18286   18287   18286   18287   18287
       0   18289   18290   18291   18290   18291   18291       0   18293   18294
   18295   18294   18295   18295       0   18297   18298   18299   18298   18299
   18299       0   18301   18302   18303   18302   18303   18303       0   18305
   18306   18307   18306   18307   18307       0   18309   18310   18311   18310
   18311   18311       0   18313   18314   18315   18314   18315   18315       0
   18317   18318   18319   18318   18319   18319       0   18321   18322   18323
   18322   18323   18323       0   18325   18326   18327   18326   18327   18327
       0   18329   18330   18331   18330   18331   18331       0   18333   18334
   18335   18334   18335   18335       0   18337   18338   18339   18338   18339
   18339       0   18341   18342   18343   18342   18343   18343       0   18345
   18346   18347   18346   18347   18347       0   18349   18350   18351   18350
   18351   18351       0   18353   18354   18355   18354   18355   18355       0
   18357   18358   18359   18358   18359   18359       0   18361   18362   18363
   18362   18363   18363       0   18365   18366   18367   18366   18367   18367
       0   18369   18370   18371   18370   18371   18371       0   18373   18374
   18375   18374   18375   18375       0   18377   18378   18379   18378   18379
   18379       0   18381   18382   18383   18382   18383   18383       0   18385
   18386   18387   18386   18387   18387       0   18389   18390   18391   18390
   18391   18391       0   18393   18394   18395   18394   18395   18395       0
   18397   18398   18399   18398   18399   18399       0   18401   18402   18403
   18402   18403   18403       0   18405   18406   18407   18406   18407   18407
       0   18409   18410   18411   18410   18411   18411       0   18413   18414
   18415   18414   18415   18415       0   18417   18418   18419   18418   18419
   18419       0   18421   18422   18423   18422   18423   18423       0   18425
   18426   18427   18426   18427   18427       0   18429   18430   18431   18430
   18431   18431       0   18433   18434   18435   18434   18435   18435       0
   18437   18438   18439   18438   18439   18439       0   18441   18442   18443
   18442   18443   18443       0   18445   18446   18447   18446   18447   18447
       0   18449   18450   18451   18450   18451   18451       0   18453   18454
   18455   18454   18455   18455       0   18457   18458   18459   18458   18459
   18459       0   18461   18462   18463   18462   18463   18463       0   18465
   18466   18467   18466   18467   18467       0   18469   18470   18471   18470
   18471   18471       0   18473   18474   18475   18474   18475   18475       0
   18477   18478   18479   18478   18479   18479       0   18481   18482   18483
   18482   18483   18483       0   18485   18486   18487   18486   18487   18487
       0   18489   18490   18491   18490   18491   18491       0   18493   18494
   18495   18494   18495   18495       0   18497   18498   18499   18498   18499
   18499       0   18501   18502   18503   18502   18503   18503       0   18505
   18506   18507   18506   18507   18507       0   18509   18510   18511   18510
   18511   18511       0   18513   18514   18515   18514   18515   18515       0
   18517   18518   18519   18518   18519   18519       0   18521   18522   18523
   18522   18523   18523       0   18525   18526   18527   18526   18527   18527
       0   18529   18530   18531   18530   18531   18531       0   18533   18534
   18535   18534   18535   18535       0   18537   18538   18539   18538   18539
   18539       0   18541   18542   18543   18542   18543   18543       0   18545
   18546   18547   18546   18547   18547       0   18549   18550   18551   18550
   18551   18551       0   18553   18554   18555   18554   18555   18555       0
   18557   18558   18559   18558   18559   18559       0   18561   18562   18563
   18562   18563   18563       0   18565   18566   18567   18566   18567   18567
       0   18569   18570   18571   18570   18571   18571       0   18573   18574
   18575   18574   18575   18575       0   18577   18578   18579   18578   18579
   18579       0   18581   18582   18583   18582   18583   18583       0   18585
   18586   18587   18586   18587   18587       0   18589   18590   18591   18590
   18591   18591       0   18593   18594   18595   18594   18595   18595       0
   18597   18598   18599   18598   18599   18599       0   18601   18602   18603
   18602   18603   18603       0   18605   18606   18607   18606   18607   18607
       0   18609   18610   18611   18610   18611   18611       0   18613   18614
   18615   18614   18615   18615       0   18617   18618   18619   18618   18619
   18619       0   18621   18622   18623   18622   18623   18623       0   18625
   18626   18627   18626   18627   18627       0   18629   18630   18631   18630
   18631   18631       0   18633   18634   18635   18634   18635   18635       0
   18637   18638   18639   18638   18639   18639       0   18641   18642   18643
   18642   18643   18643       0   18645   18646   18647   18646   18647   18647
       0   18649   18650   18651   18650   18651   18651       0   18653   18654
   18655   18654   18655   18655       0   18657   18658   18659   18658   18659
   18659       0   18661   18662   18663   18662   18663   18663       0   18665
   18666   18667   18666   18667   18667       0   18669   18670   18671   18670
   18671   18671       0   18673   18674   18675   18674   18675   18675       0
   18677   18678   18679   18678   18679   18679       0   18681   18682   18683
   18682   18683   18683       0   18685   18686   18687   18686   18687   18687
       0   18689   18690   18691   18690   18691   18691       0   18693   18694
   18695   18694   18695   18695       0   18697   18698   18699   18698   18699
   18699       0   18701   18702   18703   18702   18703   18703       0   18705
   18706   18707   18706   18707   18707       0   18709   18710   18711   18710
   18711   18711       0   18713   18714   18715   18714   18715   18715       0
   18717   18718   18719   18718   18719   18719       0   18721   18722   18723
   18722   18723   18723       0   18725   18726   18727   18726   18727   18727
       0   18729   18730   18731   18730   18731   18731       0   18733   18734
   18735   18734   18735   18735       0   18737   18738   18739   18738   18739
   18739       0   18741   18742   18743   18742   18743   18743       0   18745
   18746   18747   18746   18747   18747       0   18749   18750   18751   18750
   18751   18751       0   18753   18754   18755   18754   18755   18755       0
   18757   18758   18759   18758   18759   18759       0   18761   18762   18763
   18762   18763   18763       0   18765   18766   18767   18766   18767   18767
       0   18769   18770   18771   18770   18771   18771       0   18773   18774
   18775   18774   18775   18775       0   18777   18778   18779   18778   18779
   18779       0   18781   18782   18783   18782   18783   18783       0   18785
   18786   18787   18786   18787   18787       0   18789   18790   18791   18790
   18791   18791       0   18793   18794   18795   18794   18795   18795       0
   18797   18798   18799   18798   18799   18799       0   18801   18802   18803
   18802   18803   18803       0   18805   18806   18807   18806   18807   18807
       0   18809   18810   18811   18810   18811   18811       0   18813   18814
   18815   18814   18815   18815       0   18817   18818   18819   18818   18819
   18819       0   18821   18822   18823   18822   18823   18823       0   18825
   18826   18827   18826   18827   18827       0   18829   18830   18831   18830
   18831   18831       0   18833   18834   18835   18834   18835   18835       0
   18837   18838   18839   18838   18839   18839       0   18841   18842   18843
   18842   18843   18843       0   18845   18846   18847   18846   18847   18847
       0   18849   18850   18851   18850   18851   18851       0   18853   18854
   18855   18854   18855   18855       0   18857   18858   18859   18858   18859
   18859       0   18861   18862   18863   18862   18863   18863       0   18865
   18866   18867   18866   18867   18867       0   18869   18870   18871   18870
   18871   18871       0   18873   18874   18875   18874   18875   18875       0
   18877   18878   18879   18878   18879   18879       0   18881   18882   18883
   18882   18883   18883       0   18885   18886   18887   18886   18887   18887
       0   18889   18890   18891   18890   18891   18891       0   18893   18894
   18895   18894   18895   18895       0   18897   18898   18899   18898   18899
   18899       0   18901   18902   18903   18902   18903   18903       0   18905
   18906   18907   18906   18907   18907       0   18909   18910   18911   18910
   18911   18911       0   18913   18914   18915   18914   18915   18915       0
   18917   18918   18919   18918   18919   18919       0   18921   18922   18923
   18922   18923   18923       0   18925   18926   18927   18926   18927   18927
       0   18929   18930   18931   18930   18931   18931       0   18933   18934
   18935   18934   18935   18935       0   18937   18938   18939   18938   18939
   18939       0   18941   18942   18943   18942   18943   18943       0   18945
   18946   18947   18946   18947   18947       0   18949   18950   18951   18950
   18951   18951       0   18953   18954   18955   18954   18955   18955       0
   18957   18958   18959   18958   18959   18959       0   18961   18962   18963
   18962   18963   18963       0   18965   18966   18967   18966   18967   18967
       0   18969   18970   18971   18970   18971   18971       0   18973   18974
   18975   18974   18975   18975       0   18977   18978   18979   18978   18979
   18979       0   18981   18982   18983   18982   18983   18983       0   18985
   18986   18987   18986   18987   18987       0   18989   18990   18991   18990
   18991   18991       0   18993   18994   18995   18994   18995   18995       0
   18997   18998   18999   18998   18999   18999       0   19001   19002   19003
   19002   19003   19003       0   19005   19006   19007   19006   19007   19007
       0   19009   19010   19011   19010   19011   19011       0   19013   19014
   19015   19014   19015   19015       0   19017   19018   19019   19018   19019
   19019       0   19021   19022   19023   19022   19023   19023       0   19025
   19026   19027   19026   19027   19027       0   19029   19030   19031   19030
   19031   19031       0   19033   19034   19035   19034   19035   19035       0
   19037   19038   19039   19038   19039   19039       0   19041   19042   19043
   19042   19043   19043       0   19045   19046   19047   19046   19047   19047
       0   19049   19050   19051   19050   19051   19051       0   19053   19054
   19055   19054   19055   19055       0   19057   19058   19059   19058   19059
   19059       0   19061   19062   19063   19062   19063   19063       0   19065
   19066   19067   19066   19067   19067       0   19069   19070   19071   19070
   19071   19071       0   19073   19074   19075   19074   19075   19075       0
   19077   19078   19079   19078   19079   19079       0   19081   19082   19083
   19082   19083   19083       0   19085   19086   19087   19086   19087   19087
       0   19089   19090   19091   19090   19091   19091       0   19093   19094
   19095   19094   19095   19095       0   19097   19098   19099   19098   19099
   19099       0   19101   19102   19103   19102   19103   19103       0   19105
   19106   19107   19106   19107   19107       0   19109   19110   19111   19110
   19111   19111       0   19113   19114   19115   19114   19115   19115       0
   19117   19118   19119   19118   19119   19119       0   19121   19122   19123
   19122   19123   19123       0   19125   19126   19127   19126   19127   19127
       0   19129   19130   19131   19130   19131   19131       0   19133   19134
   19135   19134   19135   19135       0   19137   19138   19139   19138   19139
   19139       0   19141   19142   19143   19142   19143   19143       0   19145
   19146   19147   19146   19147   19147       0   19149   19150   19151   19150
   19151   19151       0   19153   19154   19155   19154   19155   19155       0
   19157   19158   19159   19158   19159   19159       0   19161   19162   19163
   19162   19163   19163       0   19165   19166   19167   19166   19167   19167
       0   19169   19170   19171   19170   19171   19171       0   19173   19174
   19175   19174   19175   19175       0   19177   19178   19179   19178   19179
   19179       0   19181   19182   19183   19182   19183   19183       0   19185
   19186   19187   19186   19187   19187       0   19189   19190   19191   19190
   19191   19191       0   19193   19194   19195   19194   19195   19195       0
   19197   19198   19199   19198   19199   19199       0   19201   19202   19203
   19202   19203   19203       0   19205   19206   19207   19206   19207   19207
       0   19209   19210   19211   19210   19211   19211       0   19213   19214
   19215   19214   19215   19215       0   19217   19218   19219   19218   19219
   19219       0   19221   19222   19223   19222   19223   19223       0   19225
   19226   19227   19226   19227   19227       0   19229   19230   19231   19230
   19231   19231       0   19233   19234   19235   19234   19235   19235       0
   19237   19238   19239   19238   19239   19239       0   19241   19242   19243
   19242   19243   19243       0   19245   19246   19247   19246   19247   19247
       0   19249   19250   19251   19250   19251   19251       0   19253   19254
   19255   19254   19255   19255       0   19257   19258   19259   19258   19259
   19259       0   19261   19262   19263   19262   19263   19263       0   19265
   19266   19267   19266   19267   19267       0   19269   19270   19271   19270
   19271   19271       0   19273   19274   19275   19274   19275   19275       0
   19277   19278   19279   19278   19279   19279       0   19281   19282   19283
   19282   19283   19283       0   19285   19286   19287   19286   19287   19287
       0   19289   19290   19291   19290   19291   19291       0   19293   19294
   19295   19294   19295   19295       0   19297   19298   19299   19298   19299
   19299       0   19301   19302   19303   19302   19303   19303       0   19305
   19306   19307   19306   19307   19307       0   19309   19310   19311   19310
   19311   19311       0   19313   19314   19315   19314   19315   19315       0
   19317   19318   19319   19318   19319   19319       0   19321   19322   19323
   19322   19323   19323       0   19325   19326   19327   19326   19327   19327
       0   19329   19330   19331   19330   19331   19331       0   19333   19334
   19335   19334   19335   19335       0   19337   19338   19339   19338   19339
   19339       0   19341   19342   19343   19342   19343   19343       0   19345
   19346   19347   19346   19347   19347       0   19349   19350   19351   19350
   19351   19351       0   19353   19354   19355   19354   19355   19355       0
   19357   19358   19359   19358   19359   19359       0   19361   19362   19363
   19362   19363   19363       0   19365   19366   19367   19366   19367   19367
       0   19369   19370   19371   19370   19371   19371       0   19373   19374
   19375   19374   19375   19375       0   19377   19378   19379   19378   19379
   19379       0   19381   19382   19383   19382   19383   19383       0   19385
   19386   19387   19386   19387   19387       0   19389   19390   19391   19390
   19391   19391       0   19393   19394   19395   19394   19395   19395       0
   19397   19398   19399   19398   19399   19399       0   19401   19402   19403
   19402   19403   19403       0   19405   19406   19407   19406   19407   19407
       0   19409   19410   19411   19410   19411   19411       0   19413   19414
   19415   19414   19415   19415       0   19417   19418   19419   19418   19419
   19419       0   19421   19422   19423   19422   19423   19423       0   19425
   19426   19427   19426   19427   19427       0   19429   19430   19431   19430
   19431   19431       0   19433   19434   19435   19434   19435   19435       0
   19437   19438   19439   19438   19439   19439       0   19441   19442   19443
   19442   19443   19443       0   19445   19446   19447   19446   19447   19447
       0   19449   19450   19451   19450   19451   19451       0   19453   19454
   19455   19454   19455   19455       0   19457   19458   19459   19458   19459
   19459       0   19461   19462   19463   19462   19463   19463       0   19465
   19466   19467   19466   19467   19467       0   19469   19470   19471   19470
   19471   19471       0   19473   19474   19475   19474   19475   19475       0
   19477   19478   19479   19478   19479   19479       0   19481   19482   19483
   19482   19483   19483       0   19485   19486   19487   19486   19487   19487
       0   19489   19490   19491   19490   19491   19491       0   19493   19494
   19495   19494   19495   19495       0   19497   19498   19499   19498   19499
   19499       0   19501   19502   19503   19502   19503   19503       0   19505
   19506   19507   19506   19507   19507       0   19509   19510   19511   19510
   19511   19511       0   19513   19514   19515   19514   19515   19515       0
   19517   19518   19519   19518   19519   19519       0   19521   19522   19523
   19522   19523   19523       0   19525   19526   19527   19526   19527   19527
       0   19529   19530   19531   19530   19531   19531       0   19533   19534
   19535   19534   19535   19535       0   19537   19538   19539   19538   19539
   19539       0   19541   19542   19543   19542   19543   19543       0   19545
   19546   19547   19546   19547   19547       0   19549   19550   19551   19550
   19551   19551       0   19553   19554   19555   19554   19555   19555       0
   19557   19558   19559   19558   19559   19559       0   19561   19562   19563
   19562   19563   19563       0   19565   19566   19567   19566   19567   19567
       0   19569   19570   19571   19570   19571   19571       0   19573   19574
   19575   19574   19575   19575       0   19577   19578   19579   19578   19579
   19579       0   19581   19582   19583   19582   19583   19583       0   19585
   19586   19587   19586   19587   19587       0   19589   19590   19591   19590
   19591   19591       0   19593   19594   19595   19594   19595   19595       0
   19597   19598   19599   19598   19599   19599       0   19601   19602   19603
   19602   19603   19603       0   19605   19606   19607   19606   19607   19607
       0   19609   19610   19611   19610   19611   19611       0   19613   19614
   19615   19614   19615   19615       0   19617   19618   19619   19618   19619
   19619       0   19621   19622   19623   19622   19623   19623       0   19625
   19626   19627   19626   19627   19627       0   19629   19630   19631   19630
   19631   19631       0   19633   19634   19635   19634   19635   19635       0
   19637   19638   19639   19638   19639   19639       0   19641   19642   19643
   19642   19643   19643       0   19645   19646   19647   19646   19647   19647
       0   19649   19650   19651   19650   19651   19651       0   19653   19654
   19655   19654   19655   19655       0   19657   19658   19659   19658   19659
   19659       0   19661   19662   19663   19662   19663   19663       0   19665
   19666   19667   19666   19667   19667       0   19669   19670   19671   19670
   19671   19671       0   19673   19674   19675   19674   19675   19675       0
   19677   19678   19679   19678   19679   19679       0   19681   19682   19683
   19682   19683   19683       0   19685   19686   19687   19686   19687   19687
       0   19689   19690   19691   19690   19691   19691       0   19693   19694
   19695   19694   19695   19695       0   19697   19698   19699   19698   19699
   19699       0   19701   19702   19703   19702   19703   19703       0   19705
   19706   19707   19706   19707   19707       0   19709   19710   19711   19710
   19711   19711       0   19713   19714   19715   19714   19715   19715       0
   19717   19718   19719   19718   19719   19719       0   19721   19722   19723
   19722   19723   19723       0   19725   19726   19727   19726   19727   19727
       0   19729   19730   19731   19730   19731   19731       0   19733   19734
   19735   19734   19735   19735       0   19737   19738   19739   19738   19739
   19739       0   19741   19742   19743   19742   19743   19743       0   19745
   19746   19747   19746   19747   19747       0   19749   19750   19751   19750
   19751   19751       0   19753   19754   19755   19754   19755   19755       0
   19757   19758   19759   19758   19759   19759       0   19761   19762   19763
   19762   19763   19763       0   19765   19766   19767   19766   19767   19767
       0   19769   19770   19771   19770   19771   19771       0   19773   19774
   19775   19774   19775   19775       0   19777   19778   19779   19778   19779
   19779       0   19781   19782   19783   19782   19783   19783       0   19785
   19786   19787   19786   19787   19787       0   19789   19790   19791   19790
   19791   19791       0   19793   19794   19795   19794   19795   19795       0
   19797   19798   19799   19798   19799   19799       0   19801   19802   19803
   19802   19803   19803       0   19805   19806   19807   19806   19807   19807
       0   19809   19810   19811   19810   19811   19811       0   19813   19814
   19815   19814   19815   19815       0   19817   19818   19819   19818   19819
   19819       0   19821   19822   19823   19822   19823   19823       0   19825
   19826   19827   19826   19827   19827       0   19829   19830   19831   19830
   19831   19831       0   19833   19834   19835   19834   19835   19835       0
   19837   19838   19839   19838   19839   19839       0   19841   19842   19843
   19842   19843   19843       0   19845   19846   19847   19846   19847   19847
       0   19849   19850   19851   19850   19851   19851       0   19853   19854
   19855   19854   19855   19855       0   19857   19858   19859   19858   19859
   19859       0   19861   19862   19863   19862   19863   19863       0   19865
   19866   19867   19866   19867   19867       0   19869   19870   19871   19870
   19871   19871       0   19873   19874   19875   19874   19875   19875       0
   19877   19878   19879   19878   19879   19879       0   19881   19882   19883
   19882   19883   19883       0   19885   19886   19887   19886   19887   19887
       0   19889   19890   19891   19890   19891   19891       0   19893   19894
   19895   19894   19895   19895       0   19897   19898   19899   19898   19899
   19899       0   19901   19902   19903   19902   19903   19903       0   19905
   19906   19907   19906   19907   19907       0   19909   19910   19911   19910
   19911   19911       0   19913   19914   19915   19914   19915   19915       0
   19917   19918   19919   19918   19919   19919       0   19921   19922   19923
   19922   19923   19923       0   19925   19926   19927   19926   19927   19927
       0   19929   19930   19931   19930   19931   19931       0   19933   19934
   19935   19934   19935   19935       0   19937   19938   19939   19938   19939
   19939       0   19941   19942   19943   19942   19943   19943       0   19945
   19946   19947   19946   19947   19947       0   19949   19950   19951   19950
   19951   19951       0   19953   19954   19955   19954   19955   19955       0
   19957   19958   19959   19958   19959   19959       0   19961   19962   19963
   19962   19963   19963       0   19965   19966   19967   19966   19967   19967
       0   19969   19970   19971   19970   19971   19971       0   19973   19974
   19975   19974   19975   19975       0   19977   19978   19979   19978   19979
   19979       0   19981   19982   19983   19982   19983   19983       0   19985
   19986   19987   19986   19987   19987       0   19989   19990   19991   19990
   19991   19991       0   19993   19994   19995   19994   19995   19995       0
   19997   19998   19999   19998   19999   19999       0   20001   20002   20003
   20002   20003   20003       0   20005   20006   20007   20006   20007   20007
       0   20009   20010   20011   20010   20011   20011       0   20013   20014
   20015   20014   20015   20015       0   20017   20018   20019   20018   20019
   20019       0   20021   20022   20023   20022   20023   20023       0   20025
   20026   20027   20026   20027   20027       0   20029   20030   20031   20030
   20031   20031       0   20033   20034   20035   20034   20035   20035       0
   20037   20038   20039   20038   20039   20039       0   20041   20042   20043
   20042   20043   20043       0   20045   20046   20047   20046   20047   20047
       0   20049   20050   20051   20050   20051   20051       0   20053   20054
   20055   20054   20055   20055       0   20057   20058   20059   20058   20059
   20059       0   20061   20062   20063   20062   20063   20063       0   20065
   20066   20067   20066   20067   20067       0   20069   20070   20071   20070
   20071   20071       0   20073   20074   20075   20074   20075   20075       0
   20077   20078   20079   20078   20079   20079       0   20081   20082   20083
   20082   20083   20083       0   20085   20086   20087   20086   20087   20087
       0   20089   20090   20091   20090   20091   20091       0   20093   20094
   20095   20094   20095   20095       0   20097   20098   20099   20098   20099
   20099       0   20101   20102   20103   20102   20103   20103       0   20105
   20106   20107   20106   20107   20107       0   20109   20110   20111   20110
   20111   20111       0   20113   20114   20115   20114   20115   20115       0
   20117   20118   20119   20118   20119   20119       0   20121   20122   20123
   20122   20123   20123       0   20125   20126   20127   20126   20127   20127
       0   20129   20130   20131   20130   20131   20131       0   20133   20134
   20135   20134   20135   20135       0   20137   20138   20139   20138   20139
   20139       0   20141   20142   20143   20142   20143   20143       0   20145
   20146   20147   20146   20147   20147       0   20149   20150   20151   20150
   20151   20151       0   20153   20154   20155   20154   20155   20155       0
   20157   20158   20159   20158   20159   20159       0   20161   20162   20163
   20162   20163   20163       0   20165   20166   20167   20166   20167   20167
       0   20169   20170   20171   20170   20171   20171       0   20173   20174
   20175   20174   20175   20175       0   20177   20178   20179   20178   20179
   20179       0   20181   20182   20183   20182   20183   20183       0   20185
   20186   20187   20186   20187   20187       0   20189   20190   20191   20190
   20191   20191       0   20193   20194   20195   20194   20195   20195       0
   20197   20198   20199   20198   20199   20199       0   20201   20202   20203
   20202   20203   20203       0   20205   20206   20207   20206   20207   20207
       0   20209   20210   20211   20210   20211   20211       0   20213   20214
   20215   20214   20215   20215       0   20217   20218   20219   20218   20219
   20219       0   20221   20222   20223   20222   20223   20223       0   20225
   20226   20227   20226   20227   20227       0   20229   20230   20231   20230
   20231   20231       0   20233   20234   20235   20234   20235   20235       0
   20237   20238   20239   20238   20239   20239       0   20241   20242   20243
   20242   20243   20243       0   20245   20246   20247   20246   20247   20247
       0   20249   20250   20251   20250   20251   20251       0   20253   20254
   20255   20254   20255   20255       0   20257   20258   20259   20258   20259
   20259       0   20261   20262   20263   20262   20263   20263       0   20265
   20266   20267   20266   20267   20267       0   20269   20270   20271   20270
   20271   20271       0   20273   20274   20275   20274   20275   20275       0
   20277   20278   20279   20278   20279   20279       0   20281   20282   20283
   20282   20283   20283       0   20285   20286   20287   20286   20287   20287
       0   20289   20290   20291   20290   20291   20291       0   20293   20294
   20295   20294   20295   20295       0   20297   20298   20299   20298   20299
   20299       0   20301   20302   20303   20302   20303   20303       0   20305
   20306   20307   20306   20307   20307       0   20309   20310   20311   20310
   20311   20311       0   20313   20314   20315   20314   20315   20315       0
   20317   20318   20319   20318   20319   20319       0   20321   20322   20323
   20322   20323   20323       0   20325   20326   20327   20326   20327   20327
       0   20329   20330   20331   20330   20331   20331       0   20333   20334
   20335   20334   20335   20335       0   20337   20338   20339   20338   20339
   20339       0   20341   20342   20343   20342   20343   20343       0   20345
   20346   20347   20346   20347   20347       0   20349   20350   20351   20350
   20351   20351       0   20353   20354   20355   20354   20355   20355       0
   20357   20358   20359   20358   20359   20359       0   20361   20362   20363
   20362   20363   20363       0   20365   20366   20367   20366   20367   20367
       0   20369   20370   20371   20370   20371   20371       0   20373   20374
   20375   20374   20375   20375       0   20377   20378   20379   20378   20379
   20379       0   20381   20382   20383   20382   20383   20383       0   20385
   20386   20387   20386   20387   20387       0   20389   20390   20391   20390
   20391   20391       0   20393   20394   20395   20394   20395   20395       0
   20397   20398   20399   20398   20399   20399       0   20401   20402   20403
   20402   20403   20403       0   20405   20406   20407   20406   20407   20407
       0   20409   20410   20411   20410   20411   20411       0   20413   20414
   20415   20414   20415   20415       0   20417   20418   20419   20418   20419
   20419       0   20421   20422   20423   20422   20423   20423       0   20425
   20426   20427   20426   20427   20427       0   20429   20430   20431   20430
   20431   20431       0   20433   20434   20435   20434   20435   20435       0
   20437   20438   20439   20438   20439   20439       0   20441   20442   20443
   20442   20443   20443       0   20445   20446   20447   20446   20447   20447
       0   20449   20450   20451   20450   20451   20451       0   20453   20454
   20455   20454   20455   20455       0   20457   20458   20459   20458   20459
   20459       0   20461   20462   20463   20462   20463   20463       0   20465
   20466   20467   20466   20467   20467       0   20469   20470   20471   20470
   20471   20471       0   20473   20474   20475   20474   20475   20475       0
   20477   20478   20479   20478   20479   20479       0   20481   20482   20483
   20482   20483   20483       0   20485   20486   20487   20486   20487   20487
       0   20489   20490   20491   20490   20491   20491       0   20493   20494
   20495   20494   20495   20495       0   20497   20498   20499   20498   20499
   20499       0   20501   20502   20503   20502   20503   20503       0   20505
   20506   20507   20506   20507   20507       0   20509   20510   20511   20510
   20511   20511       0   20513   20514   20515   20514   20515   20515       0
   20517   20518   20519   20518   20519   20519       0   20521   20522   20523
   20522   20523   20523       0   20525   20526   20527   20526   20527   20527
       0   20529   20530   20531   20530   20531   20531       0   20533   20534
   20535   20534   20535   20535       0   20537   20538   20539   20538   20539
   20539       0   20541   20542   20543   20542   20543   20543       0   20545
   20546   20547   20546   20547   20547       0   20549   20550   20551   20550
   20551   20551       0   20553   20554   20555   20554   20555   20555       0
   20557   20558   20559   20558   20559   20559       0   20561   20562   20563
   20562   20563   20563       0   20565   20566   20567   20566   20567   20567
       0   20569   20570   20571   20570   20571   20571       0   20573   20574
   20575   20574   20575   20575       0   20577   20578   20579   20578   20579
   20579       0   20581   20582   20583   20582   20583   20583       0   20585
   20586   20587   20586   20587   20587       0   20589   20590   20591   20590
   20591   20591       0   20593   20594   20595   20594   20595   20595       0
   20597   20598   20599   20598   20599   20599       0   20601   20602   20603
   20602   20603   20603       0   20605   20606   20607   20606   20607   20607
       0   20609   20610   20611   20610   20611   20611       0   20613   20614
   20615   20614   20615   20615       0   20617   20618   20619   20618   20619
   20619       0   20621   20622   20623   20622   20623   20623       0   20625
   20626   20627   20626   20627   20627       0   20629   20630   20631   20630
   20631   20631       0   20633   20634   20635   20634   20635   20635       0
   20637   20638   20639   20638   20639   20639       0   20641   20642   20643
   20642   20643   20643       0   20645   20646   20647   20646   20647   20647
       0   20649   20650   20651   20650   20651   20651       0   20653   20654
   20655   20654   20655   20655       0   20657   20658   20659   20658   20659
   20659       0   20661   20662   20663   20662   20663   20663       0   20665
   20666   20667   20666   20667   20667       0   20669   20670   20671   20670
   20671   20671       0   20673   20674   20675   20674   20675   20675       0
   20677   20678   20679   20678   20679   20679       0   20681   20682   20683
   20682   20683   20683       0   20685   20686   20687   20686   20687   20687
       0   20689   20690   20691   20690   20691   20691       0   20693   20694
   20695   20694   20695   20695       0   20697   20698   20699   20698   20699
   20699       0   20701   20702   20703   20702   20703   20703       0   20705
   20706   20707   20706   20707   20707       0   20709   20710   20711   20710
   20711   20711       0   20713   20714   20715   20714   20715   20715       0
   20717   20718   20719   20718   20719   20719       0   20721   20722   20723
   20722   20723   20723       0   20725   20726   20727   20726   20727   20727
       0   20729   20730   20731   20730   20731   20731       0   20733   20734
   20735   20734   20735   20735       0   20737   20738   20739   20738   20739
   20739       0   20741   20742   20743   20742   20743   20743       0   20745
   20746   20747   20746   20747   20747       0   20749   20750   20751   20750
   20751   20751       0   20753   20754   20755   20754   20755   20755       0
   20757   20758   20759   20758   20759   20759       0   20761   20762   20763
   20762   20763   20763       0   20765   20766   20767   20766   20767   20767
       0   20769   20770   20771   20770   20771   20771       0   20773   20774
   20775   20774   20775   20775       0   20777   20778   20779   20778   20779
   20779       0   20781   20782   20783   20782   20783   20783       0   20785
   20786   20787   20786   20787   20787       0   20789   20790   20791   20790
   20791   20791       0   20793   20794   20795   20794   20795   20795       0
   20797   20798   20799   20798   20799   20799       0   20801   20802   20803
   20802   20803   20803       0   20805   20806   20807   20806   20807   20807
       0   20809   20810   20811   20810   20811   20811       0   20813   20814
   20815   20814   20815   20815       0   20817   20818   20819   20818   20819
   20819       0   20821   20822   20823   20822   20823   20823       0   20825
   20826   20827   20826   20827   20827       0   20829   20830   20831   20830
   20831   20831       0   20833   20834   20835   20834   20835   20835       0
   20837   20838   20839   20838   20839   20839       0   20841   20842   20843
   20842   20843   20843       0   20845   20846   20847   20846   20847   20847
       0   20849   20850   20851   20850   20851   20851       0   20853   20854
   20855   20854   20855   20855       0   20857   20858   20859   20858   20859
   20859       0   20861   20862   20863   20862   20863   20863       0   20865
   20866   20867   20866   20867   20867       0   20869   20870   20871   20870
   20871   20871       0   20873   20874   20875   20874   20875   20875       0
   20877   20878   20879   20878   20879   20879       0   20881   20882   20883
   20882   20883   20883       0   20885   20886   20887   20886   20887   20887
       0   20889   20890   20891   20890   20891   20891       0   20893   20894
   20895   20894   20895   20895       0   20897   20898   20899   20898   20899
   20899       0   20901   20902   20903   20902   20903   20903       0   20905
   20906   20907   20906   20907   20907       0   20909   20910   20911   20910
   20911   20911       0   20913   20914   20915   20914   20915   20915       0
   20917   20918   20919   20918   20919   20919       0   20921   20922   20923
   20922   20923   20923       0   20925   20926   20927   20926   20927   20927
       0   20929   20930   20931   20930   20931   20931       0   20933   20934
   20935   20934   20935   20935       0   20937   20938   20939   20938   20939
   20939       0   20941   20942   20943   20942   20943   20943       0   20945
   20946   20947   20946   20947   20947       0   20949   20950   20951   20950
   20951   20951       0   20953   20954   20955   20954   20955   20955       0
   20957   20958   20959   20958   20959   20959       0   20961   20962   20963
   20962   20963   20963       0   20965   20966   20967   20966   20967   20967
       0   20969   20970   20971   20970   20971   20971       0   20973   20974
   20975   20974   20975   20975       0   20977   20978   20979   20978   20979
   20979       0   20981   20982   20983   20982   20983   20983       0   20985
   20986   20987   20986   20987   20987       0   20989   20990   20991   20990
   20991   20991       0   20993   20994   20995   20994   20995   20995       0
   20997   20998   20999   20998   20999   20999       0   21001   21002   21003
   21002   21003   21003       0   21005   21006   21007   21006   21007   21007
       0   21009   21010   21011   21010   21011   21011       0   21013   21014
   21015   21014   21015   21015       0   21017   21018   21019   21018   21019
   21019       0   21021   21022   21023   21022   21023   21023       0   21025
   21026   21027   21026   21027   21027       0   21029   21030   21031   21030
   21031   21031       0   21033   21034   21035   21034   21035   21035       0
   21037   21038   21039   21038   21039   21039       0   21041   21042   21043
   21042   21043   21043       0   21045   21046   21047   21046   21047   21047
       0   21049   21050   21051   21050   21051   21051       0   21053   21054
   21055   21054   21055   21055       0   21057   21058   21059   21058   21059
   21059       0   21061   21062   21063   21062   21063   21063       0   21065
   21066   21067   21066   21067   21067       0   21069   21070   21071   21070
   21071   21071       0   21073   21074   21075   21074   21075   21075       0
   21077   21078   21079   21078   21079   21079       0   21081   21082   21083
   21082   21083   21083       0   21085   21086   21087   21086   21087   21087
       0   21089   21090   21091   21090   21091   21091       0   21093   21094
   21095   21094   21095   21095       0   21097   21098   21099   21098   21099
   21099       0   21101   21102   21103   21102   21103   21103       0   21105
   21106   21107   21106   21107   21107       0   21109   21110   21111   21110
   21111   21111       0   21113   21114   21115   21114   21115   21115       0
   21117   21118   21119   21118   21119   21119       0   21121   21122   21123
   21122   21123   21123       0   21125   21126   21127   21126   21127   21127
       0   21129   21130   21131   21130   21131   21131       0   21133   21134
   21135   21134   21135   21135       0   21137   21138   21139   21138   21139
   21139       0   21141   21142   21143   21142   21143   21143       0   21145
   21146   21147   21146   21147   21147       0   21149   21150   21151   21150
   21151   21151       0   21153   21154   21155   21154   21155   21155       0
   21157   21158   21159   21158   21159   21159       0   21161   21162   21163
   21162   21163   21163       0   21165   21166   21167   21166   21167   21167
       0   21169   21170   21171   21170   21171   21171       0   21173   21174
   21175   21174   21175   21175       0   21177   21178   21179   21178   21179
   21179       0   21181   21182   21183   21182   21183   21183       0   21185
   21186   21187   21186   21187   21187       0   21189   21190   21191   21190
   21191   21191       0   21193   21194   21195   21194   21195   21195       0
   21197   21198   21199   21198   21199   21199       0   21201   21202   21203
   21202   21203   21203       0   21205   21206   21207   21206   21207   21207
       0   21209   21210   21211   21210   21211   21211       0   21213   21214
   21215   21214   21215   21215       0   21217   21218   21219   21218   21219
   21219       0   21221   21222   21223   21222   21223   21223       0   21225
   21226   21227   21226   21227   21227       0   21229   21230   21231   21230
   21231   21231       0   21233   21234   21235   21234   21235   21235       0
   21237   21238   21239   21238   21239   21239       0   21241   21242   21243
   21242   21243   21243       0   21245   21246   21247   21246   21247   21247
       0   21249   21250   21251   21250   21251   21251       0   21253   21254
   21255   21254   21255   21255       0   21257   21258   21259   21258   21259
   21259       0   21261   21262   21263   21262   21263   21263       0   21265
   21266   21267   21266   21267   21267       0   21269   21270   21271   21270
   21271   21271       0   21273   21274   21275   21274   21275   21275       0
   21277   21278   21279   21278   21279   21279       0   21281   21282   21283
   21282   21283   21283       0   21285   21286   21287   21286   21287   21287
       0   21289   21290   21291   21290   21291   21291       0   21293   21294
   21295   21294   21295   21295       0   21297   21298   21299   21298   21299
   21299       0   21301   21302   21303   21302   21303   21303       0   21305
   21306   21307   21306   21307   21307       0   21309   21310   21311   21310
   21311   21311       0   21313   21314   21315   21314   21315   21315       0
   21317   21318   21319   21318   21319   21319       0   21321   21322   21323
   21322   21323   21323       0   21325   21326   21327   21326   21327   21327
       0   21329   21330   21331   21330   21331   21331       0   21333   21334
   21335   21334   21335   21335       0   21337   21338   21339   21338   21339
   21339       0   21341   21342   21343   21342   21343   21343       0   21345
   21346   21347   21346   21347   21347       0   21349   21350   21351   21350
   21351   21351       0   21353   21354   21355   21354   21355   21355       0
   21357   21358   21359   21358   21359   21359       0   21361   21362   21363
   21362   21363   21363       0   21365   21366   21367   21366   21367   21367
       0   21369   21370   21371   21370   21371   21371       0   21373   21374
   21375   21374   21375   21375       0   21377   21378   21379   21378   21379
   21379       0   21381   21382   21383   21382   21383   21383       0   21385
   21386   21387   21386   21387   21387       0   21389   21390   21391   21390
   21391   21391       0   21393   21394   21395   21394   21395   21395       0
   21397   21398   21399   21398   21399   21399       0   21401   21402   21403
   21402   21403   21403       0   21405   21406   21407   21406   21407   21407
       0   21409   21410   21411   21410   21411   21411       0   21413   21414
   21415   21414   21415   21415       0   21417   21418   21419   21418   21419
   21419       0   21421   21422   21423   21422   21423   21423       0   21425
   21426   21427   21426   21427   21427       0   21429   21430   21431   21430
   21431   21431       0   21433   21434   21435   21434   21435   21435       0
   21437   21438   21439   21438   21439   21439       0   21441   21442   21443
   21442   21443   21443       0   21445   21446   21447   21446   21447   21447
       0   21449   21450   21451   21450   21451   21451       0   21453   21454
   21455   21454   21455   21455       0   21457   21458   21459   21458   21459
   21459       0   21461   21462   21463   21462   21463   21463       0   21465
   21466   21467   21466   21467   21467       0   21469   21470   21471   21470
   21471   21471       0   21473   21474   21475   21474   21475   21475       0
   21477   21478   21479   21478   21479   21479       0   21481   21482   21483
   21482   21483   21483       0   21485   21486   21487   21486   21487   21487
       0   21489   21490   21491   21490   21491   21491       0   21493   21494
   21495   21494   21495   21495       0   21497   21498   21499   21498   21499
   21499       0   21501   21502   21503   21502   21503   21503       0   21505
   21506   21507   21506   21507   21507       0   21509   21510   21511   21510
   21511   21511       0   21513   21514   21515   21514   21515   21515       0
   21517   21518   21519   21518   21519   21519       0   21521   21522   21523
   21522   21523   21523       0   21525   21526   21527   21526   21527   21527
       0   21529   21530   21531   21530   21531   21531       0   21533   21534
   21535   21534   21535   21535       0   21537   21538   21539   21538   21539
   21539       0   21541   21542   21543   21542   21543   21543       0   21545
   21546   21547   21546   21547   21547       0   21549   21550   21551   21550
   21551   21551       0   21553   21554   21555   21554   21555   21555       0
   21557   21558   21559   21558   21559   21559       0   21561   21562   21563
   21562   21563   21563       0   21565   21566   21567   21566   21567   21567
       0   21569   21570   21571   21570   21571   21571       0   21573   21574
   21575   21574   21575   21575       0   21577   21578   21579   21578   21579
   21579       0   21581   21582   21583   21582   21583   21583       0   21585
   21586   21587   21586   21587   21587       0   21589   21590   21591   21590
   21591   21591       0   21593   21594   21595   21594   21595   21595       0
   21597   21598   21599   21598   21599   21599       0   21601   21602   21603
   21602   21603   21603       0   21605   21606   21607   21606   21607   21607
       0   21609   21610   21611   21610   21611   21611       0   21613   21614
   21615   21614   21615   21615       0   21617   21618   21619   21618   21619
   21619       0   21621   21622   21623   21622   21623   21623       0   21625
   21626   21627   21626   21627   21627       0   21629   21630   21631   21630
   21631   21631       0   21633   21634   21635   21634   21635   21635       0
   21637   21638   21639   21638   21639   21639       0   21641   21642   21643
   21642   21643   21643       0   21645   21646   21647   21646   21647   21647
       0   21649   21650   21651   21650   21651   21651       0   21653   21654
   21655   21654   21655   21655       0   21657   21658   21659   21658   21659
   21659       0   21661   21662   21663   21662   21663   21663       0   21665
   21666   21667   21666   21667   21667       0   21669   21670   21671   21670
   21671   21671       0   21673   21674   21675   21674   21675   21675       0
   21677   21678   21679   21678   21679   21679       0   21681   21682   21683
   21682   21683   21683       0   21685   21686   21687   21686   21687   21687
       0   21689   21690   21691   21690   21691   21691       0   21693   21694
   21695   21694   21695   21695       0   21697   21698   21699   21698   21699
   21699       0   21701   21702   21703   21702   21703   21703       0   21705
   21706   21707   21706   21707   21707       0   21709   21710   21711   21710
   21711   21711       0   21713   21714   21715   21714   21715   21715       0
   21717   21718   21719   21718   21719   21719       0   21721   21722   21723
   21722   21723   21723       0   21725   21726   21727   21726   21727   21727
       0   21729   21730   21731   21730   21731   21731       0   21733   21734
   21735   21734   21735   21735       0   21737   21738   21739   21738   21739
   21739       0   21741   21742   21743   21742   21743   21743       0   21745
   21746   21747   21746   21747   21747       0   21749   21750   21751   21750
   21751   21751       0   21753   21754   21755   21754   21755   21755       0
   21757   21758   21759   21758   21759   21759       0   21761   21762   21763
   21762   21763   21763       0   21765   21766   21767   21766   21767   21767
       0   21769   21770   21771   21770   21771   21771       0   21773   21774
   21775   21774   21775   21775       0   21777   21778   21779   21778   21779
   21779       0   21781   21782   21783   21782   21783   21783       0   21785
   21786   21787   21786   21787   21787       0   21789   21790   21791   21790
   21791   21791       0   21793   21794   21795   21794   21795   21795       0
   21797   21798   21799   21798   21799   21799       0   21801   21802   21803
   21802   21803   21803       0   21805   21806   21807   21806   21807   21807
       0   21809   21810   21811   21810   21811   21811       0   21813   21814
   21815   21814   21815   21815       0   21817   21818   21819   21818   21819
   21819       0   21821   21822   21823   21822   21823   21823       0   21825
   21826   21827   21826   21827   21827       0   21829   21830   21831   21830
   21831   21831       0   21833   21834   21835   21834   21835   21835       0
   21837   21838   21839   21838   21839   21839       0   21841   21842   21843
   21842   21843   21843       0   21845   21846   21847   21846   21847   21847
       0   21849   21850   21851   21850   21851   21851       0   21853   21854
   21855   21854   21855   21855       0   21857   21858   21859   21858   21859
   21859       0   21861   21862   21863   21862   21863   21863       0   21865
   21866   21867   21866   21867   21867       0   21869   21870   21871   21870
   21871   21871       0   21873   21874   21875   21874   21875   21875       0
   21877   21878   21879   21878   21879   21879       0   21881   21882   21883
   21882   21883   21883       0   21885   21886   21887   21886   21887   21887
       0   21889   21890   21891   21890   21891   21891       0   21893   21894
   21895   21894   21895   21895       0   21897   21898   21899   21898   21899
   21899       0   21901   21902   21903   21902   21903   21903       0   21905
   21906   21907   21906   21907   21907       0   21909   21910   21911   21910
   21911   21911       0   21913   21914   21915   21914   21915   21915       0
   21917   21918   21919   21918   21919   21919       0   21921   21922   21923
   21922   21923   21923       0   21925   21926   21927   21926   21927   21927
       0   21929   21930   21931   21930   21931   21931       0   21933   21934
   21935   21934   21935   21935       0   21937   21938   21939   21938   21939
   21939       0   21941   21942   21943   21942   21943   21943       0   21945
   21946   21947   21946   21947   21947       0   21949   21950   21951   21950
   21951   21951       0   21953   21954   21955   21954   21955   21955       0
   21957   21958   21959   21958   21959   21959       0   21961   21962   21963
   21962   21963   21963       0   21965   21966   21967   21966   21967   21967
       0   21969   21970   21971   21970   21971   21971       0   21973   21974
   21975   21974   21975   21975       0   21977   21978   21979   21978   21979
   21979       0   21981   21982   21983   21982   21983   21983       0   21985
   21986   21987   21986   21987   21987       0   21989   21990   21991   21990
   21991   21991       0   21993   21994   21995   21994   21995   21995       0
   21997   21998   21999   21998   21999   21999       0   22001   22002   22003
   22002   22003   22003       0   22005   22006   22007   22006   22007   22007
       0   22009   22010   22011   22010   22011   22011       0   22013   22014
   22015   22014   22015   22015       0   22017   22018   22019   22018   22019
   22019       0   22021   22022   22023   22022   22023   22023       0   22025
   22026   22027   22026   22027   22027       0   22029   22030   22031   22030
   22031   22031       0   22033   22034   22035   22034   22035   22035       0
   22037   22038   22039   22038   22039   22039       0   22041   22042   22043
   22042   22043   22043       0   22045   22046   22047   22046   22047   22047
       0   22049   22050   22051   22050   22051   22051       0   22053   22054
   22055   22054   22055   22055       0   22057   22058   22059   22058   22059
   22059       0   22061   22062   22063   22062   22063   22063       0   22065
   22066   22067   22066   22067   22067       0   22069   22070   22071   22070
   22071   22071       0   22073   22074   22075   22074   22075   22075       0
   22077   22078   22079   22078   22079   22079       0   22081   22082   22083
   22082   22083   22083       0   22085   22086   22087   22086   22087   22087
       0   22089   22090   22091   22090   22091   22091       0   22093   22094
   22095   22094   22095   22095       0   22097   22098   22099   22098   22099
   22099       0   22101   22102   22103   22102   22103   22103       0   22105
   22106   22107   22106   22107   22107       0   22109   22110   22111   22110
   22111   22111       0   22113   22114   22115   22114   22115   22115       0
   22117   22118   22119   22118   22119   22119       0   22121   22122   22123
   22122   22123   22123       0   22125   22126   22127   22126   22127   22127
       0   22129   22130   22131   22130   22131   22131       0   22133   22134
   22135   22134   22135   22135       0   22137   22138   22139   22138   22139
   22139       0   22141   22142   22143   22142   22143   22143       0   22145
   22146   22147   22146   22147   22147       0   22149   22150   22151   22150
   22151   22151       0   22153   22154   22155   22154   22155   22155       0
   22157   22158   22159   22158   22159   22159       0   22161   22162   22163
   22162   22163   22163       0   22165   22166   22167   22166   22167   22167
       0   22169   22170   22171   22170   22171   22171       0   22173   22174
   22175   22174   22175   22175       0   22177   22178   22179   22178   22179
   22179       0   22181   22182   22183   22182   22183   22183       0   22185
   22186   22187   22186   22187   22187       0   22189   22190   22191   22190
   22191   22191       0   22193   22194   22195   22194   22195   22195       0
   22197   22198   22199   22198   22199   22199       0   22201   22202   22203
   22202   22203   22203       0   22205   22206   22207   22206   22207   22207
       0   22209   22210   22211   22210   22211   22211       0   22213   22214
   22215   22214   22215   22215       0   22217   22218   22219   22218   22219
   22219       0   22221   22222   22223   22222   22223   22223       0   22225
   22226   22227   22226   22227   22227       0   22229   22230   22231   22230
   22231   22231       0   22233   22234   22235   22234   22235   22235       0
   22237   22238   22239   22238   22239   22239       0   22241   22242   22243
   22242   22243   22243       0   22245   22246   22247   22246   22247   22247
       0   22249   22250   22251   22250   22251   22251       0   22253   22254
   22255   22254   22255   22255       0   22257   22258   22259   22258   22259
   22259       0   22261   22262   22263   22262   22263   22263       0   22265
   22266   22267   22266   22267   22267       0   22269   22270   22271   22270
   22271   22271       0   22273   22274   22275   22274   22275   22275       0
   22277   22278   22279   22278   22279   22279       0   22281   22282   22283
   22282   22283   22283       0   22285   22286   22287   22286   22287   22287
       0   22289   22290   22291   22290   22291   22291       0   22293   22294
   22295   22294   22295   22295       0   22297   22298   22299   22298   22299
   22299       0   22301   22302   22303   22302   22303   22303       0   22305
   22306   22307   22306   22307   22307       0   22309   22310   22311   22310
   22311   22311       0   22313   22314   22315   22314   22315   22315       0
   22317   22318   22319   22318   22319   22319       0   22321   22322   22323
   22322   22323   22323       0   22325   22326   22327   22326   22327   22327
       0   22329   22330   22331   22330   22331   22331       0   22333   22334
   22335   22334   22335   22335       0   22337   22338   22339   22338   22339
   22339       0   22341   22342   22343   22342   22343   22343       0   22345
   22346   22347   22346   22347   22347       0   22349   22350   22351   22350
   22351   22351       0   22353   22354   22355   22354   22355   22355       0
   22357   22358   22359   22358   22359   22359       0   22361   22362   22363
   22362   22363   22363       0   22365   22366   22367   22366   22367   22367
       0   22369   22370   22371   22370   22371   22371       0   22373   22374
   22375   22374   22375   22375       0   22377   22378   22379   22378   22379
   22379       0   22381   22382   22383   22382   22383   22383       0   22385
   22386   22387   22386   22387   22387       0   22389   22390   22391   22390
   22391   22391       0   22393   22394   22395   22394   22395   22395       0
   22397   22398   22399   22398   22399   22399       0   22401   22402   22403
   22402   22403   22403       0   22405   22406   22407   22406   22407   22407
       0   22409   22410   22411   22410   22411   22411       0   22413   22414
   22415   22414   22415   22415       0   22417   22418   22419   22418   22419
   22419       0   22421   22422   22423   22422   22423   22423       0   22425
   22426   22427   22426   22427   22427       0   22429   22430   22431   22430
   22431   22431       0   22433   22434   22435   22434   22435   22435       0
   22437   22438   22439   22438   22439   22439       0   22441   22442   22443
   22442   22443   22443       0   22445   22446   22447   22446   22447   22447
       0   22449   22450   22451   22450   22451   22451       0   22453   22454
   22455   22454   22455   22455       0   22457   22458   22459   22458   22459
   22459       0   22461   22462   22463   22462   22463   22463       0   22465
   22466   22467   22466   22467   22467       0   22469   22470   22471   22470
   22471   22471       0   22473   22474   22475   22474   22475   22475       0
   22477   22478   22479   22478   22479   22479       0   22481   22482   22483
   22482   22483   22483       0   22485   22486   22487   22486   22487   22487
       0   22489   22490   22491   22490   22491   22491       0   22493   22494
   22495   22494   22495   22495       0   22497   22498   22499   22498   22499
   22499       0   22501   22502   22503   22502   22503   22503       0   22505
   22506   22507   22506   22507   22507       0   22509   22510   22511   22510
   22511   22511       0   22513   22514   22515   22514   22515   22515       0
   22517   22518   22519   22518   22519   22519       0   22521   22522   22523
   22522   22523   22523       0   22525   22526   22527   22526   22527   22527
       0   22529   22530   22531   22530   22531   22531       0   22533   22534
   22535   22534   22535   22535       0   22537   22538   22539   22538   22539
   22539       0   22541   22542   22543   22542   22543   22543       0   22545
   22546   22547   22546   22547   22547       0   22549   22550   22551   22550
   22551   22551       0   22553   22554   22555   22554   22555   22555       0
   22557   22558   22559   22558   22559   22559       0   22561   22562   22563
   22562   22563   22563       0   22565   22566   22567   22566   22567   22567
       0   22569   22570   22571   22570   22571   22571       0   22573   22574
   22575   22574   22575   22575       0   22577   22578   22579   22578   22579
   22579       0   22581   22582   22583   22582   22583   22583       0   22585
   22586   22587   22586   22587   22587       0   22589   22590   22591   22590
   22591   22591       0   22593   22594   22595   22594   22595   22595       0
   22597   22598   22599   22598   22599   22599       0   22601   22602   22603
   22602   22603   22603       0   22605   22606   22607   22606   22607   22607
       0   22609   22610   22611   22610   22611   22611       0   22613   22614
   22615   22614   22615   22615       0   22617   22618   22619   22618   22619
   22619       0   22621   22622   22623   22622   22623   22623       0   22625
   22626   22627   22626   22627   22627       0   22629   22630   22631   22630
   22631   22631       0   22633   22634   22635   22634   22635   22635       0
   22637   22638   22639   22638   22639   22639       0   22641   22642   22643
   22642   22643   22643       0   22645   22646   22647   22646   22647   22647
       0   22649   22650   22651   22650   22651   22651       0   22653   22654
   22655   22654   22655   22655       0   22657   22658   22659   22658   22659
   22659       0   22661   22662   22663   22662   22663   22663       0   22665
   22666   22667   22666   22667   22667       0   22669   22670   22671   22670
   22671   22671       0   22673   22674   22675   22674   22675   22675       0
   22677   22678   22679   22678   22679   22679       0   22681   22682   22683
   22682   22683   22683       0   22685   22686   22687   22686   22687   22687
       0   22689   22690   22691   22690   22691   22691       0   22693   22694
   22695   22694   22695   22695       0   22697   22698   22699   22698   22699
   22699       0   22701   22702   22703   22702   22703   22703       0   22705
   22706   22707   22706   22707   22707       0   22709   22710   22711   22710
   22711   22711       0   22713   22714   22715   22714   22715   22715       0
   22717   22718   22719   22718   22719   22719       0   22721   22722   22723
   22722   22723   22723       0   22725   22726   22727   22726   22727   22727
       0   22729   22730   22731   22730   22731   22731       0   22733   22734
   22735   22734   22735   22735       0   22737   22738   22739   22738   22739
   22739       0   22741   22742   22743   22742   22743   22743       0   22745
   22746   22747   22746   22747   22747       0   22749   22750   22751   22750
   22751   22751       0   22753   22754   22755   22754   22755   22755       0
   22757   22758   22759   22758   22759   22759       0   22761   22762   22763
   22762   22763   22763       0   22765   22766   22767   22766   22767   22767
       0   22769   22770   22771   22770   22771   22771       0   22773   22774
   22775   22774   22775   22775       0   22777   22778   22779   22778   22779
   22779       0   22781   22782   22783   22782   22783   22783       0   22785
   22786   22787   22786   22787   22787       0   22789   22790   22791   22790
   22791   22791       0   22793   22794   22795   22794   22795   22795       0
   22797   22798   22799   22798   22799   22799       0   22801   22802   22803
   22802   22803   22803       0   22805   22806   22807   22806   22807   22807
       0   22809   22810   22811   22810   22811   22811       0   22813   22814
   22815   22814   22815   22815       0   22817   22818   22819   22818   22819
   22819       0   22821   22822   22823   22822   22823   22823       0   22825
   22826   22827   22826   22827   22827       0   22829   22830   22831   22830
   22831   22831       0   22833   22834   22835   22834   22835   22835       0
   22837   22838   22839   22838   22839   22839       0   22841   22842   22843
   22842   22843   22843       0   22845   22846   22847   22846   22847   22847
       0   22849   22850   22851   22850   22851   22851       0   22853   22854
   22855   22854   22855   22855       0   22857   22858   22859   22858   22859
   22859       0   22861   22862   22863   22862   22863   22863       0   22865
   22866   22867   22866   22867   22867       0   22869   22870   22871   22870
   22871   22871       0   22873   22874   22875   22874   22875   22875       0
   22877   22878   22879   22878   22879   22879       0   22881   22882   22883
   22882   22883   22883       0   22885   22886   22887   22886   22887   22887
       0   22889   22890   22891   22890   22891   22891       0   22893   22894
   22895   22894   22895   22895       0   22897   22898   22899   22898   22899
   22899       0   22901   22902   22903   22902   22903   22903       0   22905
   22906   22907   22906   22907   22907       0   22909   22910   22911   22910
   22911   22911       0   22913   22914   22915   22914   22915   22915       0
   22917   22918   22919   22918   22919   22919       0   22921   22922   22923
   22922   22923   22923       0   22925   22926   22927   22926   22927   22927
       0   22929   22930   22931   22930   22931   22931       0   22933   22934
   22935   22934   22935   22935       0   22937   22938   22939   22938   22939
   22939       0   22941   22942   22943   22942   22943   22943       0   22945
   22946   22947   22946   22947   22947       0   22949   22950   22951   22950
   22951   22951       0   22953   22954   22955   22954   22955   22955       0
   22957   22958   22959   22958   22959   22959       0   22961   22962   22963
   22962   22963   22963       0   22965   22966   22967   22966   22967   22967
       0   22969   22970   22971   22970   22971   22971       0   22973   22974
   22975   22974   22975   22975       0   22977   22978   22979   22978   22979
   22979       0   22981   22982   22983   22982   22983   22983       0   22985
   22986   22987   22986   22987   22987       0   22989   22990   22991   22990
   22991   22991       0   22993   22994   22995   22994   22995   22995       0
   22997   22998   22999   22998   22999   22999       0   23001   23002   23003
   23002   23003   23003       0   23005   23006   23007   23006   23007   23007
       0   23009   23010   23011   23010   23011   23011       0   23013   23014
   23015   23014   23015   23015       0   23017   23018   23019   23018   23019
   23019       0   23021   23022   23023   23022   23023   23023       0   23025
   23026   23027   23026   23027   23027       0   23029   23030   23031   23030
   23031   23031       0   23033   23034   23035   23034   23035   23035       0
   23037   23038   23039   23038   23039   23039       0   23041   23042   23043
   23042   23043   23043       0   23045   23046   23047   23046   23047   23047
       0   23049   23050   23051   23050   23051   23051       0   23053   23054
   23055   23054   23055   23055       0   23057   23058   23059   23058   23059
   23059       0   23061   23062   23063   23062   23063   23063       0   23065
   23066   23067   23066   23067   23067       0   23069   23070   23071   23070
   23071   23071       0   23073   23074   23075   23074   23075   23075       0
   23077   23078   23079   23078   23079   23079       0   23081   23082   23083
   23082   23083   23083       0   23085   23086   23087   23086   23087   23087
       0   23089   23090   23091   23090   23091   23091       0   23093   23094
   23095   23094   23095   23095       0   23097   23098   23099   23098   23099
   23099       0   23101   23102   23103   23102   23103   23103       0   23105
   23106   23107   23106   23107   23107       0   23109   23110   23111   23110
   23111   23111       0   23113   23114   23115   23114   23115   23115       0
   23117   23118   23119   23118   23119   23119       0   23121   23122   23123
   23122   23123   23123       0   23125   23126   23127   23126   23127   23127
       0   23129   23130   23131   23130   23131   23131       0   23133   23134
   23135   23134   23135   23135       0   23137   23138   23139   23138   23139
   23139       0   23141   23142   23143   23142   23143   23143       0   23145
   23146   23147   23146   23147   23147       0   23149   23150   23151   23150
   23151   23151       0   23153   23154   23155   23154   23155   23155       0
   23157   23158   23159   23158   23159   23159       0   23161   23162   23163
   23162   23163   23163       0   23165   23166   23167   23166   23167   23167
       0   23169   23170   23171   23170   23171   23171       0   23173   23174
   23175   23174   23175   23175       0   23177   23178   23179   23178   23179
   23179       0   23181   23182   23183   23182   23183   23183       0   23185
   23186   23187   23186   23187   23187       0   23189   23190   23191   23190
   23191   23191       0   23193   23194   23195   23194   23195   23195       0
   23197   23198   23199   23198   23199   23199       0   23201   23202   23203
   23202   23203   23203       0   23205   23206   23207   23206   23207   23207
       0   23209   23210   23211   23210   23211   23211       0   23213   23214
   23215   23214   23215   23215       0   23217   23218   23219   23218   23219
   23219       0   23221   23222   23223   23222   23223   23223       0   23225
   23226   23227   23226   23227   23227       0   23229   23230   23231   23230
   23231   23231       0   23233   23234   23235   23234   23235   23235       0
   23237   23238   23239   23238   23239   23239       0   23241   23242   23243
   23242   23243   23243       0   23245   23246   23247   23246   23247   23247
       0   23249   23250   23251   23250   23251   23251       0   23253   23254
   23255   23254   23255   23255       0   23257   23258   23259   23258   23259
   23259       0   23261   23262   23263   23262   23263   23263       0   23265
   23266   23267   23266   23267   23267       0   23269   23270   23271   23270
   23271   23271       0   23273   23274   23275   23274   23275   23275       0
   23277   23278   23279   23278   23279   23279       0   23281   23282   23283
   23282   23283   23283       0   23285   23286   23287   23286   23287   23287
       0   23289   23290   23291   23290   23291   23291       0   23293   23294
   23295   23294   23295   23295       0   23297   23298   23299   23298   23299
   23299       0   23301   23302   23303   23302   23303   23303       0   23305
   23306   23307   23306   23307   23307       0   23309   23310   23311   23310
   23311   23311       0   23313   23314   23315   23314   23315   23315       0
   23317   23318   23319   23318   23319   23319       0   23321   23322   23323
   23322   23323   23323       0   23325   23326   23327   23326   23327   23327
       0   23329   23330   23331   23330   23331   23331       0   23333   23334
   23335   23334   23335   23335       0   23337   23338   23339   23338   23339
   23339       0   23341   23342   23343   23342   23343   23343       0   23345
   23346   23347   23346   23347   23347       0   23349   23350   23351   23350
   23351   23351       0   23353   23354   23355   23354   23355   23355       0
   23357   23358   23359   23358   23359   23359       0   23361   23362   23363
   23362   23363   23363       0   23365   23366   23367   23366   23367   23367
       0   23369   23370   23371   23370   23371   23371       0   23373   23374
   23375   23374   23375   23375       0   23377   23378   23379   23378   23379
   23379       0   23381   23382   23383   23382   23383   23383       0   23385
   23386   23387   23386   23387   23387       0   23389   23390   23391   23390
   23391   23391       0   23393   23394   23395   23394   23395   23395       0
   23397   23398   23399   23398   23399   23399       0   23401   23402   23403
   23402   23403   23403       0   23405   23406   23407   23406   23407   23407
       0   23409   23410   23411   23410   23411   23411       0   23413   23414
   23415   23414   23415   23415       0   23417   23418   23419   23418   23419
   23419       0   23421   23422   23423   23422   23423   23423       0   23425
   23426   23427   23426   23427   23427       0   23429   23430   23431   23430
   23431   23431       0   23433   23434   23435   23434   23435   23435       0
   23437   23438   23439   23438   23439   23439       0   23441   23442   23443
   23442   23443   23443       0   23445   23446   23447   23446   23447   23447
       0   23449   23450   23451   23450   23451   23451       0   23453   23454
   23455   23454   23455   23455       0   23457   23458   23459   23458   23459
   23459       0   23461   23462   23463   23462   23463   23463       0   23465
   23466   23467   23466   23467   23467       0   23469   23470   23471   23470
   23471   23471       0   23473   23474   23475   23474   23475   23475       0
   23477   23478   23479   23478   23479   23479       0   23481   23482   23483
   23482   23483   23483       0   23485   23486   23487   23486   23487   23487
       0   23489   23490   23491   23490   23491   23491       0   23493   23494
   23495   23494   23495   23495       0   23497   23498   23499   23498   23499
   23499       0   23501   23502   23503   23502   23503   23503       0   23505
   23506   23507   23506   23507   23507       0   23509   23510   23511   23510
   23511   23511       0   23513   23514   23515   23514   23515   23515       0
   23517   23518   23519   23518   23519   23519       0   23521   23522   23523
   23522   23523   23523       0   23525   23526   23527   23526   23527   23527
       0   23529   23530   23531   23530   23531   23531       0   23533   23534
   23535   23534   23535   23535       0   23537   23538   23539   23538   23539
   23539       0   23541   23542   23543   23542   23543   23543       0   23545
   23546   23547   23546   23547   23547       0   23549   23550   23551   23550
   23551   23551       0   23553   23554   23555   23554   23555   23555       0
   23557   23558   23559   23558   23559   23559       0   23561   23562   23563
   23562   23563   23563       0   23565   23566   23567   23566   23567   23567
       0   23569   23570   23571   23570   23571   23571       0   23573   23574
   23575   23574   23575   23575       0   23577   23578   23579   23578   23579
   23579       0   23581   23582   23583   23582   23583   23583       0   23585
   23586   23587   23586   23587   23587       0   23589   23590   23591   23590
   23591   23591       0   23593   23594   23595   23594   23595   23595       0
   23597   23598   23599   23598   23599   23599       0   23601   23602   23603
   23602   23603   23603       0   23605   23606   23607   23606   23607   23607
       0   23609   23610   23611   23610   23611   23611       0   23613   23614
   23615   23614   23615   23615       0   23617   23618   23619   23618   23619
   23619       0   23621   23622   23623   23622   23623   23623       0   23625
   23626   23627   23626   23627   23627       0   23629   23630   23631   23630
   23631   23631       0   23633   23634   23635   23634   23635   23635       0
   23637   23638   23639   23638   23639   23639       0   23641   23642   23643
   23642   23643   23643       0   23645   23646   23647   23646   23647   23647
       0   23649   23650   23651   23650   23651   23651       0   23653   23654
   23655   23654   23655   23655       0   23657   23658   23659   23658   23659
   23659       0   23661   23662   23663   23662   23663   23663       0   23665
   23666   23667   23666   23667   23667       0   23669   23670   23671   23670
   23671   23671       0   23673   23674   23675   23674   23675   23675       0
   23677   23678   23679   23678   23679   23679       0   23681   23682   23683
   23682   23683   23683       0   23685   23686   23687   23686   23687   23687
       0   23689   23690   23691   23690   23691   23691       0   23693   23694
   23695   23694   23695   23695       0   23697   23698   23699   23698   23699
   23699       0   23701   23702   23703   23702   23703   23703       0   23705
   23706   23707   23706   23707   23707       0   23709   23710   23711   23710
   23711   23711       0   23713   23714   23715   23714   23715   23715       0
   23717   23718   23719   23718   23719   23719       0   23721   23722   23723
   23722   23723   23723       0   23725   23726   23727   23726   23727   23727
       0   23729   23730   23731   23730   23731   23731       0   23733   23734
   23735   23734   23735   23735       0   23737   23738   23739   23738   23739
   23739       0   23741   23742   23743   23742   23743   23743       0   23745
   23746   23747   23746   23747   23747       0   23749   23750   23751   23750
   23751   23751       0   23753   23754   23755   23754   23755   23755       0
   23757   23758   23759   23758   23759   23759       0   23761   23762   23763
   23762   23763   23763       0   23765   23766   23767   23766   23767   23767
       0   23769   23770   23771   23770   23771   23771       0   23773   23774
   23775   23774   23775   23775       0   23777   23778   23779   23778   23779
   23779       0   23781   23782   23783   23782   23783   23783       0   23785
   23786   23787   23786   23787   23787       0   23789   23790   23791   23790
   23791   23791       0   23793   23794   23795   23794   23795   23795       0
   23797   23798   23799   23798   23799   23799       0   23801   23802   23803
   23802   23803   23803       0   23805   23806   23807   23806   23807   23807
       0   23809   23810   23811   23810   23811   23811       0   23813   23814
   23815   23814   23815   23815       0   23817   23818   23819   23818   23819
   23819       0   23821   23822   23823   23822   23823   23823       0   23825
   23826   23827   23826   23827   23827       0   23829   23830   23831   23830
   23831   23831       0   23833   23834   23835   23834   23835   23835       0
   23837   23838   23839   23838   23839   23839       0   23841   23842   23843
   23842   23843   23843       0   23845   23846   23847   23846   23847   23847
       0   23849   23850   23851   23850   23851   23851       0   23853   23854
   23855   23854   23855   23855       0   23857   23858   23859   23858   23859
   23859       0   23861   23862   23863   23862   23863   23863       0   23865
   23866   23867   23866   23867   23867       0   23869   23870   23871   23870
   23871   23871       0   23873   23874   23875   23874   23875   23875       0
   23877   23878   23879   23878   23879   23879       0   23881   23882   23883
   23882   23883   23883       0   23885   23886   23887   23886   23887   23887
       0   23889   23890   23891   23890   23891   23891       0   23893   23894
   23895   23894   23895   23895       0   23897   23898   23899   23898   23899
   23899       0   23901   23902   23903   23902   23903   23903       0   23905
   23906   23907   23906   23907   23907       0   23909   23910   23911   23910
   23911   23911       0   23913   23914   23915   23914   23915   23915       0
   23917   23918   23919   23918   23919   23919       0   23921   23922   23923
   23922   23923   23923       0   23925   23926   23927   23926   23927   23927
       0   23929   23930   23931   23930   23931   23931       0   23933   23934
   23935   23934   23935   23935       0   23937   23938   23939   23938   23939
   23939       0   23941   23942   23943   23942   23943   23943       0   23945
   23946   23947   23946   23947   23947       0   23949   23950   23951   23950
   23951   23951       0   23953   23954   23955   23954   23955   23955       0
   23957   23958   23959   23958   23959   23959       0   23961   23962   23963
   23962   23963   23963       0   23965   23966   23967   23966   23967   23967
       0   23969   23970   23971   23970   23971   23971       0   23973   23974
   23975   23974   23975   23975       0   23977   23978   23979   23978   23979
   23979       0   23981   23982   23983   23982   23983   23983       0   23985
   23986   23987   23986   23987   23987       0   23989   23990   23991   23990
   23991   23991       0   23993   23994   23995   23994   23995   23995       0
   23997   23998   23999   23998   23999   23999       0   24001   24002   24003
   24002   24003   24003       0   24005   24006   24007   24006   24007   24007
       0   24009   24010   24011   24010   24011   24011       0   24013   24014
   24015   24014   24015   24015       0   24017   24018   24019   24018   24019
   24019       0   24021   24022   24023   24022   24023   24023       0   24025
   24026   24027   24026   24027   24027       0   24029   24030   24031   24030
   24031   24031       0   24033   24034   24035   24034   24035   24035       0
   24037   24038   24039   24038   24039   24039       0   24041   24042   24043
   24042   24043   24043       0   24045   24046   24047   24046   24047   24047
       0   24049   24050   24051   24050   24051   24051       0   24053   24054
   24055   24054   24055   24055       0   24057   24058   24059   24058   24059
   24059       0   24061   24062   24063   24062   24063   24063       0   24065
   24066   24067   24066   24067   24067       0   24069   24070   24071   24070
   24071   24071       0   24073   24074   24075   24074   24075   24075       0
   24077   24078   24079   24078   24079   24079       0   24081   24082   24083
   24082   24083   24083       0   24085   24086   24087   24086   24087   24087
       0   24089   24090   24091   24090   24091   24091       0   24093   24094
   24095   24094   24095   24095       0   24097   24098   24099   24098   24099
   24099       0   24101   24102   24103   24102   24103   24103       0   24105
   24106   24107   24106   24107   24107       0   24109   24110   24111   24110
   24111   24111       0   24113   24114   24115   24114   24115   24115       0
   24117   24118   24119   24118   24119   24119       0   24121   24122   24123
   24122   24123   24123       0   24125   24126   24127   24126   24127   24127
       0   24129   24130   24131   24130   24131   24131       0   24133   24134
   24135   24134   24135   24135       0   24137   24138   24139   24138   24139
   24139       0   24141   24142   24143   24142   24143   24143       0   24145
   24146   24147   24146   24147   24147       0   24149   24150   24151   24150
   24151   24151       0   24153   24154   24155   24154   24155   24155       0
   24157   24158   24159   24158   24159   24159       0   24161   24162   24163
   24162   24163   24163       0   24165   24166   24167   24166   24167   24167
       0   24169   24170   24171   24170   24171   24171       0   24173   24174
   24175   24174   24175   24175       0   24177   24178   24179   24178   24179
   24179       0   24181   24182   24183   24182   24183   24183       0   24185
   24186   24187   24186   24187   24187       0   24189   24190   24191   24190
   24191   24191       0   24193   24194   24195   24194   24195   24195       0
   24197   24198   24199   24198   24199   24199       0   24201   24202   24203
   24202   24203   24203       0   24205   24206   24207   24206   24207   24207
       0   24209   24210   24211   24210   24211   24211       0   24213   24214
   24215   24214   24215   24215       0   24217   24218   24219   24218   24219
   24219       0   24221   24222   24223   24222   24223   24223       0   24225
   24226   24227   24226   24227   24227       0   24229   24230   24231   24230
   24231   24231       0   24233   24234   24235   24234   24235   24235       0
   24237   24238   24239   24238   24239   24239       0   24241   24242   24243
   24242   24243   24243       0   24245   24246   24247   24246   24247   24247
       0   24249   24250   24251   24250   24251   24251       0   24253   24254
   24255   24254   24255   24255       0   24257   24258   24259   24258   24259
   24259       0   24261   24262   24263   24262   24263   24263       0   24265
   24266   24267   24266   24267   24267       0   24269   24270   24271   24270
   24271   24271       0   24273   24274   24275   24274   24275   24275       0
   24277   24278   24279   24278   24279   24279       0   24281   24282   24283
   24282   24283   24283       0   24285   24286   24287   24286   24287   24287
       0   24289   24290   24291   24290   24291   24291       0   24293   24294
   24295   24294   24295   24295       0   24297   24298   24299   24298   24299
   24299       0   24301   24302   24303   24302   24303   24303       0   24305
   24306   24307   24306   24307   24307       0   24309   24310   24311   24310
   24311   24311       0   24313   24314   24315   24314   24315   24315       0
   24317   24318   24319   24318   24319   24319       0   24321   24322   24323
   24322   24323   24323       0   24325   24326   24327   24326   24327   24327
       0   24329   24330   24331   24330   24331   24331       0   24333   24334
   24335   24334   24335   24335       0   24337   24338   24339   24338   24339
   24339       0   24341   24342   24343   24342   24343   24343       0   24345
   24346   24347   24346   24347   24347       0   24349   24350   24351   24350
   24351   24351       0   24353   24354   24355   24354   24355   24355       0
   24357   24358   24359   24358   24359   24359       0   24361   24362   24363
   24362   24363   24363       0   24365   24366   24367   24366   24367   24367
       0   24369   24370   24371   24370   24371   24371       0   24373   24374
   24375   24374   24375   24375       0   24377   24378   24379   24378   24379
   24379       0   24381   24382   24383   24382   24383   24383       0   24385
   24386   24387   24386   24387   24387       0   24389   24390   24391   24390
   24391   24391       0   24393   24394   24395   24394   24395   24395       0
   24397   24398   24399   24398   24399   24399       0   24401   24402   24403
   24402   24403   24403       0   24405   24406   24407   24406   24407   24407
       0   24409   24410   24411   24410   24411   24411       0   24413   24414
   24415   24414   24415   24415       0   24417   24418   24419   24418   24419
   24419       0   24421   24422   24423   24422   24423   24423       0   24425
   24426   24427   24426   24427   24427       0   24429   24430   24431   24430
   24431   24431       0   24433   24434   24435   24434   24435   24435       0
   24437   24438   24439   24438   24439   24439       0   24441   24442   24443
   24442   24443   24443       0   24445   24446   24447   24446   24447   24447
       0   24449   24450   24451   24450   24451   24451       0   24453   24454
   24455   24454   24455   24455       0   24457   24458   24459   24458   24459
   24459       0   24461   24462   24463   24462   24463   24463       0   24465
   24466   24467   24466   24467   24467       0   24469   24470   24471   24470
   24471   24471       0   24473   24474   24475   24474   24475   24475       0
   24477   24478   24479   24478   24479   24479       0   24481   24482   24483
   24482   24483   24483       0   24485   24486   24487   24486   24487   24487
       0   24489   24490   24491   24490   24491   24491       0   24493   24494
   24495   24494   24495   24495       0   24497   24498   24499   24498   24499
   24499       0   24501   24502   24503   24502   24503   24503       0   24505
   24506   24507   24506   24507   24507       0   24509   24510   24511   24510
   24511   24511       0   24513   24514   24515   24514   24515   24515       0
   24517   24518   24519   24518   24519   24519       0   24521   24522   24523
   24522   24523   24523       0   24525   24526   24527   24526   24527   24527
       0   24529   24530   24531   24530   24531   24531       0   24533   24534
   24535   24534   24535   24535       0   24537   24538   24539   24538   24539
   24539       0   24541   24542   24543   24542   24543   24543       0   24545
   24546   24547   24546   24547   24547       0   24549   24550   24551   24550
   24551   24551       0   24553   24554   24555   24554   24555   24555       0
   24557   24558   24559   24558   24559   24559       0   24561   24562   24563
   24562   24563   24563       0   24565   24566   24567   24566   24567   24567
       0   24569   24570   24571   24570   24571   24571       0   24573   24574
   24575   24574   24575   24575       0   24577   24578   24579   24578   24579
   24579       0   24581   24582   24583   24582   24583   24583       0   24585
   24586   24587   24586   24587   24587       0   24589   24590   24591   24590
   24591   24591       0   24593   24594   24595   24594   24595   24595       0
   24597   24598   24599   24598   24599   24599       0   24601   24602   24603
   24602   24603   24603       0   24605   24606   24607   24606   24607   24607
       0   24609   24610   24611   24610   24611   24611       0   24613   24614
   24615   24614   24615   24615       0   24617   24618   24619   24618   24619
   24619       0   24621   24622   24623   24622   24623   24623       0   24625
   24626   24627   24626   24627   24627       0   24629   24630   24631   24630
   24631   24631       0   24633   24634   24635   24634   24635   24635       0
   24637   24638   24639   24638   24639   24639       0   24641   24642   24643
   24642   24643   24643       0   24645   24646   24647   24646   24647   24647
       0   24649   24650   24651   24650   24651   24651       0   24653   24654
   24655   24654   24655   24655       0   24657   24658   24659   24658   24659
   24659       0   24661   24662   24663   24662   24663   24663       0   24665
   24666   24667   24666   24667   24667       0   24669   24670   24671   24670
   24671   24671       0   24673   24674   24675   24674   24675   24675       0
   24677   24678   24679   24678   24679   24679       0   24681   24682   24683
   24682   24683   24683       0   24685   24686   24687   24686   24687   24687
       0   24689   24690   24691   24690   24691   24691       0   24693   24694
   24695   24694   24695   24695       0   24697   24698   24699   24698   24699
   24699       0   24701   24702   24703   24702   24703   24703       0   24705
   24706   24707   24706   24707   24707       0   24709   24710   24711   24710
   24711   24711       0   24713   24714   24715   24714   24715   24715       0
   24717   24718   24719   24718   24719   24719       0   24721   24722   24723
   24722   24723   24723       0   24725   24726   24727   24726   24727   24727
       0   24729   24730   24731   24730   24731   24731       0   24733   24734
   24735   24734   24735   24735       0   24737   24738   24739   24738   24739
   24739       0   24741   24742   24743   24742   24743   24743       0   24745
   24746   24747   24746   24747   24747       0   24749   24750   24751   24750
   24751   24751       0   24753   24754   24755   24754   24755   24755       0
   24757   24758   24759   24758   24759   24759       0   24761   24762   24763
   24762   24763   24763       0   24765   24766   24767   24766   24767   24767
       0   24769   24770   24771   24770   24771   24771       0   24773   24774
   24775   24774   24775   24775       0   24777   24778   24779   24778   24779
   24779       0   24781   24782   24783   24782   24783   24783       0   24785
   24786   24787   24786   24787   24787       0   24789   24790   24791   24790
   24791   24791       0   24793   24794   24795   24794   24795   24795       0
   24797   24798   24799   24798   24799   24799       0   24801   24802   24803
   24802   24803   24803       0   24805   24806   24807   24806   24807   24807
       0   24809   24810   24811   24810   24811   24811       0   24813   24814
   24815   24814   24815   24815       0   24817   24818   24819   24818   24819
   24819       0   24821   24822   24823   24822   24823   24823       0   24825
   24826   24827   24826   24827   24827       0   24829   24830   24831   24830
   24831   24831       0   24833   24834   24835   24834   24835   24835       0
   24837   24838   24839   24838   24839   24839       0   24841   24842   24843
   24842   24843   24843       0   24845   24846   24847   24846   24847   24847
       0   24849   24850   24851   24850   24851   24851       0   24853   24854
   24855   24854   24855   24855       0   24857   24858   24859   24858   24859
   24859       0   24861   24862   24863   24862   24863   24863       0   24865
   24866   24867   24866   24867   24867       0   24869   24870   24871   24870
   24871   24871       0   24873   24874   24875   24874   24875   24875       0
   24877   24878   24879   24878   24879   24879       0   24881   24882   24883
   24882   24883   24883       0   24885   24886   24887   24886   24887   24887
       0   24889   24890   24891   24890   24891   24891       0   24893   24894
   24895   24894   24895   24895       0   24897   24898   24899   24898   24899
   24899       0   24901   24902   24903   24902   24903   24903       0   24905
   24906   24907   24906   24907   24907       0   24909   24910   24911   24910
   24911   24911       0   24913   24914   24915   24914   24915   24915       0
   24917   24918   24919   24918   24919   24919       0   24921   24922   24923
   24922   24923   24923       0   24925   24926   24927   24926   24927   24927
       0   24929   24930   24931   24930   24931   24931       0   24933   24934
   24935   24934   24935   24935       0   24937   24938   24939   24938   24939
   24939       0   24941   24942   24943   24942   24943   24943       0   24945
   24946   24947   24946   24947   24947       0   24949   24950   24951   24950
   24951   24951       0   24953   24954   24955   24954   24955   24955       0
   24957   24958   24959   24958   24959   24959       0   24961   24962   24963
   24962   24963   24963       0   24965   24966   24967   24966   24967   24967
       0   24969   24970   24971   24970   24971   24971       0   24973   24974
   24975   24974   24975   24975       0   24977   24978   24979   24978   24979
   24979       0   24981   24982   24983   24982   24983   24983       0   24985
   24986   24987   24986   24987   24987       0   24989   24990   24991   24990
   24991   24991       0   24993   24994   24995   24994   24995   24995       0
   24997   24998   24999   24998   24999   24999       0   25001   25002   25003
   25002   25003   25003       0   25005   25006   25007   25006   25007   25007
       0   25009   25010   25011   25010   25011   25011       0   25013   25014
   25015   25014   25015   25015       0   25017   25018   25019   25018   25019
   25019       0   25021   25022   25023   25022   25023   25023       0   25025
   25026   25027   25026   25027   25027       0   25029   25030   25031   25030
   25031   25031       0   25033   25034   25035   25034   25035   25035       0
   25037   25038   25039   25038   25039   25039       0   25041   25042   25043
   25042   25043   25043       0   25045   25046   25047   25046   25047   25047
       0   25049   25050   25051   25050   25051   25051       0   25053   25054
   25055   25054   25055   25055       0   25057   25058   25059   25058   25059
   25059       0   25061   25062   25063   25062   25063   25063       0   25065
   25066   25067   25066   25067   25067       0   25069   25070   25071   25070
   25071   25071       0   25073   25074   25075   25074   25075   25075       0
   25077   25078   25079   25078   25079   25079       0   25081   25082   25083
   25082   25083   25083       0   25085   25086   25087   25086   25087   25087
       0   25089   25090   25091   25090   25091   25091       0   25093   25094
   25095   25094   25095   25095       0   25097   25098   25099   25098   25099
   25099       0   25101   25102   25103   25102   25103   25103       0   25105
   25106   25107   25106   25107   25107       0   25109   25110   25111   25110
   25111   25111       0   25113   25114   25115   25114   25115   25115       0
   25117   25118   25119   25118   25119   25119       0   25121   25122   25123
   25122   25123   25123       0   25125   25126   25127   25126   25127   25127
       0   25129   25130   25131   25130   25131   25131       0   25133   25134
   25135   25134   25135   25135       0   25137   25138   25139   25138   25139
   25139       0   25141   25142   25143   25142   25143   25143       0   25145
   25146   25147   25146   25147   25147       0   25149   25150   25151   25150
   25151   25151       0   25153   25154   25155   25154   25155   25155       0
   25157   25158   25159   25158   25159   25159       0   25161   25162   25163
   25162   25163   25163       0   25165   25166   25167   25166   25167   25167
       0   25169   25170   25171   25170   25171   25171       0   25173   25174
   25175   25174   25175   25175       0   25177   25178   25179   25178   25179
   25179       0   25181   25182   25183   25182   25183   25183       0   25185
   25186   25187   25186   25187   25187       0   25189   25190   25191   25190
   25191   25191       0   25193   25194   25195   25194   25195   25195       0
   25197   25198   25199   25198   25199   25199       0   25201   25202   25203
   25202   25203   25203       0   25205   25206   25207   25206   25207   25207
       0   25209   25210   25211   25210   25211   25211       0   25213   25214
   25215   25214   25215   25215       0   25217   25218   25219   25218   25219
   25219       0   25221   25222   25223   25222   25223   25223       0   25225
   25226   25227   25226   25227   25227       0   25229   25230   25231   25230
   25231   25231       0   25233   25234   25235   25234   25235   25235       0
   25237   25238   25239   25238   25239   25239       0   25241   25242   25243
   25242   25243   25243       0   25245   25246   25247   25246   25247   25247
       0   25249   25250   25251   25250   25251   25251       0   25253   25254
   25255   25254   25255   25255       0   25257   25258   25259   25258   25259
   25259       0   25261   25262   25263   25262   25263   25263       0   25265
   25266   25267   25266   25267   25267       0   25269   25270   25271   25270
   25271   25271       0   25273   25274   25275   25274   25275   25275       0
   25277   25278   25279   25278   25279   25279       0   25281   25282   25283
   25282   25283   25283       0   25285   25286   25287   25286   25287   25287
       0   25289   25290   25291   25290   25291   25291       0   25293   25294
   25295   25294   25295   25295       0   25297   25298   25299   25298   25299
   25299       0   25301   25302   25303   25302   25303   25303       0   25305
   25306   25307   25306   25307   25307       0   25309   25310   25311   25310
   25311   25311       0   25313   25314   25315   25314   25315   25315       0
   25317   25318   25319   25318   25319   25319       0   25321   25322   25323
   25322   25323   25323       0   25325   25326   25327   25326   25327   25327
       0   25329   25330   25331   25330   25331   25331       0   25333   25334
   25335   25334   25335   25335       0   25337   25338   25339   25338   25339
   25339       0   25341   25342   25343   25342   25343   25343       0   25345
   25346   25347   25346   25347   25347       0   25349   25350   25351   25350
   25351   25351       0   25353   25354   25355   25354   25355   25355       0
   25357   25358   25359   25358   25359   25359       0   25361   25362   25363
   25362   25363   25363       0   25365   25366   25367   25366   25367   25367
       0   25369   25370   25371   25370   25371   25371       0   25373   25374
   25375   25374   25375   25375       0   25377   25378   25379   25378   25379
   25379       0   25381   25382   25383   25382   25383   25383       0   25385
   25386   25387   25386   25387   25387       0   25389   25390   25391   25390
   25391   25391       0   25393   25394   25395   25394   25395   25395       0
   25397   25398   25399   25398   25399   25399       0   25401   25402   25403
   25402   25403   25403       0   25405   25406   25407   25406   25407   25407
       0   25409   25410   25411   25410   25411   25411       0   25413   25414
   25415   25414   25415   25415       0   25417   25418   25419   25418   25419
   25419       0   25421   25422   25423   25422   25423   25423       0   25425
   25426   25427   25426   25427   25427       0   25429   25430   25431   25430
   25431   25431       0   25433   25434   25435   25434   25435   25435       0
   25437   25438   25439   25438   25439   25439       0   25441   25442   25443
   25442   25443   25443       0   25445   25446   25447   25446   25447   25447
       0   25449   25450   25451   25450   25451   25451       0   25453   25454
   25455   25454   25455   25455       0   25457   25458   25459   25458   25459
   25459       0   25461   25462   25463   25462   25463   25463       0   25465
   25466   25467   25466   25467   25467       0   25469   25470   25471   25470
   25471   25471       0   25473   25474   25475   25474   25475   25475       0
   25477   25478   25479   25478   25479   25479       0   25481   25482   25483
   25482   25483   25483       0   25485   25486   25487   25486   25487   25487
       0   25489   25490   25491   25490   25491   25491       0   25493   25494
   25495   25494   25495   25495       0   25497   25498   25499   25498   25499
   25499       0   25501   25502   25503   25502   25503   25503       0   25505
   25506   25507   25506   25507   25507       0   25509   25510   25511   25510
   25511   25511       0   25513   25514   25515   25514   25515   25515       0
   25517   25518   25519   25518   25519   25519       0   25521   25522   25523
   25522   25523   25523       0   25525   25526   25527   25526   25527   25527
       0   25529   25530   25531   25530   25531   25531       0   25533   25534
   25535   25534   25535   25535       0   25537   25538   25539   25538   25539
   25539       0   25541   25542   25543   25542   25543   25543       0   25545
   25546   25547   25546   25547   25547       0   25549   25550   25551   25550
   25551   25551       0   25553   25554   25555   25554   25555   25555       0
   25557   25558   25559   25558   25559   25559       0   25561   25562   25563
   25562   25563   25563       0   25565   25566   25567   25566   25567   25567
       0   25569   25570   25571   25570   25571   25571       0   25573   25574
   25575   25574   25575   25575       0   25577   25578   25579   25578   25579
   25579       0   25581   25582   25583   25582   25583   25583       0   25585
   25586   25587   25586   25587   25587       0   25589   25590   25591   25590
   25591   25591       0   25593   25594   25595   25594   25595   25595       0
   25597   25598   25599   25598   25599   25599       0   25601   25602   25603
   25602   25603   25603       0   25605   25606   25607   25606   25607   25607
       0   25609   25610   25611   25610   25611   25611       0   25613   25614
   25615   25614   25615   25615       0   25617   25618   25619   25618   25619
   25619       0   25621   25622   25623   25622   25623   25623       0   25625
   25626   25627   25626   25627   25627       0   25629   25630   25631   25630
   25631   25631       0   25633   25634   25635   25634   25635   25635       0
   25637   25638   25639   25638   25639   25639       0   25641   25642   25643
   25642   25643   25643       0   25645   25646   25647   25646   25647   25647
       0   25649   25650   25651   25650   25651   25651       0   25653   25654
   25655   25654   25655   25655       0   25657   25658   25659   25658   25659
   25659       0   25661   25662   25663   25662   25663   25663       0   25665
   25666   25667   25666   25667   25667       0   25669   25670   25671   25670
   25671   25671       0   25673   25674   25675   25674   25675   25675       0
   25677   25678   25679   25678   25679   25679       0   25681   25682   25683
   25682   25683   25683       0   25685   25686   25687   25686   25687   25687
       0   25689   25690   25691   25690   25691   25691       0   25693   25694
   25695   25694   25695   25695       0   25697   25698   25699   25698   25699
   25699       0   25701   25702   25703   25702   25703   25703       0   25705
   25706   25707   25706   25707   25707       0   25709   25710   25711   25710
   25711   25711       0   25713   25714   25715   25714   25715   25715       0
   25717   25718   25719   25718   25719   25719       0   25721   25722   25723
   25722   25723   25723       0   25725   25726   25727   25726   25727   25727
       0   25729   25730   25731   25730   25731   25731       0   25733   25734
   25735   25734   25735   25735       0   25737   25738   25739   25738   25739
   25739       0   25741   25742   25743   25742   25743   25743       0   25745
   25746   25747   25746   25747   25747       0   25749   25750   25751   25750
   25751   25751       0   25753   25754   25755   25754   25755   25755       0
   25757   25758   25759   25758   25759   25759       0   25761   25762   25763
   25762   25763   25763       0   25765   25766   25767   25766   25767   25767
       0   25769   25770   25771   25770   25771   25771       0   25773   25774
   25775   25774   25775   25775       0   25777   25778   25779   25778   25779
   25779       0   25781   25782   25783   25782   25783   25783       0   25785
   25786   25787   25786   25787   25787       0   25789   25790   25791   25790
   25791   25791       0   25793   25794   25795   25794   25795   25795       0
   25797   25798   25799   25798   25799   25799       0   25801   25802   25803
   25802   25803   25803       0   25805   25806   25807   25806   25807   25807
       0   25809   25810   25811   25810   25811   25811       0   25813   25814
   25815   25814   25815   25815       0   25817   25818   25819   25818   25819
   25819       0   25821   25822   25823   25822   25823   25823       0   25825
   25826   25827   25826   25827   25827       0   25829   25830   25831   25830
   25831   25831       0   25833   25834   25835   25834   25835   25835       0
   25837   25838   25839   25838   25839   25839       0   25841   25842   25843
   25842   25843   25843       0   25845   25846   25847   25846   25847   25847
       0   25849   25850   25851   25850   25851   25851       0   25853   25854
   25855   25854   25855   25855       0   25857   25858   25859   25858   25859
   25859       0   25861   25862   25863   25862   25863   25863       0   25865
   25866   25867   25866   25867   25867       0   25869   25870   25871   25870
   25871   25871       0   25873   25874   25875   25874   25875   25875       0
   25877   25878   25879   25878   25879   25879       0   25881   25882   25883
   25882   25883   25883       0   25885   25886   25887   25886   25887   25887
       0   25889   25890   25891   25890   25891   25891       0   25893   25894
   25895   25894   25895   25895       0   25897   25898   25899   25898   25899
   25899       0   25901   25902   25903   25902   25903   25903       0   25905
   25906   25907   25906   25907   25907       0   25909   25910   25911   25910
   25911   25911       0   25913   25914   25915   25914   25915   25915       0
   25917   25918   25919   25918   25919   25919       0   25921   25922   25923
   25922   25923   25923       0   25925   25926   25927   25926   25927   25927
       0   25929   25930   25931   25930   25931   25931       0   25933   25934
   25935   25934   25935   25935       0   25937   25938   25939   25938   25939
   25939       0   25941   25942   25943   25942   25943   25943       0   25945
   25946   25947   25946   25947   25947       0   25949   25950   25951   25950
   25951   25951       0   25953   25954   25955   25954   25955   25955       0
   25957   25958   25959   25958   25959   25959       0   25961   25962   25963
   25962   25963   25963       0   25965   25966   25967   25966   25967   25967
       0   25969   25970   25971   25970   25971   25971       0   25973   25974
   25975   25974   25975   25975       0   25977   25978   25979   25978   25979
   25979       0   25981   25982   25983   25982   25983   25983       0   25985
   25986   25987   25986   25987   25987       0   25989   25990   25991   25990
   25991   25991       0   25993   25994   25995   25994   25995   25995       0
   25997   25998   25999   25998   25999   25999       0   26001   26002   26003
   26002   26003   26003       0   26005   26006   26007   26006   26007   26007
       0   26009   26010   26011   26010   26011   26011       0   26013   26014
   26015   26014   26015   26015       0   26017   26018   26019   26018   26019
   26019       0   26021   26022   26023   26022   26023   26023       0   26025
   26026   26027   26026   26027   26027       0   26029   26030   26031   26030
   26031   26031       0   26033   26034   26035   26034   26035   26035       0
   26037   26038   26039   26038   26039   26039       0   26041   26042   26043
   26042   26043   26043       0   26045   26046   26047   26046   26047   26047
       0   26049   26050   26051   26050   26051   26051       0   26053   26054
   26055   26054   26055   26055       0   26057   26058   26059   26058   26059
   26059       0   26061   26062   26063   26062   26063   26063       0   26065
   26066   26067   26066   26067   26067       0   26069   26070   26071   26070
   26071   26071       0   26073   26074   26075   26074   26075   26075       0
   26077   26078   26079   26078   26079   26079       0   26081   26082   26083
   26082   26083   26083       0   26085   26086   26087   26086   26087   26087
       0   26089   26090   26091   26090   26091   26091       0   26093   26094
   26095   26094   26095   26095       0   26097   26098   26099   26098   26099
   26099       0   26101   26102   26103   26102   26103   26103       0   26105
   26106   26107   26106   26107   26107       0   26109   26110   26111   26110
   26111   26111       0   26113   26114   26115   26114   26115   26115       0
   26117   26118   26119   26118   26119   26119       0   26121   26122   26123
   26122   26123   26123       0   26125   26126   26127   26126   26127   26127
       0   26129   26130   26131   26130   26131   26131       0   26133   26134
   26135   26134   26135   26135       0   26137   26138   26139   26138   26139
   26139       0   26141   26142   26143   26142   26143   26143       0   26145
   26146   26147   26146   26147   26147       0   26149   26150   26151   26150
   26151   26151       0   26153   26154   26155   26154   26155   26155       0
   26157   26158   26159   26158   26159   26159       0   26161   26162   26163
   26162   26163   26163       0   26165   26166   26167   26166   26167   26167
       0   26169   26170   26171   26170   26171   26171       0   26173   26174
   26175   26174   26175   26175       0   26177   26178   26179   26178   26179
   26179       0   26181   26182   26183   26182   26183   26183       0   26185
   26186   26187   26186   26187   26187       0   26189   26190   26191   26190
   26191   26191       0   26193   26194   26195   26194   26195   26195       0
   26197   26198   26199   26198   26199   26199       0   26201   26202   26203
   26202   26203   26203       0   26205   26206   26207   26206   26207   26207
       0   26209   26210   26211   26210   26211   26211       0   26213   26214
   26215   26214   26215   26215       0   26217   26218   26219   26218   26219
   26219       0   26221   26222   26223   26222   26223   26223       0   26225
   26226   26227   26226   26227   26227       0   26229   26230   26231   26230
   26231   26231       0   26233   26234   26235   26234   26235   26235       0
   26237   26238   26239   26238   26239   26239       0   26241   26242   26243
   26242   26243   26243       0   26245   26246   26247   26246   26247   26247
       0   26249   26250   26251   26250   26251   26251       0   26253   26254
   26255   26254   26255   26255       0   26257   26258   26259   26258   26259
   26259       0   26261   26262   26263   26262   26263   26263       0   26265
   26266   26267   26266   26267   26267       0   26269   26270   26271   26270
   26271   26271       0   26273   26274   26275   26274   26275   26275       0
   26277   26278   26279   26278   26279   26279       0   26281   26282   26283
   26282   26283   26283       0   26285   26286   26287   26286   26287   26287
       0   26289   26290   26291   26290   26291   26291       0   26293   26294
   26295   26294   26295   26295       0   26297   26298   26299   26298   26299
   26299       0   26301   26302   26303   26302   26303   26303       0   26305
   26306   26307   26306   26307   26307       0   26309   26310   26311   26310
   26311   26311       0   26313   26314   26315   26314   26315   26315       0
   26317   26318   26319   26318   26319   26319       0   26321   26322   26323
   26322   26323   26323       0   26325   26326   26327   26326   26327   26327
       0   26329   26330   26331   26330   26331   26331       0   26333   26334
   26335   26334   26335   26335       0   26337   26338   26339   26338   26339
   26339       0   26341   26342   26343   26342   26343   26343       0   26345
   26346   26347   26346   26347   26347       0   26349   26350   26351   26350
   26351   26351       0   26353   26354   26355   26354   26355   26355       0
   26357   26358   26359   26358   26359   26359       0   26361   26362   26363
   26362   26363   26363       0   26365   26366   26367   26366   26367   26367
       0   26369   26370   26371   26370   26371   26371       0   26373   26374
   26375   26374   26375   26375       0   26377   26378   26379   26378   26379
   26379       0   26381   26382   26383   26382   26383   26383       0   26385
   26386   26387   26386   26387   26387       0   26389   26390   26391   26390
   26391   26391       0   26393   26394   26395   26394   26395   26395       0
   26397   26398   26399   26398   26399   26399       0   26401   26402   26403
   26402   26403   26403       0   26405   26406   26407   26406   26407   26407
       0   26409   26410   26411   26410   26411   26411       0   26413   26414
   26415   26414   26415   26415       0   26417   26418   26419   26418   26419
   26419       0   26421   26422   26423   26422   26423   26423       0   26425
   26426   26427   26426   26427   26427       0   26429   26430   26431   26430
   26431   26431       0   26433   26434   26435   26434   26435   26435       0
   26437   26438   26439   26438   26439   26439       0   26441   26442   26443
   26442   26443   26443       0   26445   26446   26447   26446   26447   26447
       0   26449   26450   26451   26450   26451   26451       0   26453   26454
   26455   26454   26455   26455       0   26457   26458   26459   26458   26459
   26459       0   26461   26462   26463   26462   26463   26463       0   26465
   26466   26467   26466   26467   26467       0   26469   26470   26471   26470
   26471   26471       0   26473   26474   26475   26474   26475   26475       0
   26477   26478   26479   26478   26479   26479       0   26481   26482   26483
   26482   26483   26483       0   26485   26486   26487   26486   26487   26487
       0   26489   26490   26491   26490   26491   26491       0   26493   26494
   26495   26494   26495   26495       0   26497   26498   26499   26498   26499
   26499       0   26501   26502   26503   26502   26503   26503       0   26505
   26506   26507   26506   26507   26507       0   26509   26510   26511   26510
   26511   26511       0   26513   26514   26515   26514   26515   26515       0
   26517   26518   26519   26518   26519   26519       0   26521   26522   26523
   26522   26523   26523       0   26525   26526   26527   26526   26527   26527
       0   26529   26530   26531   26530   26531   26531       0   26533   26534
   26535   26534   26535   26535       0   26537   26538   26539   26538   26539
   26539       0   26541   26542   26543   26542   26543   26543       0   26545
   26546   26547   26546   26547   26547       0   26549   26550   26551   26550
   26551   26551       0   26553   26554   26555   26554   26555   26555       0
   26557   26558   26559   26558   26559   26559       0   26561   26562   26563
   26562   26563   26563       0   26565   26566   26567   26566   26567   26567
       0   26569   26570   26571   26570   26571   26571       0   26573   26574
   26575   26574   26575   26575       0   26577   26578   26579   26578   26579
   26579       0   26581   26582   26583   26582   26583   26583       0   26585
   26586   26587   26586   26587   26587       0   26589   26590   26591   26590
   26591   26591       0   26593   26594   26595   26594   26595   26595       0
   26597   26598   26599   26598   26599   26599       0   26601   26602   26603
   26602   26603   26603       0   26605   26606   26607   26606   26607   26607
       0   26609   26610   26611   26610   26611   26611       0   26613   26614
   26615   26614   26615   26615       0   26617   26618   26619   26618   26619
   26619       0   26621   26622   26623   26622   26623   26623       0   26625
   26626   26627   26626   26627   26627       0   26629   26630   26631   26630
   26631   26631       0   26633   26634   26635   26634   26635   26635       0
   26637   26638   26639   26638   26639   26639       0   26641   26642   26643
   26642   26643   26643       0   26645   26646   26647   26646   26647   26647
       0   26649   26650   26651   26650   26651   26651       0   26653   26654
   26655   26654   26655   26655       0   26657   26658   26659   26658   26659
   26659       0   26661   26662   26663   26662   26663   26663       0   26665
   26666   26667   26666   26667   26667       0   26669   26670   26671   26670
   26671   26671       0   26673   26674   26675   26674   26675   26675       0
   26677   26678   26679   26678   26679   26679       0   26681   26682   26683
   26682   26683   26683       0   26685   26686   26687   26686   26687   26687
       0   26689   26690   26691   26690   26691   26691       0   26693   26694
   26695   26694   26695   26695       0   26697   26698   26699   26698   26699
   26699       0   26701   26702   26703   26702   26703   26703       0   26705
   26706   26707   26706   26707   26707       0   26709   26710   26711   26710
   26711   26711       0   26713   26714   26715   26714   26715   26715       0
   26717   26718   26719   26718   26719   26719       0   26721   26722   26723
   26722   26723   26723       0   26725   26726   26727   26726   26727   26727
       0   26729   26730   26731   26730   26731   26731       0   26733   26734
   26735   26734   26735   26735       0   26737   26738   26739   26738   26739
   26739       0   26741   26742   26743   26742   26743   26743       0   26745
   26746   26747   26746   26747   26747       0   26749   26750   26751   26750
   26751   26751       0   26753   26754   26755   26754   26755   26755       0
   26757   26758   26759   26758   26759   26759       0   26761   26762   26763
   26762   26763   26763       0   26765   26766   26767   26766   26767   26767
       0   26769   26770   26771   26770   26771   26771       0   26773   26774
   26775   26774   26775   26775       0   26777   26778   26779   26778   26779
   26779       0   26781   26782   26783   26782   26783   26783       0   26785
   26786   26787   26786   26787   26787       0   26789   26790   26791   26790
   26791   26791       0   26793   26794   26795   26794   26795   26795       0
   26797   26798   26799   26798   26799   26799       0   26801   26802   26803
   26802   26803   26803       0   26805   26806   26807   26806   26807   26807
       0   26809   26810   26811   26810   26811   26811       0   26813   26814
   26815   26814   26815   26815       0   26817   26818   26819   26818   26819
   26819       0   26821   26822   26823   26822   26823   26823       0   26825
   26826   26827   26826   26827   26827       0   26829   26830   26831   26830
   26831   26831       0   26833   26834   26835   26834   26835   26835       0
   26837   26838   26839   26838   26839   26839       0   26841   26842   26843
   26842   26843   26843       0   26845   26846   26847   26846   26847   26847
       0   26849   26850   26851   26850   26851   26851       0   26853   26854
   26855   26854   26855   26855       0   26857   26858   26859   26858   26859
   26859       0   26861   26862   26863   26862   26863   26863       0   26865
   26866   26867   26866   26867   26867       0   26869   26870   26871   26870
   26871   26871       0   26873   26874   26875   26874   26875   26875       0
   26877   26878   26879   26878   26879   26879       0   26881   26882   26883
   26882   26883   26883       0   26885   26886   26887   26886   26887   26887
       0   26889   26890   26891   26890   26891   26891       0   26893   26894
   26895   26894   26895   26895       0   26897   26898   26899   26898   26899
   26899       0   26901   26902   26903   26902   26903   26903       0   26905
   26906   26907   26906   26907   26907       0   26909   26910   26911   26910
   26911   26911       0   26913   26914   26915   26914   26915   26915       0
   26917   26918   26919   26918   26919   26919       0   26921   26922   26923
   26922   26923   26923       0   26925   26926   26927   26926   26927   26927
       0   26929   26930   26931   26930   26931   26931       0   26933   26934
   26935   26934   26935   26935       0   26937   26938   26939   26938   26939
   26939       0   26941   26942   26943   26942   26943   26943       0   26945
   26946   26947   26946   26947   26947       0   26949   26950   26951   26950
   26951   26951       0   26953   26954   26955   26954   26955   26955       0
   26957   26958   26959   26958   26959   26959       0   26961   26962   26963
   26962   26963   26963       0   26965   26966   26967   26966   26967   26967
       0   26969   26970   26971   26970   26971   26971       0   26973   26974
   26975   26974   26975   26975       0   26977   26978   26979   26978   26979
   26979       0   26981   26982   26983   26982   26983   26983       0   26985
   26986   26987   26986   26987   26987       0   26989   26990   26991   26990
   26991   26991       0   26993   26994   26995   26994   26995   26995       0
   26997   26998   26999   26998   26999   26999       0   27001   27002   27003
   27002   27003   27003       0   27005   27006   27007   27006   27007   27007
       0   27009   27010   27011   27010   27011   27011       0   27013   27014
   27015   27014   27015   27015       0   27017   27018   27019   27018   27019
   27019       0   27021   27022   27023   27022   27023   27023       0   27025
   27026   27027   27026   27027   27027       0   27029   27030   27031   27030
   27031   27031       0   27033   27034   27035   27034   27035   27035       0
   27037   27038   27039   27038   27039   27039       0   27041   27042   27043
   27042   27043   27043       0   27045   27046   27047   27046   27047   27047
       0   27049   27050   27051   27050   27051   27051       0   27053   27054
   27055   27054   27055   27055       0   27057   27058   27059   27058   27059
   27059       0   27061   27062   27063   27062   27063   27063       0   27065
   27066   27067   27066   27067   27067       0   27069   27070   27071   27070
   27071   27071       0   27073   27074   27075   27074   27075   27075       0
   27077   27078   27079   27078   27079   27079       0   27081   27082   27083
   27082   27083   27083       0   27085   27086   27087   27086   27087   27087
       0   27089   27090   27091   27090   27091   27091       0   27093   27094
   27095   27094   27095   27095       0   27097   27098   27099   27098   27099
   27099       0   27101   27102   27103   27102   27103   27103       0   27105
   27106   27107   27106   27107   27107       0   27109   27110   27111   27110
   27111   27111       0   27113   27114   27115   27114   27115   27115       0
   27117   27118   27119   27118   27119   27119       0   27121   27122   27123
   27122   27123   27123       0   27125   27126   27127   27126   27127   27127
       0   27129   27130   27131   27130   27131   27131       0   27133   27134
   27135   27134   27135   27135       0   27137   27138   27139   27138   27139
   27139       0   27141   27142   27143   27142   27143   27143       0   27145
   27146   27147   27146   27147   27147       0   27149   27150   27151   27150
   27151   27151       0   27153   27154   27155   27154   27155   27155       0
   27157   27158   27159   27158   27159   27159       0   27161   27162   27163
   27162   27163   27163       0   27165   27166   27167   27166   27167   27167
       0   27169   27170   27171   27170   27171   27171       0   27173   27174
   27175   27174   27175   27175       0   27177   27178   27179   27178   27179
   27179       0   27181   27182   27183   27182   27183   27183       0   27185
   27186   27187   27186   27187   27187       0   27189   27190   27191   27190
   27191   27191       0   27193   27194   27195   27194   27195   27195       0
   27197   27198   27199   27198   27199   27199       0   27201   27202   27203
   27202   27203   27203       0   27205   27206   27207   27206   27207   27207
       0   27209   27210   27211   27210   27211   27211       0   27213   27214
   27215   27214   27215   27215       0   27217   27218   27219   27218   27219
   27219       0   27221   27222   27223   27222   27223   27223       0   27225
   27226   27227   27226   27227   27227       0   27229   27230   27231   27230
   27231   27231       0   27233   27234   27235   27234   27235   27235       0
   27237   27238   27239   27238   27239   27239       0   27241   27242   27243
   27242   27243   27243       0   27245   27246   27247   27246   27247   27247
       0   27249   27250   27251   27250   27251   27251       0   27253   27254
   27255   27254   27255   27255       0   27257   27258   27259   27258   27259
   27259       0   27261   27262   27263   27262   27263   27263       0   27265
   27266   27267   27266   27267   27267       0   27269   27270   27271   27270
   27271   27271       0   27273   27274   27275   27274   27275   27275       0
   27277   27278   27279   27278   27279   27279       0   27281   27282   27283
   27282   27283   27283       0   27285   27286   27287   27286   27287   27287
       0   27289   27290   27291   27290   27291   27291       0   27293   27294
   27295   27294   27295   27295       0   27297   27298   27299   27298   27299
   27299       0   27301   27302   27303   27302   27303   27303       0   27305
   27306   27307   27306   27307   27307       0   27309   27310   27311   27310
   27311   27311       0   27313   27314   27315   27314   27315   27315       0
   27317   27318   27319   27318   27319   27319       0   27321   27322   27323
   27322   27323   27323       0   27325   27326   27327   27326   27327   27327
       0   27329   27330   27331   27330   27331   27331       0   27333   27334
   27335   27334   27335   27335       0   27337   27338   27339   27338   27339
   27339       0   27341   27342   27343   27342   27343   27343       0   27345
   27346   27347   27346   27347   27347       0   27349   27350   27351   27350
   27351   27351       0   27353   27354   27355   27354   27355   27355       0
   27357   27358   27359   27358   27359   27359       0   27361   27362   27363
   27362   27363   27363       0   27365   27366   27367   27366   27367   27367
       0   27369   27370   27371   27370   27371   27371       0   27373   27374
   27375   27374   27375   27375       0   27377   27378   27379   27378   27379
   27379       0   27381   27382   27383   27382   27383   27383       0   27385
   27386   27387   27386   27387   27387       0   27389   27390   27391   27390
   27391   27391       0   27393   27394   27395   27394   27395   27395       0
   27397   27398   27399   27398   27399   27399       0   27401   27402   27403
   27402   27403   27403       0   27405   27406   27407   27406   27407   27407
       0   27409   27410   27411   27410   27411   27411       0   27413   27414
   27415   27414   27415   27415       0   27417   27418   27419   27418   27419
   27419       0   27421   27422   27423   27422   27423   27423       0   27425
   27426   27427   27426   27427   27427       0   27429   27430   27431   27430
   27431   27431       0   27433   27434   27435   27434   27435   27435       0
   27437   27438   27439   27438   27439   27439       0   27441   27442   27443
   27442   27443   27443       0   27445   27446   27447   27446   27447   27447
       0   27449   27450   27451   27450   27451   27451       0   27453   27454
   27455   27454   27455   27455       0   27457   27458   27459   27458   27459
   27459       0   27461   27462   27463   27462   27463   27463       0   27465
   27466   27467   27466   27467   27467       0   27469   27470   27471   27470
   27471   27471       0   27473   27474   27475   27474   27475   27475       0
   27477   27478   27479   27478   27479   27479       0   27481   27482   27483
   27482   27483   27483       0   27485   27486   27487   27486   27487   27487
       0   27489   27490   27491   27490   27491   27491       0   27493   27494
   27495   27494   27495   27495       0   27497   27498   27499   27498   27499
   27499       0   27501   27502   27503   27502   27503   27503       0   27505
   27506   27507   27506   27507   27507       0   27509   27510   27511   27510
   27511   27511       0   27513   27514   27515   27514   27515   27515       0
   27517   27518   27519   27518   27519   27519       0   27521   27522   27523
   27522   27523   27523       0   27525   27526   27527   27526   27527   27527
       0   27529   27530   27531   27530   27531   27531       0   27533   27534
   27535   27534   27535   27535       0   27537   27538   27539   27538   27539
   27539       0   27541   27542   27543   27542   27543   27543       0   27545
   27546   27547   27546   27547   27547       0   27549   27550   27551   27550
   27551   27551       0   27553   27554   27555   27554   27555   27555       0
   27557   27558   27559   27558   27559   27559       0   27561   27562   27563
   27562   27563   27563       0   27565   27566   27567   27566   27567   27567
       0   27569   27570   27571   27570   27571   27571       0   27573   27574
   27575   27574   27575   27575       0   27577   27578   27579   27578   27579
   27579       0   27581   27582   27583   27582   27583   27583       0   27585
   27586   27587   27586   27587   27587       0   27589   27590   27591   27590
   27591   27591       0   27593   27594   27595   27594   27595   27595       0
   27597   27598   27599   27598   27599   27599       0   27601   27602   27603
   27602   27603   27603       0   27605   27606   27607   27606   27607   27607
       0   27609   27610   27611   27610   27611   27611       0   27613   27614
   27615   27614   27615   27615       0   27617   27618   27619   27618   27619
   27619       0   27621   27622   27623   27622   27623   27623       0   27625
   27626   27627   27626   27627   27627       0   27629   27630   27631   27630
   27631   27631       0   27633   27634   27635   27634   27635   27635       0
   27637   27638   27639   27638   27639   27639       0   27641   27642   27643
   27642   27643   27643       0   27645   27646   27647   27646   27647   27647
       0   27649   27650   27651   27650   27651   27651       0   27653   27654
   27655   27654   27655   27655       0   27657   27658   27659   27658   27659
   27659       0   27661   27662   27663   27662   27663   27663       0   27665
   27666   27667   27666   27667   27667       0   27669   27670   27671   27670
   27671   27671       0   27673   27674   27675   27674   27675   27675       0
   27677   27678   27679   27678   27679   27679       0   27681   27682   27683
   27682   27683   27683       0   27685   27686   27687   27686   27687   27687
       0   27689   27690   27691   27690   27691   27691       0   27693   27694
   27695   27694   27695   27695       0   27697   27698   27699   27698   27699
   27699       0   27701   27702   27703   27702   27703   27703       0   27705
   27706   27707   27706   27707   27707       0   27709   27710   27711   27710
   27711   27711       0   27713   27714   27715   27714   27715   27715       0
   27717   27718   27719   27718   27719   27719       0   27721   27722   27723
   27722   27723   27723       0   27725   27726   27727   27726   27727   27727
       0   27729   27730   27731   27730   27731   27731       0   27733   27734
   27735   27734   27735   27735       0   27737   27738   27739   27738   27739
   27739       0   27741   27742   27743   27742   27743   27743       0   27745
   27746   27747   27746   27747   27747       0   27749   27750   27751   27750
   27751   27751       0   27753   27754   27755   27754   27755   27755       0
   27757   27758   27759   27758   27759   27759       0   27761   27762   27763
   27762   27763   27763       0   27765   27766   27767   27766   27767   27767
       0   27769   27770   27771   27770   27771   27771       0   27773   27774
   27775   27774   27775   27775       0   27777   27778   27779   27778   27779
   27779       0   27781   27782   27783   27782   27783   27783       0   27785
   27786   27787   27786   27787   27787       0   27789   27790   27791   27790
   27791   27791       0   27793   27794   27795   27794   27795   27795       0
   27797   27798   27799   27798   27799   27799       0   27801   27802   27803
   27802   27803   27803       0   27805   27806   27807   27806   27807   27807
       0   27809   27810   27811   27810   27811   27811       0   27813   27814
   27815   27814   27815   27815       0   27817   27818   27819   27818   27819
   27819       0   27821   27822   27823   27822   27823   27823       0   27825
   27826   27827   27826   27827   27827       0   27829   27830   27831   27830
   27831   27831       0   27833   27834   27835   27834   27835   27835       0
   27837   27838   27839   27838   27839   27839       0   27841   27842   27843
   27842   27843   27843       0   27845   27846   27847   27846   27847   27847
       0   27849   27850   27851   27850   27851   27851       0   27853   27854
   27855   27854   27855   27855       0   27857   27858   27859   27858   27859
   27859       0   27861   27862   27863   27862   27863   27863       0   27865
   27866   27867   27866   27867   27867       0   27869   27870   27871   27870
   27871   27871       0   27873   27874   27875   27874   27875   27875       0
   27877   27878   27879   27878   27879   27879       0   27881   27882   27883
   27882   27883   27883       0   27885   27886   27887   27886   27887   27887
       0   27889   27890   27891   27890   27891   27891       0   27893   27894
   27895   27894   27895   27895       0   27897   27898   27899   27898   27899
   27899       0   27901   27902   27903   27902   27903   27903       0   27905
   27906   27907   27906   27907   27907       0   27909   27910   27911   27910
   27911   27911       0   27913   27914   27915   27914   27915   27915       0
   27917   27918   27919   27918   27919   27919       0   27921   27922   27923
   27922   27923   27923       0   27925   27926   27927   27926   27927   27927
       0   27929   27930   27931   27930   27931   27931       0   27933   27934
   27935   27934   27935   27935       0   27937   27938   27939   27938   27939
   27939       0   27941   27942   27943   27942   27943   27943       0   27945
   27946   27947   27946   27947   27947       0   27949   27950   27951   27950
   27951   27951       0   27953   27954   27955   27954   27955   27955       0
   27957   27958   27959   27958   27959   27959       0   27961   27962   27963
   27962   27963   27963       0   27965   27966   27967   27966   27967   27967
       0   27969   27970   27971   27970   27971   27971       0   27973   27974
   27975   27974   27975   27975       0   27977   27978   27979   27978   27979
   27979       0   27981   27982   27983   27982   27983   27983       0   27985
   27986   27987   27986   27987   27987       0   27989   27990   27991   27990
   27991   27991       0   27993   27994   27995   27994   27995   27995       0
   27997   27998   27999   27998   27999   27999       0   28001   28002   28003
   28002   28003   28003       0   28005   28006   28007   28006   28007   28007
       0   28009   28010   28011   28010   28011   28011       0   28013   28014
   28015   28014   28015   28015       0   28017   28018   28019   28018   28019
   28019       0   28021   28022   28023   28022   28023   28023       0   28025
   28026   28027   28026   28027   28027       0   28029   28030   28031   28030
   28031   28031       0   28033   28034   28035   28034   28035   28035       0
   28037   28038   28039   28038   28039   28039       0   28041   28042   28043
   28042   28043   28043       0   28045   28046   28047   28046   28047   28047
       0   28049   28050   28051   28050   28051   28051       0   28053   28054
   28055   28054   28055   28055       0   28057   28058   28059   28058   28059
   28059       0   28061   28062   28063   28062   28063   28063       0   28065
   28066   28067   28066   28067   28067       0   28069   28070   28071   28070
   28071   28071       0   28073   28074   28075   28074   28075   28075       0
   28077   28078   28079   28078   28079   28079       0   28081   28082   28083
   28082   28083   28083       0   28085   28086   28087   28086   28087   28087
       0   28089   28090   28091   28090   28091   28091       0   28093   28094
   28095   28094   28095   28095       0   28097   28098   28099   28098   28099
   28099       0   28101   28102   28103   28102   28103   28103       0   28105
   28106   28107   28106   28107   28107       0   28109   28110   28111   28110
   28111   28111       0   28113   28114   28115   28114   28115   28115       0
   28117   28118   28119   28118   28119   28119       0   28121   28122   28123
   28122   28123   28123       0   28125   28126   28127   28126   28127   28127
       0   28129   28130   28131   28130   28131   28131       0   28133   28134
   28135   28134   28135   28135       0   28137   28138   28139   28138   28139
   28139       0   28141   28142   28143   28142   28143   28143       0   28145
   28146   28147   28146   28147   28147       0   28149   28150   28151   28150
   28151   28151       0   28153   28154   28155   28154   28155   28155       0
   28157   28158   28159   28158   28159   28159       0   28161   28162   28163
   28162   28163   28163       0   28165   28166   28167   28166   28167   28167
       0   28169   28170   28171   28170   28171   28171       0   28173   28174
   28175   28174   28175   28175       0   28177   28178   28179   28178   28179
   28179       0   28181   28182   28183   28182   28183   28183       0   28185
   28186   28187   28186   28187   28187       0   28189   28190   28191   28190
   28191   28191       0   28193   28194   28195   28194   28195   28195       0
   28197   28198   28199   28198   28199   28199       0   28201   28202   28203
   28202   28203   28203       0   28205   28206   28207   28206   28207   28207
       0   28209   28210   28211   28210   28211   28211       0   28213   28214
   28215   28214   28215   28215       0   28217   28218   28219   28218   28219
   28219       0   28221   28222   28223   28222   28223   28223       0   28225
   28226   28227   28226   28227   28227       0   28229   28230   28231   28230
   28231   28231       0   28233   28234   28235   28234   28235   28235       0
   28237   28238   28239   28238   28239   28239       0   28241   28242   28243
   28242   28243   28243       0   28245   28246   28247   28246   28247   28247
       0   28249   28250   28251   28250   28251   28251       0   28253   28254
   28255   28254   28255   28255       0   28257   28258   28259   28258   28259
   28259       0   28261   28262   28263   28262   28263   28263       0   28265
   28266   28267   28266   28267   28267       0   28269   28270   28271   28270
   28271   28271       0   28273   28274   28275   28274   28275   28275       0
   28277   28278   28279   28278   28279   28279       0   28281   28282   28283
   28282   28283   28283       0   28285   28286   28287   28286   28287   28287
       0   28289   28290   28291   28290   28291   28291       0   28293   28294
   28295   28294   28295   28295       0   28297   28298   28299   28298   28299
   28299       0   28301   28302   28303   28302   28303   28303       0   28305
   28306   28307   28306   28307   28307       0   28309   28310   28311   28310
   28311   28311       0   28313   28314   28315   28314   28315   28315       0
   28317   28318   28319   28318   28319   28319       0   28321   28322   28323
   28322   28323   28323       0   28325   28326   28327   28326   28327   28327
       0   28329   28330   28331   28330   28331   28331       0   28333   28334
   28335   28334   28335   28335       0   28337   28338   28339   28338   28339
   28339       0   28341   28342   28343   28342   28343   28343       0   28345
   28346   28347   28346   28347   28347       0   28349   28350   28351   28350
   28351   28351       0   28353   28354   28355   28354   28355   28355       0
   28357   28358   28359   28358   28359   28359       0   28361   28362   28363
   28362   28363   28363       0   28365   28366   28367   28366   28367   28367
       0   28369   28370   28371   28370   28371   28371       0   28373   28374
   28375   28374   28375   28375       0   28377   28378   28379   28378   28379
   28379       0   28381   28382   28383   28382   28383   28383       0   28385
   28386   28387   28386   28387   28387       0   28389   28390   28391   28390
   28391   28391       0   28393   28394   28395   28394   28395   28395       0
   28397   28398   28399   28398   28399   28399       0   28401   28402   28403
   28402   28403   28403       0   28405   28406   28407   28406   28407   28407
       0   28409   28410   28411   28410   28411   28411       0   28413   28414
   28415   28414   28415   28415       0   28417   28418   28419   28418   28419
   28419       0   28421   28422   28423   28422   28423   28423       0   28425
   28426   28427   28426   28427   28427       0   28429   28430   28431   28430
   28431   28431       0   28433   28434   28435   28434   28435   28435       0
   28437   28438   28439   28438   28439   28439       0   28441   28442   28443
   28442   28443   28443       0   28445   28446   28447   28446   28447   28447
       0   28449   28450   28451   28450   28451   28451       0   28453   28454
   28455   28454   28455   28455       0   28457   28458   28459   28458   28459
   28459       0   28461   28462   28463   28462   28463   28463       0   28465
   28466   28467   28466   28467   28467       0   28469   28470   28471   28470
   28471   28471       0   28473   28474   28475   28474   28475   28475       0
   28477   28478   28479   28478   28479   28479       0   28481   28482   28483
   28482   28483   28483       0   28485   28486   28487   28486   28487   28487
       0   28489   28490   28491   28490   28491   28491       0   28493   28494
   28495   28494   28495   28495       0   28497   28498   28499   28498   28499
   28499       0   28501   28502   28503   28502   28503   28503       0   28505
   28506   28507   28506   28507   28507       0   28509   28510   28511   28510
   28511   28511       0   28513   28514   28515   28514   28515   28515       0
   28517   28518   28519   28518   28519   28519       0   28521   28522   28523
   28522   28523   28523       0   28525   28526   28527   28526   28527   28527
       0   28529   28530   28531   28530   28531   28531       0   28533   28534
   28535   28534   28535   28535       0   28537   28538   28539   28538   28539
   28539       0   28541   28542   28543   28542   28543   28543       0   28545
   28546   28547   28546   28547   28547       0   28549   28550   28551   28550
   28551   28551       0   28553   28554   28555   28554   28555   28555       0
   28557   28558   28559   28558   28559   28559       0   28561   28562   28563
   28562   28563   28563       0   28565   28566   28567   28566   28567   28567
       0   28569   28570   28571   28570   28571   28571       0   28573   28574
   28575   28574   28575   28575       0   28577   28578   28579   28578   28579
   28579       0   28581   28582   28583   28582   28583   28583       0   28585
   28586   28587   28586   28587   28587       0   28589   28590   28591   28590
   28591   28591       0   28593   28594   28595   28594   28595   28595       0
   28597   28598   28599   28598   28599   28599       0   28601   28602   28603
   28602   28603   28603       0   28605   28606   28607   28606   28607   28607
       0   28609   28610   28611   28610   28611   28611       0   28613   28614
   28615   28614   28615   28615       0   28617   28618   28619   28618   28619
   28619       0   28621   28622   28623   28622   28623   28623       0   28625
   28626   28627   28626   28627   28627       0   28629   28630   28631   28630
   28631   28631       0   28633   28634   28635   28634   28635   28635       0
   28637   28638   28639   28638   28639   28639       0   28641   28642   28643
   28642   28643   28643       0   28645   28646   28647   28646   28647   28647
       0   28649   28650   28651   28650   28651   28651       0   28653   28654
   28655   28654   28655   28655       0   28657   28658   28659   28658   28659
   28659       0   28661   28662   28663   28662   28663   28663       0   28665
   28666   28667   28666   28667   28667       0   28669   28670   28671   28670
   28671   28671       0   28673   28674   28675   28674   28675   28675       0
   28677   28678   28679   28678   28679   28679       0   28681   28682   28683
   28682   28683   28683       0   28685   28686   28687   28686   28687   28687
       0   28689   28690   28691   28690   28691   28691       0   28693   28694
   28695   28694   28695   28695       0   28697   28698   28699   28698   28699
   28699       0   28701   28702   28703   28702   28703   28703       0   28705
   28706   28707   28706   28707   28707       0   28709   28710   28711   28710
   28711   28711       0   28713   28714   28715   28714   28715   28715       0
   28717   28718   28719   28718   28719   28719       0   28721   28722   28723
   28722   28723   28723       0   28725   28726   28727   28726   28727   28727
       0   28729   28730   28731   28730   28731   28731       0   28733   28734
   28735   28734   28735   28735       0   28737   28738   28739   28738   28739
   28739       0   28741   28742   28743   28742   28743   28743       0   28745
   28746   28747   28746   28747   28747       0   28749   28750   28751   28750
   28751   28751       0   28753   28754   28755   28754   28755   28755       0
   28757   28758   28759   28758   28759   28759       0   28761   28762   28763
   28762   28763   28763       0   28765   28766   28767   28766   28767   28767
       0   28769   28770   28771   28770   28771   28771       0   28773   28774
   28775   28774   28775   28775       0   28777   28778   28779   28778   28779
   28779       0   28781   28782   28783   28782   28783   28783       0   28785
   28786   28787   28786   28787   28787       0   28789   28790   28791   28790
   28791   28791       0   28793   28794   28795   28794   28795   28795       0
   28797   28798   28799   28798   28799   28799       0   28801   28802   28803
   28802   28803   28803       0   28805   28806   28807   28806   28807   28807
       0   28809   28810   28811   28810   28811   28811       0   28813   28814
   28815   28814   28815   28815       0   28817   28818   28819   28818   28819
   28819       0   28821   28822   28823   28822   28823   28823       0   28825
   28826   28827   28826   28827   28827       0   28829   28830   28831   28830
   28831   28831       0   28833   28834   28835   28834   28835   28835       0
   28837   28838   28839   28838   28839   28839       0   28841   28842   28843
   28842   28843   28843       0   28845   28846   28847   28846   28847   28847
       0   28849   28850   28851   28850   28851   28851       0   28853   28854
   28855   28854   28855   28855       0   28857   28858   28859   28858   28859
   28859       0   28861   28862   28863   28862   28863   28863       0   28865
   28866   28867   28866   28867   28867       0   28869   28870   28871   28870
   28871   28871       0   28873   28874   28875   28874   28875   28875       0
   28877   28878   28879   28878   28879   28879       0   28881   28882   28883
   28882   28883   28883       0   28885   28886   28887   28886   28887   28887
       0   28889   28890   28891   28890   28891   28891       0   28893   28894
   28895   28894   28895   28895       0   28897   28898   28899   28898   28899
   28899       0   28901   28902   28903   28902   28903   28903       0   28905
   28906   28907   28906   28907   28907       0   28909   28910   28911   28910
   28911   28911       0   28913   28914   28915   28914   28915   28915       0
   28917   28918   28919   28918   28919   28919       0   28921   28922   28923
   28922   28923   28923       0   28925   28926   28927   28926   28927   28927
       0   28929   28930   28931   28930   28931   28931       0   28933   28934
   28935   28934   28935   28935       0   28937   28938   28939   28938   28939
   28939       0   28941   28942   28943   28942   28943   28943       0   28945
   28946   28947   28946   28947   28947       0   28949   28950   28951   28950
   28951   28951       0   28953   28954   28955   28954   28955   28955       0
   28957   28958   28959   28958   28959   28959       0   28961   28962   28963
   28962   28963   28963       0   28965   28966   28967   28966   28967   28967
       0   28969   28970   28971   28970   28971   28971       0   28973   28974
   28975   28974   28975   28975       0   28977   28978   28979   28978   28979
   28979       0   28981   28982   28983   28982   28983   28983       0   28985
   28986   28987   28986   28987   28987       0   28989   28990   28991   28990
   28991   28991       0   28993   28994   28995   28994   28995   28995       0
   28997   28998   28999   28998   28999   28999       0   29001   29002   29003
   29002   29003   29003       0   29005   29006   29007   29006   29007   29007
       0   29009   29010   29011   29010   29011   29011       0   29013   29014
   29015   29014   29015   29015       0   29017   29018   29019   29018   29019
   29019       0   29021   29022   29023   29022   29023   29023       0   29025
   29026   29027   29026   29027   29027       0   29029   29030   29031   29030
   29031   29031       0   29033   29034   29035   29034   29035   29035       0
   29037   29038   29039   29038   29039   29039       0   29041   29042   29043
   29042   29043   29043       0   29045   29046   29047   29046   29047   29047
       0   29049   29050   29051   29050   29051   29051       0   29053   29054
   29055   29054   29055   29055       0   29057   29058   29059   29058   29059
   29059       0   29061   29062   29063   29062   29063   29063       0   29065
   29066   29067   29066   29067   29067       0   29069   29070   29071   29070
   29071   29071       0   29073   29074   29075   29074   29075   29075       0
   29077   29078   29079   29078   29079   29079       0   29081   29082   29083
   29082   29083   29083       0   29085   29086   29087   29086   29087   29087
       0   29089   29090   29091   29090   29091   29091       0   29093   29094
   29095   29094   29095   29095       0   29097   29098   29099   29098   29099
   29099       0   29101   29102   29103   29102   29103   29103       0   29105
   29106   29107   29106   29107   29107       0   29109   29110   29111   29110
   29111   29111       0   29113   29114   29115   29114   29115   29115       0
   29117   29118   29119   29118   29119   29119       0   29121   29122   29123
   29122   29123   29123       0   29125   29126   29127   29126   29127   29127
       0   29129   29130   29131   29130   29131   29131       0   29133   29134
   29135   29134   29135   29135       0   29137   29138   29139   29138   29139
   29139       0   29141   29142   29143   29142   29143   29143       0   29145
   29146   29147   29146   29147   29147       0   29149   29150   29151   29150
   29151   29151       0   29153   29154   29155   29154   29155   29155       0
   29157   29158   29159   29158   29159   29159       0   29161   29162   29163
   29162   29163   29163       0   29165   29166   29167   29166   29167   29167
       0   29169   29170   29171   29170   29171   29171       0   29173   29174
   29175   29174   29175   29175       0   29177   29178   29179   29178   29179
   29179       0   29181   29182   29183   29182   29183   29183       0   29185
   29186   29187   29186   29187   29187       0   29189   29190   29191   29190
   29191   29191       0   29193   29194   29195   29194   29195   29195       0
   29197   29198   29199   29198   29199   29199       0   29201   29202   29203
   29202   29203   29203       0   29205   29206   29207   29206   29207   29207
       0   29209   29210   29211   29210   29211   29211       0   29213   29214
   29215   29214   29215   29215       0   29217   29218   29219   29218   29219
   29219       0   29221   29222   29223   29222   29223   29223       0   29225
   29226   29227   29226   29227   29227       0   29229   29230   29231   29230
   29231   29231       0   29233   29234   29235   29234   29235   29235       0
   29237   29238   29239   29238   29239   29239       0   29241   29242   29243
   29242   29243   29243       0   29245   29246   29247   29246   29247   29247
       0   29249   29250   29251   29250   29251   29251       0   29253   29254
   29255   29254   29255   29255       0   29257   29258   29259   29258   29259
   29259       0   29261   29262   29263   29262   29263   29263       0   29265
   29266   29267   29266   29267   29267       0   29269   29270   29271   29270
   29271   29271       0   29273   29274   29275   29274   29275   29275       0
   29277   29278   29279   29278   29279   29279       0   29281   29282   29283
   29282   29283   29283       0   29285   29286   29287   29286   29287   29287
       0   29289   29290   29291   29290   29291   29291       0   29293   29294
   29295   29294   29295   29295       0   29297   29298   29299   29298   29299
   29299       0   29301   29302   29303   29302   29303   29303       0   29305
   29306   29307   29306   29307   29307       0   29309   29310   29311   29310
   29311   29311       0   29313   29314   29315   29314   29315   29315       0
   29317   29318   29319   29318   29319   29319       0   29321   29322   29323
   29322   29323   29323       0   29325   29326   29327   29326   29327   29327
       0   29329   29330   29331   29330   29331   29331       0   29333   29334
   29335   29334   29335   29335       0   29337   29338   29339   29338   29339
   29339       0   29341   29342   29343   29342   29343   29343       0   29345
   29346   29347   29346   29347   29347       0   29349   29350   29351   29350
   29351   29351       0   29353   29354   29355   29354   29355   29355       0
   29357   29358   29359   29358   29359   29359       0   29361   29362   29363
   29362   29363   29363       0   29365   29366   29367   29366   29367   29367
       0   29369   29370   29371   29370   29371   29371       0   29373   29374
   29375   29374   29375   29375       0   29377   29378   29379   29378   29379
   29379       0   29381   29382   29383   29382   29383   29383       0   29385
   29386   29387   29386   29387   29387       0   29389   29390   29391   29390
   29391   29391       0   29393   29394   29395   29394   29395   29395       0
   29397   29398   29399   29398   29399   29399       0   29401   29402   29403
   29402   29403   29403       0   29405   29406   29407   29406   29407   29407
       0   29409   29410   29411   29410   29411   29411       0   29413   29414
   29415   29414   29415   29415       0   29417   29418   29419   29418   29419
   29419       0   29421   29422   29423   29422   29423   29423       0   29425
   29426   29427   29426   29427   29427       0   29429   29430   29431   29430
   29431   29431       0   29433   29434   29435   29434   29435   29435       0
   29437   29438   29439   29438   29439   29439       0   29441   29442   29443
   29442   29443   29443       0   29445   29446   29447   29446   29447   29447
       0   29449   29450   29451   29450   29451   29451       0   29453   29454
   29455   29454   29455   29455       0   29457   29458   29459   29458   29459
   29459       0   29461   29462   29463   29462   29463   29463       0   29465
   29466   29467   29466   29467   29467       0   29469   29470   29471   29470
   29471   29471       0   29473   29474   29475   29474   29475   29475       0
   29477   29478   29479   29478   29479   29479       0   29481   29482   29483
   29482   29483   29483       0   29485   29486   29487   29486   29487   29487
       0   29489   29490   29491   29490   29491   29491       0   29493   29494
   29495   29494   29495   29495       0   29497   29498   29499   29498   29499
   29499       0   29501   29502   29503   29502   29503   29503       0   29505
   29506   29507   29506   29507   29507       0   29509   29510   29511   29510
   29511   29511       0   29513   29514   29515   29514   29515   29515       0
   29517   29518   29519   29518   29519   29519       0   29521   29522   29523
   29522   29523   29523       0   29525   29526   29527   29526   29527   29527
       0   29529   29530   29531   29530   29531   29531       0   29533   29534
   29535   29534   29535   29535       0   29537   29538   29539   29538   29539
   29539       0   29541   29542   29543   29542   29543   29543       0   29545
   29546   29547   29546   29547   29547       0   29549   29550   29551   29550
   29551   29551       0   29553   29554   29555   29554   29555   29555       0
   29557   29558   29559   29558   29559   29559       0   29561   29562   29563
   29562   29563   29563       0   29565   29566   29567   29566   29567   29567
       0   29569   29570   29571   29570   29571   29571       0   29573   29574
   29575   29574   29575   29575       0   29577   29578   29579   29578   29579
   29579       0   29581   29582   29583   29582   29583   29583       0   29585
   29586   29587   29586   29587   29587       0   29589   29590   29591   29590
   29591   29591       0   29593   29594   29595   29594   29595   29595       0
   29597   29598   29599   29598   29599   29599       0   29601   29602   29603
   29602   29603   29603       0   29605   29606   29607   29606   29607   29607
       0   29609   29610   29611   29610   29611   29611       0   29613   29614
   29615   29614   29615   29615       0   29617   29618   29619   29618   29619
   29619       0   29621   29622   29623   29622   29623   29623       0   29625
   29626   29627   29626   29627   29627       0   29629   29630   29631   29630
   29631   29631       0   29633   29634   29635   29634   29635   29635       0
   29637   29638   29639   29638   29639   29639       0   29641   29642   29643
   29642   29643   29643       0   29645   29646   29647   29646   29647   29647
       0   29649   29650   29651   29650   29651   29651       0   29653   29654
   29655   29654   29655   29655       0   29657   29658   29659   29658   29659
   29659       0   29661   29662   29663   29662   29663   29663       0   29665
   29666   29667   29666   29667   29667       0   29669   29670   29671   29670
   29671   29671       0   29673   29674   29675   29674   29675   29675       0
   29677   29678   29679   29678   29679   29679       0   29681   29682   29683
   29682   29683   29683       0   29685   29686   29687   29686   29687   29687
       0   29689   29690   29691   29690   29691   29691       0   29693   29694
   29695   29694   29695   29695       0   29697   29698   29699   29698   29699
   29699       0   29701   29702   29703   29702   29703   29703       0   29705
   29706   29707   29706   29707   29707       0   29709   29710   29711   29710
   29711   29711       0   29713   29714   29715   29714   29715   29715       0
   29717   29718   29719   29718   29719   29719       0   29721   29722   29723
   29722   29723   29723       0   29725   29726   29727   29726   29727   29727
       0   29729   29730   29731   29730   29731   29731       0   29733   29734
   29735   29734   29735   29735       0   29737   29738   29739   29738   29739
   29739       0   29741   29742   29743   29742   29743   29743       0   29745
   29746   29747   29746   29747   29747       0   29749   29750   29751   29750
   29751   29751       0   29753   29754   29755   29754   29755   29755       0
   29757   29758   29759   29758   29759   29759       0   29761   29762   29763
   29762   29763   29763       0   29765   29766   29767   29766   29767   29767
       0   29769   29770   29771   29770   29771   29771       0   29773   29774
   29775   29774   29775   29775       0   29777   29778   29779   29778   29779
   29779       0   29781   29782   29783   29782   29783   29783       0   29785
   29786   29787   29786   29787   29787       0   29789   29790   29791   29790
   29791   29791       0   29793   29794   29795   29794   29795   29795       0
   29797   29798   29799   29798   29799   29799       0   29801   29802   29803
   29802   29803   29803       0   29805   29806   29807   29806   29807   29807
       0   29809   29810   29811   29810   29811   29811       0   29813   29814
   29815   29814   29815   29815       0   29817   29818   29819   29818   29819
   29819       0   29821   29822   29823   29822   29823   29823       0   29825
   29826   29827   29826   29827   29827       0   29829   29830   29831   29830
   29831   29831       0   29833   29834   29835   29834   29835   29835       0
   29837   29838   29839   29838   29839   29839       0   29841   29842   29843
   29842   29843   29843       0   29845   29846   29847   29846   29847   29847
       0   29849   29850   29851   29850   29851   29851       0   29853   29854
   29855   29854   29855   29855       0   29857   29858   29859   29858   29859
   29859       0   29861   29862   29863   29862   29863   29863       0   29865
   29866   29867   29866   29867   29867       0   29869   29870   29871   29870
   29871   29871       0   29873   29874   29875   29874   29875   29875       0
   29877   29878   29879   29878   29879   29879       0   29881   29882   29883
   29882   29883   29883       0   29885   29886   29887   29886   29887   29887
       0   29889   29890   29891   29890   29891   29891       0   29893   29894
   29895   29894   29895   29895       0   29897   29898   29899   29898   29899
   29899       0   29901   29902   29903   29902   29903   29903       0   29905
   29906   29907   29906   29907   29907       0   29909   29910   29911   29910
   29911   29911       0   29913   29914   29915   29914   29915   29915       0
   29917   29918   29919   29918   29919   29919       0   29921   29922   29923
   29922   29923   29923       0   29925   29926   29927   29926   29927   29927
       0   29929   29930   29931   29930   29931   29931       0   29933   29934
   29935   29934   29935   29935       0   29937   29938   29939   29938   29939
   29939       0   29941   29942   29943   29942   29943   29943       0   29945
   29946   29947   29946   29947   29947       0   29949   29950   29951   29950
   29951   29951       0   29953   29954   29955   29954   29955   29955       0
   29957   29958   29959   29958   29959   29959       0   29961   29962   29963
   29962   29963   29963       0   29965   29966   29967   29966   29967   29967
       0   29969   29970   29971   29970   29971   29971       0   29973   29974
   29975   29974   29975   29975       0   29977   29978   29979   29978   29979
   29979       0   29981   29982   29983   29982   29983   29983       0   29985
   29986   29987   29986   29987   29987       0   29989   29990   29991   29990
   29991   29991       0   29993   29994   29995   29994   29995   29995       0
   29997   29998   29999   29998   29999   29999       0   30001   30002   30003
   30002   30003   30003       0   30005   30006   30007   30006   30007   30007
       0   30009   30010   30011   30010   30011   30011       0   30013   30014
   30015   30014   30015   30015       0   30017   30018   30019   30018   30019
   30019       0   30021   30022   30023   30022   30023   30023       0   30025
   30026   30027   30026   30027   30027       0   30029   30030   30031   30030
   30031   30031       0   30033   30034   30035   30034   30035   30035       0
   30037   30038   30039   30038   30039   30039       0   30041   30042   30043
   30042   30043   30043       0   30045   30046   30047   30046   30047   30047
       0   30049   30050   30051   30050   30051   30051       0   30053   30054
   30055   30054   30055   30055       0   30057   30058   30059   30058   30059
   30059       0   30061   30062   30063   30062   30063   30063       0   30065
   30066   30067   30066   30067   30067       0   30069   30070   30071   30070
   30071   30071       0   30073   30074   30075   30074   30075   30075       0
   30077   30078   30079   30078   30079   30079       0   30081   30082   30083
   30082   30083   30083       0   30085   30086   30087   30086   30087   30087
       0   30089   30090   30091   30090   30091   30091       0   30093   30094
   30095   30094   30095   30095       0   30097   30098   30099   30098   30099
   30099       0   30101   30102   30103   30102   30103   30103       0   30105
   30106   30107   30106   30107   30107       0   30109   30110   30111   30110
   30111   30111       0   30113   30114   30115   30114   30115   30115       0
   30117   30118   30119   30118   30119   30119       0   30121   30122   30123
   30122   30123   30123       0   30125   30126   30127   30126   30127   30127
       0   30129   30130   30131   30130   30131   30131       0   30133   30134
   30135   30134   30135   30135       0   30137   30138   30139   30138   30139
   30139       0   30141   30142   30143   30142   30143   30143       0   30145
   30146   30147   30146   30147   30147       0   30149   30150   30151   30150
   30151   30151       0   30153   30154   30155   30154   30155   30155       0
   30157   30158   30159   30158   30159   30159       0   30161   30162   30163
   30162   30163   30163       0   30165   30166   30167   30166   30167   30167
       0   30169   30170   30171   30170   30171   30171       0   30173   30174
   30175   30174   30175   30175       0   30177   30178   30179   30178   30179
   30179       0   30181   30182   30183   30182   30183   30183       0   30185
   30186   30187   30186   30187   30187       0   30189   30190   30191   30190
   30191   30191       0   30193   30194   30195   30194   30195   30195       0
   30197   30198   30199   30198   30199   30199       0   30201   30202   30203
   30202   30203   30203       0   30205   30206   30207   30206   30207   30207
       0   30209   30210   30211   30210   30211   30211       0   30213   30214
   30215   30214   30215   30215       0   30217   30218   30219   30218   30219
   30219       0   30221   30222   30223   30222   30223   30223       0   30225
   30226   30227   30226   30227   30227       0   30229   30230   30231   30230
   30231   30231       0   30233   30234   30235   30234   30235   30235       0
   30237   30238   30239   30238   30239   30239       0   30241   30242   30243
   30242   30243   30243       0   30245   30246   30247   30246   30247   30247
       0   30249   30250   30251   30250   30251   30251       0   30253   30254
   30255   30254   30255   30255       0   30257   30258   30259   30258   30259
   30259       0   30261   30262   30263   30262   30263   30263       0   30265
   30266   30267   30266   30267   30267       0   30269   30270   30271   30270
   30271   30271       0   30273   30274   30275   30274   30275   30275       0
   30277   30278   30279   30278   30279   30279       0   30281   30282   30283
   30282   30283   30283       0   30285   30286   30287   30286   30287   30287
       0   30289   30290   30291   30290   30291   30291       0   30293   30294
   30295   30294   30295   30295       0   30297   30298   30299   30298   30299
   30299       0   30301   30302   30303   30302   30303   30303       0   30305
   30306   30307   30306   30307   30307       0   30309   30310   30311   30310
   30311   30311       0   30313   30314   30315   30314   30315   30315       0
   30317   30318   30319   30318   30319   30319       0   30321   30322   30323
   30322   30323   30323       0   30325   30326   30327   30326   30327   30327
       0   30329   30330   30331   30330   30331   30331       0   30333   30334
   30335   30334   30335   30335       0   30337   30338   30339   30338   30339
   30339       0   30341   30342   30343   30342   30343   30343       0   30345
   30346   30347   30346   30347   30347       0   30349   30350   30351   30350
   30351   30351       0   30353   30354   30355   30354   30355   30355       0
   30357   30358   30359   30358   30359   30359       0   30361   30362   30363
   30362   30363   30363       0   30365   30366   30367   30366   30367   30367
       0   30369   30370   30371   30370   30371   30371       0   30373   30374
   30375   30374   30375   30375       0   30377   30378   30379   30378   30379
   30379       0   30381   30382   30383   30382   30383   30383       0   30385
   30386   30387   30386   30387   30387       0   30389   30390   30391   30390
   30391   30391       0   30393   30394   30395   30394   30395   30395       0
   30397   30398   30399   30398   30399   30399       0   30401   30402   30403
   30402   30403   30403       0   30405   30406   30407   30406   30407   30407
       0   30409   30410   30411   30410   30411   30411       0   30413   30414
   30415   30414   30415   30415       0   30417   30418   30419   30418   30419
   30419       0   30421   30422   30423   30422   30423   30423       0   30425
   30426   30427   30426   30427   30427       0   30429   30430   30431   30430
   30431   30431       0   30433   30434   30435   30434   30435   30435       0
   30437   30438   30439   30438   30439   30439       0   30441   30442   30443
   30442   30443   30443       0   30445   30446   30447   30446   30447   30447
       0   30449   30450   30451   30450   30451   30451       0   30453   30454
   30455   30454   30455   30455       0   30457   30458   30459   30458   30459
   30459       0   30461   30462   30463   30462   30463   30463       0   30465
   30466   30467   30466   30467   30467       0   30469   30470   30471   30470
   30471   30471       0   30473   30474   30475   30474   30475   30475       0
   30477   30478   30479   30478   30479   30479       0   30481   30482   30483
   30482   30483   30483       0   30485   30486   30487   30486   30487   30487
       0   30489   30490   30491   30490   30491   30491       0   30493   30494
   30495   30494   30495   30495       0   30497   30498   30499   30498   30499
   30499       0   30501   30502   30503   30502   30503   30503       0   30505
   30506   30507   30506   30507   30507       0   30509   30510   30511   30510
   30511   30511       0   30513   30514   30515   30514   30515   30515       0
   30517   30518   30519   30518   30519   30519       0   30521   30522   30523
   30522   30523   30523       0   30525   30526   30527   30526   30527   30527
       0   30529   30530   30531   30530   30531   30531       0   30533   30534
   30535   30534   30535   30535       0   30537   30538   30539   30538   30539
   30539       0   30541   30542   30543   30542   30543   30543       0   30545
   30546   30547   30546   30547   30547       0   30549   30550   30551   30550
   30551   30551       0   30553   30554   30555   30554   30555   30555       0
   30557   30558   30559   30558   30559   30559       0   30561   30562   30563
   30562   30563   30563       0   30565   30566   30567   30566   30567   30567
       0   30569   30570   30571   30570   30571   30571       0   30573   30574
   30575   30574   30575   30575       0   30577   30578   30579   30578   30579
   30579       0   30581   30582   30583   30582   30583   30583       0   30585
   30586   30587   30586   30587   30587       0   30589   30590   30591   30590
   30591   30591       0   30593   30594   30595   30594   30595   30595       0
   30597   30598   30599   30598   30599   30599       0   30601   30602   30603
   30602   30603   30603       0   30605   30606   30607   30606   30607   30607
       0   30609   30610   30611   30610   30611   30611       0   30613   30614
   30615   30614   30615   30615       0   30617   30618   30619   30618   30619
   30619       0   30621   30622   30623   30622   30623   30623       0   30625
   30626   30627   30626   30627   30627       0   30629   30630   30631   30630
   30631   30631       0   30633   30634   30635   30634   30635   30635       0
   30637   30638   30639   30638   30639   30639       0   30641   30642   30643
   30642   30643   30643       0   30645   30646   30647   30646   30647   30647
       0   30649   30650   30651   30650   30651   30651       0   30653   30654
   30655   30654   30655   30655       0   30657   30658   30659   30658   30659
   30659       0   30661   30662   30663   30662   30663   30663       0   30665
   30666   30667   30666   30667   30667       0   30669   30670   30671   30670
   30671   30671       0   30673   30674   30675   30674   30675   30675       0
   30677   30678   30679   30678   30679   30679       0   30681   30682   30683
   30682   30683   30683       0   30685   30686   30687   30686   30687   30687
       0   30689   30690   30691   30690   30691   30691       0   30693   30694
   30695   30694   30695   30695       0   30697   30698   30699   30698   30699
   30699       0   30701   30702   30703   30702   30703   30703       0   30705
   30706   30707   30706   30707   30707       0   30709   30710   30711   30710
   30711   30711       0   30713   30714   30715   30714   30715   30715       0
   30717   30718   30719   30718   30719   30719       0   30721   30722   30723
   30722   30723   30723       0   30725   30726   30727   30726   30727   30727
       0   30729   30730   30731   30730   30731   30731       0   30733   30734
   30735   30734   30735   30735       0   30737   30738   30739   30738   30739
   30739       0   30741   30742   30743   30742   30743   30743       0   30745
   30746   30747   30746   30747   30747       0   30749   30750   30751   30750
   30751   30751       0   30753   30754   30755   30754   30755   30755       0
   30757   30758   30759   30758   30759   30759       0   30761   30762   30763
   30762   30763   30763       0   30765   30766   30767   30766   30767   30767
       0   30769   30770   30771   30770   30771   30771       0   30773   30774
   30775   30774   30775   30775       0   30777   30778   30779   30778   30779
   30779       0   30781   30782   30783   30782   30783   30783       0   30785
   30786   30787   30786   30787   30787       0   30789   30790   30791   30790
   30791   30791       0   30793   30794   30795   30794   30795   30795       0
   30797   30798   30799   30798   30799   30799       0   30801   30802   30803
   30802   30803   30803       0   30805   30806   30807   30806   30807   30807
       0   30809   30810   30811   30810   30811   30811       0   30813   30814
   30815   30814   30815   30815       0   30817   30818   30819   30818   30819
   30819       0   30821   30822   30823   30822   30823   30823       0   30825
   30826   30827   30826   30827   30827       0   30829   30830   30831   30830
   30831   30831       0   30833   30834   30835   30834   30835   30835       0
   30837   30838   30839   30838   30839   30839       0   30841   30842   30843
   30842   30843   30843       0   30845   30846   30847   30846   30847   30847
       0   30849   30850   30851   30850   30851   30851       0   30853   30854
   30855   30854   30855   30855       0   30857   30858   30859   30858   30859
   30859       0   30861   30862   30863   30862   30863   30863       0   30865
   30866   30867   30866   30867   30867       0   30869   30870   30871   30870
   30871   30871       0   30873   30874   30875   30874   30875   30875       0
   30877   30878   30879   30878   30879   30879       0   30881   30882   30883
   30882   30883   30883       0   30885   30886   30887   30886   30887   30887
       0   30889   30890   30891   30890   30891   30891       0   30893   30894
   30895   30894   30895   30895       0   30897   30898   30899   30898   30899
   30899       0   30901   30902   30903   30902   30903   30903       0   30905
   30906   30907   30906   30907   30907       0   30909   30910   30911   30910
   30911   30911       0   30913   30914   30915   30914   30915   30915       0
   30917   30918   30919   30918   30919   30919       0   30921   30922   30923
   30922   30923   30923       0   30925   30926   30927   30926   30927   30927
       0   30929   30930   30931   30930   30931   30931       0   30933   30934
   30935   30934   30935   30935       0   30937   30938   30939   30938   30939
   30939       0   30941   30942   30943   30942   30943   30943       0   30945
   30946   30947   30946   30947   30947       0   30949   30950   30951   30950
   30951   30951       0   30953   30954   30955   30954   30955   30955       0
   30957   30958   30959   30958   30959   30959       0   30961   30962   30963
   30962   30963   30963       0   30965   30966   30967   30966   30967   30967
       0   30969   30970   30971   30970   30971   30971       0   30973   30974
   30975   30974   30975   30975       0   30977   30978   30979   30978   30979
   30979       0   30981   30982   30983   30982   30983   30983       0   30985
   30986   30987   30986   30987   30987       0   30989   30990   30991   30990
   30991   30991       0   30993   30994   30995   30994   30995   30995       0
   30997   30998   30999   30998   30999   30999       0   31001   31002   31003
   31002   31003   31003       0   31005   31006   31007   31006   31007   31007
       0   31009   31010   31011   31010   31011   31011       0   31013   31014
   31015   31014   31015   31015       0   31017   31018   31019   31018   31019
   31019       0   31021   31022   31023   31022   31023   31023       0   31025
   31026   31027   31026   31027   31027       0   31029   31030   31031   31030
   31031   31031       0   31033   31034   31035   31034   31035   31035       0
   31037   31038   31039   31038   31039   31039       0   31041   31042   31043
   31042   31043   31043       0   31045   31046   31047   31046   31047   31047
       0   31049   31050   31051   31050   31051   31051       0   31053   31054
   31055   31054   31055   31055       0   31057   31058   31059   31058   31059
   31059       0   31061   31062   31063   31062   31063   31063       0   31065
   31066   31067   31066   31067   31067       0   31069   31070   31071   31070
   31071   31071       0   31073   31074   31075   31074   31075   31075       0
   31077   31078   31079   31078   31079   31079       0   31081   31082   31083
   31082   31083   31083       0   31085   31086   31087   31086   31087   31087
       0   31089   31090   31091   31090   31091   31091       0   31093   31094
   31095   31094   31095   31095       0   31097   31098   31099   31098   31099
   31099       0   31101   31102   31103   31102   31103   31103       0   31105
   31106   31107   31106   31107   31107       0   31109   31110   31111   31110
   31111   31111       0   31113   31114   31115   31114   31115   31115       0
   31117   31118   31119   31118   31119   31119       0   31121   31122   31123
   31122   31123   31123       0   31125   31126   31127   31126   31127   31127
       0   31129   31130   31131   31130   31131   31131       0   31133   31134
   31135   31134   31135   31135       0   31137   31138   31139   31138   31139
   31139       0   31141   31142   31143   31142   31143   31143       0   31145
   31146   31147   31146   31147   31147       0   31149   31150   31151   31150
   31151   31151       0   31153   31154   31155   31154   31155   31155       0
   31157   31158   31159   31158   31159   31159       0   31161   31162   31163
   31162   31163   31163       0   31165   31166   31167   31166   31167   31167
       0   31169   31170   31171   31170   31171   31171       0   31173   31174
   31175   31174   31175   31175       0   31177   31178   31179   31178   31179
   31179       0   31181   31182   31183   31182   31183   31183       0   31185
   31186   31187   31186   31187   31187       0   31189   31190   31191   31190
   31191   31191       0   31193   31194   31195   31194   31195   31195       0
   31197   31198   31199   31198   31199   31199       0   31201   31202   31203
   31202   31203   31203       0   31205   31206   31207   31206   31207   31207
       0   31209   31210   31211   31210   31211   31211       0   31213   31214
   31215   31214   31215   31215       0   31217   31218   31219   31218   31219
   31219       0   31221   31222   31223   31222   31223   31223       0   31225
   31226   31227   31226   31227   31227       0   31229   31230   31231   31230
   31231   31231       0   31233   31234   31235   31234   31235   31235       0
   31237   31238   31239   31238   31239   31239       0   31241   31242   31243
   31242   31243   31243       0   31245   31246   31247   31246   31247   31247
       0   31249   31250   31251   31250   31251   31251       0   31253   31254
   31255   31254   31255   31255       0   31257   31258   31259   31258   31259
   31259       0   31261   31262   31263   31262   31263   31263       0   31265
   31266   31267   31266   31267   31267       0   31269   31270   31271   31270
   31271   31271       0   31273   31274   31275   31274   31275   31275       0
   31277   31278   31279   31278   31279   31279       0   31281   31282   31283
   31282   31283   31283       0   31285   31286   31287   31286   31287   31287
       0   31289   31290   31291   31290   31291   31291       0   31293   31294
   31295   31294   31295   31295       0   31297   31298   31299   31298   31299
   31299       0   31301   31302   31303   31302   31303   31303       0   31305
   31306   31307   31306   31307   31307       0   31309   31310   31311   31310
   31311   31311       0   31313   31314   31315   31314   31315   31315       0
   31317   31318   31319   31318   31319   31319       0   31321   31322   31323
   31322   31323   31323       0   31325   31326   31327   31326   31327   31327
       0   31329   31330   31331   31330   31331   31331       0   31333   31334
   31335   31334   31335   31335       0   31337   31338   31339   31338   31339
   31339       0   31341   31342   31343   31342   31343   31343       0   31345
   31346   31347   31346   31347   31347       0   31349   31350   31351   31350
   31351   31351       0   31353   31354   31355   31354   31355   31355       0
   31357   31358   31359   31358   31359   31359       0   31361   31362   31363
   31362   31363   31363       0   31365   31366   31367   31366   31367   31367
       0   31369   31370   31371   31370   31371   31371       0   31373   31374
   31375   31374   31375   31375       0   31377   31378   31379   31378   31379
   31379       0   31381   31382   31383   31382   31383   31383       0   31385
   31386   31387   31386   31387   31387       0   31389   31390   31391   31390
   31391   31391       0   31393   31394   31395   31394   31395   31395       0
   31397   31398   31399   31398   31399   31399       0   31401   31402   31403
   31402   31403   31403       0   31405   31406   31407   31406   31407   31407
       0   31409   31410   31411   31410   31411   31411       0   31413   31414
   31415   31414   31415   31415       0   31417   31418   31419   31418   31419
   31419       0   31421   31422   31423   31422   31423   31423       0   31425
   31426   31427   31426   31427   31427       0   31429   31430   31431   31430
   31431   31431       0   31433   31434   31435   31434   31435   31435       0
   31437   31438   31439   31438   31439   31439       0   31441   31442   31443
   31442   31443   31443       0   31445   31446   31447   31446   31447   31447
       0   31449   31450   31451   31450   31451   31451       0   31453   31454
   31455   31454   31455   31455       0   31457   31458   31459   31458   31459
   31459       0   31461   31462   31463   31462   31463   31463       0   31465
   31466   31467   31466   31467   31467       0   31469   31470   31471   31470
   31471   31471       0   31473   31474   31475   31474   31475   31475       0
   31477   31478   31479   31478   31479   31479       0   31481   31482   31483
   31482   31483   31483       0   31485   31486   31487   31486   31487   31487
       0   31489   31490   31491   31490   31491   31491       0   31493   31494
   31495   31494   31495   31495       0   31497   31498   31499   31498   31499
   31499       0   31501   31502   31503   31502   31503   31503       0   31505
   31506   31507   31506   31507   31507       0   31509   31510   31511   31510
   31511   31511       0   31513   31514   31515   31514   31515   31515       0
   31517   31518   31519   31518   31519   31519       0   31521   31522   31523
   31522   31523   31523       0   31525   31526   31527   31526   31527   31527
       0   31529   31530   31531   31530   31531   31531       0   31533   31534
   31535   31534   31535   31535       0   31537   31538   31539   31538   31539
   31539       0   31541   31542   31543   31542   31543   31543       0   31545
   31546   31547   31546   31547   31547       0   31549   31550   31551   31550
   31551   31551       0   31553   31554   31555   31554   31555   31555       0
   31557   31558   31559   31558   31559   31559       0   31561   31562   31563
   31562   31563   31563       0   31565   31566   31567   31566   31567   31567
       0   31569   31570   31571   31570   31571   31571       0   31573   31574
   31575   31574   31575   31575       0   31577   31578   31579   31578   31579
   31579       0   31581   31582   31583   31582   31583   31583       0   31585
   31586   31587   31586   31587   31587       0   31589   31590   31591   31590
   31591   31591       0   31593   31594   31595   31594   31595   31595       0
   31597   31598   31599   31598   31599   31599       0   31601   31602   31603
   31602   31603   31603       0   31605   31606   31607   31606   31607   31607
       0   31609   31610   31611   31610   31611   31611       0   31613   31614
   31615   31614   31615   31615       0   31617   31618   31619   31618   31619
   31619       0   31621   31622   31623   31622   31623   31623       0   31625
   31626   31627   31626   31627   31627       0   31629   31630   31631   31630
   31631   31631       0   31633   31634   31635   31634   31635   31635       0
   31637   31638   31639   31638   31639   31639       0   31641   31642   31643
   31642   31643   31643       0   31645   31646   31647   31646   31647   31647
       0   31649   31650   31651   31650   31651   31651       0   31653   31654
   31655   31654   31655   31655       0   31657   31658   31659   31658   31659
   31659       0   31661   31662   31663   31662   31663   31663       0   31665
   31666   31667   31666   31667   31667       0   31669   31670   31671   31670
   31671   31671       0   31673   31674   31675   31674   31675   31675       0
   31677   31678   31679   31678   31679   31679       0   31681   31682   31683
   31682   31683   31683       0   31685   31686   31687   31686   31687   31687
       0   31689   31690   31691   31690   31691   31691       0   31693   31694
   31695   31694   31695   31695       0   31697   31698   31699   31698   31699
   31699       0   31701   31702   31703   31702   31703   31703       0   31705
   31706   31707   31706   31707   31707       0   31709   31710   31711   31710
   31711   31711       0   31713   31714   31715   31714   31715   31715       0
   31717   31718   31719   31718   31719   31719       0   31721   31722   31723
   31722   31723   31723       0   31725   31726   31727   31726   31727   31727
       0   31729   31730   31731   31730   31731   31731       0   31733   31734
   31735   31734   31735   31735       0   31737   31738   31739   31738   31739
   31739       0   31741   31742   31743   31742   31743   31743       0   31745
   31746   31747   31746   31747   31747       0   31749   31750   31751   31750
   31751   31751       0   31753   31754   31755   31754   31755   31755       0
   31757   31758   31759   31758   31759   31759       0   31761   31762   31763
   31762   31763   31763       0   31765   31766   31767   31766   31767   31767
       0   31769   31770   31771   31770   31771   31771       0   31773   31774
   31775   31774   31775   31775       0   31777   31778   31779   31778   31779
   31779       0   31781   31782   31783   31782   31783   31783       0   31785
   31786   31787   31786   31787   31787       0   31789   31790   31791   31790
   31791   31791       0   31793   31794   31795   31794   31795   31795       0
   31797   31798   31799   31798   31799   31799       0   31801   31802   31803
   31802   31803   31803       0   31805   31806   31807   31806   31807   31807
       0   31809   31810   31811   31810   31811   31811       0   31813   31814
   31815   31814   31815   31815       0   31817   31818   31819   31818   31819
   31819       0   31821   31822   31823   31822   31823   31823       0   31825
   31826   31827   31826   31827   31827       0   31829   31830   31831   31830
   31831   31831       0   31833   31834   31835   31834   31835   31835       0
   31837   31838   31839   31838   31839   31839       0   31841   31842   31843
   31842   31843   31843       0   31845   31846   31847   31846   31847   31847
       0   31849   31850   31851   31850   31851   31851       0   31853   31854
   31855   31854   31855   31855       0   31857   31858   31859   31858   31859
   31859       0   31861   31862   31863   31862   31863   31863       0   31865
   31866   31867   31866   31867   31867       0   31869   31870   31871   31870
   31871   31871       0   31873   31874   31875   31874   31875   31875       0
   31877   31878   31879   31878   31879   31879       0   31881   31882   31883
   31882   31883   31883       0   31885   31886   31887   31886   31887   31887
       0   31889   31890   31891   31890   31891   31891       0   31893   31894
   31895   31894   31895   31895       0   31897   31898   31899   31898   31899
   31899       0   31901   31902   31903   31902   31903   31903       0   31905
   31906   31907   31906   31907   31907       0   31909   31910   31911   31910
   31911   31911       0   31913   31914   31915   31914   31915   31915       0
   31917   31918   31919   31918   31919   31919       0   31921   31922   31923
   31922   31923   31923       0   31925   31926   31927   31926   31927   31927
       0   31929   31930   31931   31930   31931   31931       0   31933   31934
   31935   31934   31935   31935       0   31937   31938   31939   31938   31939
   31939       0   31941   31942   31943   31942   31943   31943       0   31945
   31946   31947   31946   31947   31947       0   31949   31950   31951   31950
   31951   31951       0   31953   31954   31955   31954   31955   31955       0
   31957   31958   31959   31958   31959   31959       0   31961   31962   31963
   31962   31963   31963       0   31965   31966   31967   31966   31967   31967
       0   31969   31970   31971   31970   31971   31971       0   31973   31974
   31975   31974   31975   31975       0   31977   31978   31979   31978   31979
   31979       0   31981   31982   31983   31982   31983   31983       0   31985
   31986   31987   31986   31987   31987       0   31989   31990   31991   31990
   31991   31991       0   31993   31994   31995   31994   31995   31995       0
   31997   31998   31999   31998   31999   31999       0   32001   32002   32003
   32002   32003   32003       0   32005   32006   32007   32006   32007   32007
       0   32009   32010   32011   32010   32011   32011       0   32013   32014
   32015   32014   32015   32015       0   32017   32018   32019   32018   32019
   32019       0   32021   32022   32023   32022   32023   32023       0   32025
   32026   32027   32026   32027   32027       0   32029   32030   32031   32030
   32031   32031       0   32033   32034   32035   32034   32035   32035       0
   32037   32038   32039   32038   32039   32039       0   32041   32042   32043
   32042   32043   32043       0   32045   32046   32047   32046   32047   32047
       0   32049   32050   32051   32050   32051   32051       0   32053   32054
   32055   32054   32055   32055       0   32057   32058   32059   32058   32059
   32059       0   32061   32062   32063   32062   32063   32063       0   32065
   32066   32067   32066   32067   32067       0   32069   32070   32071   32070
   32071   32071       0   32073   32074   32075   32074   32075   32075       0
   32077   32078   32079   32078   32079   32079       0   32081   32082   32083
   32082   32083   32083       0   32085   32086   32087   32086   32087   32087
       0   32089   32090   32091   32090   32091   32091       0   32093   32094
   32095   32094   32095   32095       0   32097   32098   32099   32098   32099
   32099       0   32101   32102   32103   32102   32103   32103       0   32105
   32106   32107   32106   32107   32107       0   32109   32110   32111   32110
   32111   32111       0   32113   32114   32115   32114   32115   32115       0
   32117   32118   32119   32118   32119   32119       0   32121   32122   32123
   32122   32123   32123       0   32125   32126   32127   32126   32127   32127
       0   32129   32130   32131   32130   32131   32131       0   32133   32134
   32135   32134   32135   32135       0   32137   32138   32139   32138   32139
   32139       0   32141   32142   32143   32142   32143   32143       0   32145
   32146   32147   32146   32147   32147       0   32149   32150   32151   32150
   32151   32151       0   32153   32154   32155   32154   32155   32155       0
   32157   32158   32159   32158   32159   32159       0   32161   32162   32163
   32162   32163   32163       0   32165   32166   32167   32166   32167   32167
       0   32169   32170   32171   32170   32171   32171       0   32173   32174
   32175   32174   32175   32175       0   32177   32178   32179   32178   32179
   32179       0   32181   32182   32183   32182   32183   32183       0   32185
   32186   32187   32186   32187   32187       0   32189   32190   32191   32190
   32191   32191       0   32193   32194   32195   32194   32195   32195       0
   32197   32198   32199   32198   32199   32199       0   32201   32202   32203
   32202   32203   32203       0   32205   32206   32207   32206   32207   32207
       0   32209   32210   32211   32210   32211   32211       0   32213   32214
   32215   32214   32215   32215       0   32217   32218   32219   32218   32219
   32219       0   32221   32222   32223   32222   32223   32223       0   32225
   32226   32227   32226   32227   32227       0   32229   32230   32231   32230
   32231   32231       0   32233   32234   32235   32234   32235   32235       0
   32237   32238   32239   32238   32239   32239       0   32241   32242   32243
   32242   32243   32243       0   32245   32246   32247   32246   32247   32247
       0   32249   32250   32251   32250   32251   32251       0   32253   32254
   32255   32254   32255   32255       0   32257   32258   32259   32258   32259
   32259       0   32261   32262   32263   32262   32263   32263       0   32265
   32266   32267   32266   32267   32267       0   32269   32270   32271   32270
   32271   32271       0   32273   32274   32275   32274   32275   32275       0
   32277   32278   32279   32278   32279   32279       0   32281   32282   32283
   32282   32283   32283       0   32285   32286   32287   32286   32287   32287
       0   32289   32290   32291   32290   32291   32291       0   32293   32294
   32295   32294   32295   32295       0   32297   32298   32299   32298   32299
   32299       0   32301   32302   32303   32302   32303   32303       0   32305
   32306   32307   32306   32307   32307       0   32309   32310   32311   32310
   32311   32311       0   32313   32314   32315   32314   32315   32315       0
   32317   32318   32319   32318   32319   32319       0   32321   32322   32323
   32322   32323   32323       0   32325   32326   32327   32326   32327   32327
       0   32329   32330   32331   32330   32331   32331       0   32333   32334
   32335   32334   32335   32335       0   32337   32338   32339   32338   32339
   32339       0   32341   32342   32343   32342   32343   32343       0   32345
   32346   32347   32346   32347   32347       0   32349   32350   32351   32350
   32351   32351       0   32353   32354   32355   32354   32355   32355       0
   32357   32358   32359   32358   32359   32359       0   32361   32362   32363
   32362   32363   32363       0   32365   32366   32367   32366   32367   32367
       0   32369   32370   32371   32370   32371   32371       0   32373   32374
   32375   32374   32375   32375       0   32377   32378   32379   32378   32379
   32379       0   32381   32382   32383   32382   32383   32383       0   32385
   32386   32387   32386   32387   32387       0   32389   32390   32391   32390
   32391   32391       0   32393   32394   32395   32394   32395   32395       0
   32397   32398   32399   32398   32399   32399       0   32401   32402   32403
   32402   32403   32403       0   32405   32406   32407   32406   32407   32407
       0   32409   32410   32411   32410   32411   32411       0   32413   32414
   32415   32414   32415   32415       0   32417   32418   32419   32418   32419
   32419       0   32421   32422   32423   32422   32423   32423       0   32425
   32426   32427   32426   32427   32427       0   32429   32430   32431   32430
   32431   32431       0   32433   32434   32435   32434   32435   32435       0
   32437   32438   32439   32438   32439   32439       0   32441   32442   32443
   32442   32443   32443       0   32445   32446   32447   32446   32447   32447
       0   32449   32450   32451   32450   32451   32451       0   32453   32454
   32455   32454   32455   32455       0   32457   32458   32459   32458   32459
   32459       0   32461   32462   32463   32462   32463   32463       0   32465
   32466   32467   32466   32467   32467       0   32469   32470   32471   32470
   32471   32471       0   32473   32474   32475   32474   32475   32475       0
   32477   32478   32479   32478   32479   32479       0   32481   32482   32483
   32482   32483   32483       0   32485   32486   32487   32486   32487   32487
       0   32489   32490   32491   32490   32491   32491       0   32493   32494
   32495   32494   32495   32495       0   32497   32498   32499   32498   32499
   32499       0   32501   32502   32503   32502   32503   32503       0   32505
   32506   32507   32506   32507   32507       0   32509   32510   32511   32510
   32511   32511       0   32513   32514   32515   32514   32515   32515       0
   32517   32518   32519   32518   32519   32519       0   32521   32522   32523
   32522   32523   32523       0   32525   32526   32527   32526   32527   32527
       0   32529   32530   32531   32530   32531   32531       0   32533   32534
   32535   32534   32535   32535       0   32537   32538   32539   32538   32539
   32539       0   32541   32542   32543   32542   32543   32543       0   32545
   32546   32547   32546   32547   32547       0   32549   32550   32551   32550
   32551   32551       0   32553   32554   32555   32554   32555   32555       0
   32557   32558   32559   32558   32559   32559       0   32561   32562   32563
   32562   32563   32563       0   32565   32566   32567   32566   32567   32567
       0   32569   32570   32571   32570   32571   32571       0   32573   32574
   32575   32574   32575   32575       0   32577   32578   32579   32578   32579
   32579       0   32581   32582   32583   32582   32583   32583       0   32585
   32586   32587   32586   32587   32587       0   32589   32590   32591   32590
   32591   32591       0   32593   32594   32595   32594   32595   32595       0
   32597   32598   32599   32598   32599   32599       0   32601   32602   32603
   32602   32603   32603       0   32605   32606   32607   32606   32607   32607
       0   32609   32610   32611   32610   32611   32611       0   32613   32614
   32615   32614   32615   32615       0   32617   32618   32619   32618   32619
   32619       0   32621   32622   32623   32622   32623   32623       0   32625
   32626   32627   32626   32627   32627       0   32629   32630   32631   32630
   32631   32631       0   32633   32634   32635   32634   32635   32635       0
   32637   32638   32639   32638   32639   32639       0   32641   32642   32643
   32642   32643   32643       0   32645   32646   32647   32646   32647   32647
       0   32649   32650   32651   32650   32651   32651       0   32653   32654
   32655   32654   32655   32655       0   32657   32658   32659   32658   32659
   32659       0   32661   32662   32663   32662   32663   32663       0   32665
   32666   32667   32666   32667   32667       0   32669   32670   32671   32670
   32671   32671       0   32673   32674   32675   32674   32675   32675       0
   32677   32678   32679   32678   32679   32679       0   32681   32682   32683
   32682   32683   32683       0   32685   32686   32687   32686   32687   32687
       0   32689   32690   32691   32690   32691   32691       0   32693   32694
   32695   32694   32695   32695       0   32697   32698   32699   32698   32699
   32699       0   32701   32702   32703   32702   32703   32703       0   32705
   32706   32707   32706   32707   32707       0   32709   32710   32711   32710
   32711   32711       0   32713   32714   32715   32714   32715   32715       0
   32717   32718   32719   32718   32719   32719       0   32721   32722   32723
   32722   32723   32723       0   32725   32726   32727   32726   32727   32727
       0   32729   32730   32731   32730   32731   32731       0   32733   32734
   32735   32734   32735   32735       0   32737   32738   32739   32738   32739
   32739       0   32741   32742   32743   32742   32743   32743       0   32745
   32746   32747   32746   32747   32747       0   32749   32750   32751   32750
   32751   32751       0   32753   32754   32755   32754   32755   32755       0
   32757   32758   32759   32758   32759   32759       0   32761   32762   32763
   32762   32763   32763       0   32765   32766   32767   32766   32767   32767
       0   32769   32770   32771   32770   32771   32771       0   32773   32774
   32775   32774   32775   32775       0   32777   32778   32779   32778   32779
   32779       0   32781   32782   32783   32782   32783   32783       0   32785
   32786   32787   32786   32787   32787       0   32789   32790   32791   32790
   32791   32791       0   32793   32794   32795   32794   32795   32795       0
   32797   32798   32799   32798   32799   32799       0   32801   32802   32803
   32802   32803   32803       0   32805   32806   32807   32806   32807   32807
       0   32809   32810   32811   32810   32811   32811       0   32813   32814
   32815   32814   32815   32815       0   32817   32818   32819   32818   32819
   32819       0   32821   32822   32823   32822   32823   32823       0   32825
   32826   32827   32826   32827   32827       0   32829   32830   32831   32830
   32831   32831       0   32833   32834   32835   32834   32835   32835       0
   32837   32838   32839   32838   32839   32839       0   32841   32842   32843
   32842   32843   32843       0   32845   32846   32847   32846   32847   32847
       0   32849   32850   32851   32850   32851   32851       0   32853   32854
   32855   32854   32855   32855       0   32857   32858   32859   32858   32859
   32859       0   32861   32862   32863   32862   32863   32863       0   32865
   32866   32867   32866   32867   32867       0   32869   32870   32871   32870
   32871   32871       0   32873   32874   32875   32874   32875   32875       0
   32877   32878   32879   32878   32879   32879       0   32881   32882   32883
   32882   32883   32883       0   32885   32886   32887   32886   32887   32887
       0   32889   32890   32891   32890   32891   32891       0   32893   32894
   32895   32894   32895   32895       0   32897   32898   32899   32898   32899
   32899       0   32901   32902   32903   32902   32903   32903       0   32905
   32906   32907   32906   32907   32907       0   32909   32910   32911   32910
   32911   32911       0   32913   32914   32915   32914   32915   32915       0
   32917   32918   32919   32918   32919   32919       0   32921   32922   32923
   32922   32923   32923       0   32925   32926   32927   32926   32927   32927
       0   32929   32930   32931   32930   32931   32931       0   32933   32934
   32935   32934   32935   32935       0   32937   32938   32939   32938   32939
   32939       0   32941   32942   32943   32942   32943   32943       0   32945
   32946   32947   32946   32947   32947       0   32949   32950   32951   32950
   32951   32951       0   32953   32954   32955   32954   32955   32955       0
   32957   32958   32959   32958   32959   32959       0   32961   32962   32963
   32962   32963   32963       0   32965   32966   32967   32966   32967   32967
       0   32969   32970   32971   32970   32971   32971       0   32973   32974
   32975   32974   32975   32975       0   32977   32978   32979   32978   32979
   32979       0   32981   32982   32983   32982   32983   32983       0   32985
   32986   32987   32986   32987   32987       0   32989   32990   32991   32990
   32991   32991       0   32993   32994   32995   32994   32995   32995       0
   32997   32998   32999   32998   32999   32999       0   33001   33002   33003
   33002   33003   33003       0   33005   33006   33007   33006   33007   33007
       0   33009   33010   33011   33010   33011   33011       0   33013   33014
   33015   33014   33015   33015       0   33017   33018   33019   33018   33019
   33019       0   33021   33022   33023   33022   33023   33023       0   33025
   33026   33027   33026   33027   33027       0   33029   33030   33031   33030
   33031   33031       0   33033   33034   33035   33034   33035   33035       0
   33037   33038   33039   33038   33039   33039       0   33041   33042   33043
   33042   33043   33043       0   33045   33046   33047   33046   33047   33047
       0   33049   33050   33051   33050   33051   33051       0   33053   33054
   33055   33054   33055   33055       0   33057   33058   33059   33058   33059
   33059       0   33061   33062   33063   33062   33063   33063       0   33065
   33066   33067   33066   33067   33067       0   33069   33070   33071   33070
   33071   33071       0   33073   33074   33075   33074   33075   33075       0
   33077   33078   33079   33078   33079   33079       0   33081   33082   33083
   33082   33083   33083       0   33085   33086   33087   33086   33087   33087
       0   33089   33090   33091   33090   33091   33091       0   33093   33094
   33095   33094   33095   33095       0   33097   33098   33099   33098   33099
   33099       0   33101   33102   33103   33102   33103   33103       0   33105
   33106   33107   33106   33107   33107       0   33109   33110   33111   33110
   33111   33111       0   33113   33114   33115   33114   33115   33115       0
   33117   33118   33119   33118   33119   33119       0   33121   33122   33123
   33122   33123   33123       0   33125   33126   33127   33126   33127   33127
       0   33129   33130   33131   33130   33131   33131       0   33133   33134
   33135   33134   33135   33135       0   33137   33138   33139   33138   33139
   33139       0   33141   33142   33143   33142   33143   33143       0   33145
   33146   33147   33146   33147   33147       0   33149   33150   33151   33150
   33151   33151       0   33153   33154   33155   33154   33155   33155       0
   33157   33158   33159   33158   33159   33159       0   33161   33162   33163
   33162   33163   33163       0   33165   33166   33167   33166   33167   33167
       0   33169   33170   33171   33170   33171   33171       0   33173   33174
   33175   33174   33175   33175       0   33177   33178   33179   33178   33179
   33179       0   33181   33182   33183   33182   33183   33183       0   33185
   33186   33187   33186   33187   33187       0   33189   33190   33191   33190
   33191   33191       0   33193   33194   33195   33194   33195   33195       0
   33197   33198   33199   33198   33199   33199       0   33201   33202   33203
   33202   33203   33203       0   33205   33206   33207   33206   33207   33207
       0   33209   33210   33211   33210   33211   33211       0   33213   33214
   33215   33214   33215   33215       0   33217   33218   33219   33218   33219
   33219       0   33221   33222   33223   33222   33223   33223       0   33225
   33226   33227   33226   33227   33227       0   33229   33230   33231   33230
   33231   33231       0   33233   33234   33235   33234   33235   33235       0
   33237   33238   33239   33238   33239   33239       0   33241   33242   33243
   33242   33243   33243       0   33245   33246   33247   33246   33247   33247
       0   33249   33250   33251   33250   33251   33251       0   33253   33254
   33255   33254   33255   33255       0   33257   33258   33259   33258   33259
   33259       0   33261   33262   33263   33262   33263   33263       0   33265
   33266   33267   33266   33267   33267       0   33269   33270   33271   33270
   33271   33271       0   33273   33274   33275   33274   33275   33275       0
   33277   33278   33279   33278   33279   33279       0   33281   33282   33283
   33282   33283   33283       0   33285   33286   33287   33286   33287   33287
       0   33289   33290   33291   33290   33291   33291       0   33293   33294
   33295   33294   33295   33295       0   33297   33298   33299   33298   33299
   33299       0   33301   33302   33303   33302   33303   33303       0   33305
   33306   33307   33306   33307   33307       0   33309   33310   33311   33310
   33311   33311       0   33313   33314   33315   33314   33315   33315       0
   33317   33318   33319   33318   33319   33319       0   33321   33322   33323
   33322   33323   33323       0   33325   33326   33327   33326   33327   33327
       0   33329   33330   33331   33330   33331   33331       0   33333   33334
   33335   33334   33335   33335       0   33337   33338   33339   33338   33339
   33339       0   33341   33342   33343   33342   33343   33343       0   33345
   33346   33347   33346   33347   33347       0   33349   33350   33351   33350
   33351   33351       0   33353   33354   33355   33354   33355   33355       0
   33357   33358   33359   33358   33359   33359       0   33361   33362   33363
   33362   33363   33363       0   33365   33366   33367   33366   33367   33367
       0   33369   33370   33371   33370   33371   33371       0   33373   33374
   33375   33374   33375   33375       0   33377   33378   33379   33378   33379
   33379       0   33381   33382   33383   33382   33383   33383       0   33385
   33386   33387   33386   33387   33387       0   33389   33390   33391   33390
   33391   33391       0   33393   33394   33395   33394   33395   33395       0
   33397   33398   33399   33398   33399   33399       0   33401   33402   33403
   33402   33403   33403       0   33405   33406   33407   33406   33407   33407
       0   33409   33410   33411   33410   33411   33411       0   33413   33414
   33415   33414   33415   33415       0   33417   33418   33419   33418   33419
   33419       0   33421   33422   33423   33422   33423   33423       0   33425
   33426   33427   33426   33427   33427       0   33429   33430   33431   33430
   33431   33431       0   33433   33434   33435   33434   33435   33435       0
   33437   33438   33439   33438   33439   33439       0   33441   33442   33443
   33442   33443   33443       0   33445   33446   33447   33446   33447   33447
       0   33449   33450   33451   33450   33451   33451       0   33453   33454
   33455   33454   33455   33455       0   33457   33458   33459   33458   33459
   33459       0   33461   33462   33463   33462   33463   33463       0   33465
   33466   33467   33466   33467   33467       0   33469   33470   33471   33470
   33471   33471       0   33473   33474   33475   33474   33475   33475       0
   33477   33478   33479   33478   33479   33479       0   33481   33482   33483
   33482   33483   33483       0   33485   33486   33487   33486   33487   33487
       0   33489   33490   33491   33490   33491   33491       0   33493   33494
   33495   33494   33495   33495       0   33497   33498   33499   33498   33499
   33499       0   33501   33502   33503   33502   33503   33503       0   33505
   33506   33507   33506   33507   33507       0   33509   33510   33511   33510
   33511   33511       0   33513   33514   33515   33514   33515   33515       0
   33517   33518   33519   33518   33519   33519       0   33521   33522   33523
   33522   33523   33523       0   33525   33526   33527   33526   33527   33527
       0   33529   33530   33531   33530   33531   33531       0   33533   33534
   33535   33534   33535   33535       0   33537   33538   33539   33538   33539
   33539       0   33541   33542   33543   33542   33543   33543       0   33545
   33546   33547   33546   33547   33547       0   33549   33550   33551   33550
   33551   33551       0   33553   33554   33555   33554   33555   33555       0
   33557   33558   33559   33558   33559   33559       0   33561   33562   33563
   33562   33563   33563       0   33565   33566   33567   33566   33567   33567
       0   33569   33570   33571   33570   33571   33571       0   33573   33574
   33575   33574   33575   33575       0   33577   33578   33579   33578   33579
   33579       0   33581   33582   33583   33582   33583   33583       0   33585
   33586   33587   33586   33587   33587       0   33589   33590   33591   33590
   33591   33591       0   33593   33594   33595   33594   33595   33595       0
   33597   33598   33599   33598   33599   33599       0   33601   33602   33603
   33602   33603   33603       0   33605   33606   33607   33606   33607   33607
       0   33609   33610   33611   33610   33611   33611       0   33613   33614
   33615   33614   33615   33615       0   33617   33618   33619   33618   33619
   33619       0   33621   33622   33623   33622   33623   33623       0   33625
   33626   33627   33626   33627   33627       0   33629   33630   33631   33630
   33631   33631       0   33633   33634   33635   33634   33635   33635       0
   33637   33638   33639   33638   33639   33639       0   33641   33642   33643
   33642   33643   33643       0   33645   33646   33647   33646   33647   33647
       0   33649   33650   33651   33650   33651   33651       0   33653   33654
   33655   33654   33655   33655       0   33657   33658   33659   33658   33659
   33659       0   33661   33662   33663   33662   33663   33663       0   33665
   33666   33667   33666   33667   33667       0   33669   33670   33671   33670
   33671   33671       0   33673   33674   33675   33674   33675   33675       0
   33677   33678   33679   33678   33679   33679       0   33681   33682   33683
   33682   33683   33683       0   33685   33686   33687   33686   33687   33687
       0   33689   33690   33691   33690   33691   33691       0   33693   33694
   33695   33694   33695   33695       0   33697   33698   33699   33698   33699
   33699       0   33701   33702   33703   33702   33703   33703       0   33705
   33706   33707   33706   33707   33707       0   33709   33710   33711   33710
   33711   33711       0   33713   33714   33715   33714   33715   33715       0
   33717   33718   33719   33718   33719   33719       0   33721   33722   33723
   33722   33723   33723       0   33725   33726   33727   33726   33727   33727
       0   33729   33730   33731   33730   33731   33731       0   33733   33734
   33735   33734   33735   33735       0   33737   33738   33739   33738   33739
   33739       0   33741   33742   33743   33742   33743   33743       0   33745
   33746   33747   33746   33747   33747       0   33749   33750   33751   33750
   33751   33751       0   33753   33754   33755   33754   33755   33755       0
   33757   33758   33759   33758   33759   33759       0   33761   33762   33763
   33762   33763   33763       0   33765   33766   33767   33766   33767   33767
       0   33769   33770   33771   33770   33771   33771       0   33773   33774
   33775   33774   33775   33775       0   33777   33778   33779   33778   33779
   33779       0   33781   33782   33783   33782   33783   33783       0   33785
   33786   33787   33786   33787   33787       0   33789   33790   33791   33790
   33791   33791       0   33793   33794   33795   33794   33795   33795       0
   33797   33798   33799   33798   33799   33799       0   33801   33802   33803
   33802   33803   33803       0   33805   33806   33807   33806   33807   33807
       0   33809   33810   33811   33810   33811   33811       0   33813   33814
   33815   33814   33815   33815       0   33817   33818   33819   33818   33819
   33819       0   33821   33822   33823   33822   33823   33823       0   33825
   33826   33827   33826   33827   33827       0   33829   33830   33831   33830
   33831   33831       0   33833   33834   33835   33834   33835   33835       0
   33837   33838   33839   33838   33839   33839       0   33841   33842   33843
   33842   33843   33843       0   33845   33846   33847   33846   33847   33847
       0   33849   33850   33851   33850   33851   33851       0   33853   33854
   33855   33854   33855   33855       0   33857   33858   33859   33858   33859
   33859       0   33861   33862   33863   33862   33863   33863       0   33865
   33866   33867   33866   33867   33867       0   33869   33870   33871   33870
   33871   33871       0   33873   33874   33875   33874   33875   33875       0
   33877   33878   33879   33878   33879   33879       0   33881   33882   33883
   33882   33883   33883       0   33885   33886   33887   33886   33887   33887
       0   33889   33890   33891   33890   33891   33891       0   33893   33894
   33895   33894   33895   33895       0   33897   33898   33899   33898   33899
   33899       0   33901   33902   33903   33902   33903   33903       0   33905
   33906   33907   33906   33907   33907       0   33909   33910   33911   33910
   33911   33911       0   33913   33914   33915   33914   33915   33915       0
   33917   33918   33919   33918   33919   33919       0   33921   33922   33923
   33922   33923   33923       0   33925   33926   33927   33926   33927   33927
       0   33929   33930   33931   33930   33931   33931       0   33933   33934
   33935   33934   33935   33935       0   33937   33938   33939   33938   33939
   33939       0   33941   33942   33943   33942   33943   33943       0   33945
   33946   33947   33946   33947   33947       0   33949   33950   33951   33950
   33951   33951       0   33953   33954   33955   33954   33955   33955       0
   33957   33958   33959   33958   33959   33959       0   33961   33962   33963
   33962   33963   33963       0   33965   33966   33967   33966   33967   33967
       0   33969   33970   33971   33970   33971   33971       0   33973   33974
   33975   33974   33975   33975       0   33977   33978   33979   33978   33979
   33979       0   33981   33982   33983   33982   33983   33983       0   33985
   33986   33987   33986   33987   33987       0   33989   33990   33991   33990
   33991   33991       0   33993   33994   33995   33994   33995   33995       0
   33997   33998   33999   33998   33999   33999       0   34001   34002   34003
   34002   34003   34003       0   34005   34006   34007   34006   34007   34007
       0   34009   34010   34011   34010   34011   34011       0   34013   34014
   34015   34014   34015   34015       0   34017   34018   34019   34018   34019
   34019       0   34021   34022   34023   34022   34023   34023       0   34025
   34026   34027   34026   34027   34027       0   34029   34030   34031   34030
   34031   34031       0   34033   34034   34035   34034   34035   34035       0
   34037   34038   34039   34038   34039   34039       0   34041   34042   34043
   34042   34043   34043       0   34045   34046   34047   34046   34047   34047
       0   34049   34050   34051   34050   34051   34051       0   34053   34054
   34055   34054   34055   34055       0   34057   34058   34059   34058   34059
   34059       0   34061   34062   34063   34062   34063   34063       0   34065
   34066   34067   34066   34067   34067       0   34069   34070   34071   34070
   34071   34071       0   34073   34074   34075   34074   34075   34075       0
   34077   34078   34079   34078   34079   34079       0   34081   34082   34083
   34082   34083   34083       0   34085   34086   34087   34086   34087   34087
       0   34089   34090   34091   34090   34091   34091       0   34093   34094
   34095   34094   34095   34095       0   34097   34098   34099   34098   34099
   34099       0   34101   34102   34103   34102   34103   34103       0   34105
   34106   34107   34106   34107   34107       0   34109   34110   34111   34110
   34111   34111       0   34113   34114   34115   34114   34115   34115       0
   34117   34118   34119   34118   34119   34119       0   34121   34122   34123
   34122   34123   34123       0   34125   34126   34127   34126   34127   34127
       0   34129   34130   34131   34130   34131   34131       0   34133   34134
   34135   34134   34135   34135       0   34137   34138   34139   34138   34139
   34139       0   34141   34142   34143   34142   34143   34143       0   34145
   34146   34147   34146   34147   34147       0   34149   34150   34151   34150
   34151   34151       0   34153   34154   34155   34154   34155   34155       0
   34157   34158   34159   34158   34159   34159       0   34161   34162   34163
   34162   34163   34163       0   34165   34166   34167   34166   34167   34167
       0   34169   34170   34171   34170   34171   34171       0   34173   34174
   34175   34174   34175   34175       0   34177   34178   34179   34178   34179
   34179       0   34181   34182   34183   34182   34183   34183       0   34185
   34186   34187   34186   34187   34187       0   34189   34190   34191   34190
   34191   34191       0   34193   34194   34195   34194   34195   34195       0
   34197   34198   34199   34198   34199   34199       0   34201   34202   34203
   34202   34203   34203       0   34205   34206   34207   34206   34207   34207
       0   34209   34210   34211   34210   34211   34211       0   34213   34214
   34215   34214   34215   34215       0   34217   34218   34219   34218   34219
   34219       0   34221   34222   34223   34222   34223   34223       0   34225
   34226   34227   34226   34227   34227       0   34229   34230   34231   34230
   34231   34231       0   34233   34234   34235   34234   34235   34235       0
   34237   34238   34239   34238   34239   34239       0   34241   34242   34243
   34242   34243   34243       0   34245   34246   34247   34246   34247   34247
       0   34249   34250   34251   34250   34251   34251       0   34253   34254
   34255   34254   34255   34255       0   34257   34258   34259   34258   34259
   34259       0   34261   34262   34263   34262   34263   34263       0   34265
   34266   34267   34266   34267   34267       0   34269   34270   34271   34270
   34271   34271       0   34273   34274   34275   34274   34275   34275       0
   34277   34278   34279   34278   34279   34279       0   34281   34282   34283
   34282   34283   34283       0   34285   34286   34287   34286   34287   34287
       0   34289   34290   34291   34290   34291   34291       0   34293   34294
   34295   34294   34295   34295       0   34297   34298   34299   34298   34299
   34299       0   34301   34302   34303   34302   34303   34303       0   34305
   34306   34307   34306   34307   34307       0   34309   34310   34311   34310
   34311   34311       0   34313   34314   34315   34314   34315   34315       0
   34317   34318   34319   34318   34319   34319       0   34321   34322   34323
   34322   34323   34323       0   34325   34326   34327   34326   34327   34327
       0   34329   34330   34331   34330   34331   34331       0   34333   34334
   34335   34334   34335   34335       0   34337   34338   34339   34338   34339
   34339       0   34341   34342   34343   34342   34343   34343       0   34345
   34346   34347   34346   34347   34347       0   34349   34350   34351   34350
   34351   34351       0   34353   34354   34355   34354   34355   34355       0
   34357   34358   34359   34358   34359   34359       0   34361   34362   34363
   34362   34363   34363       0   34365   34366   34367   34366   34367   34367
       0   34369   34370   34371   34370   34371   34371       0   34373   34374
   34375   34374   34375   34375       0   34377   34378   34379   34378   34379
   34379       0   34381   34382   34383   34382   34383   34383       0   34385
   34386   34387   34386   34387   34387       0   34389   34390   34391   34390
   34391   34391       0   34393   34394   34395   34394   34395   34395       0
   34397   34398   34399   34398   34399   34399       0   34401   34402   34403
   34402   34403   34403       0   34405   34406   34407   34406   34407   34407
       0   34409   34410   34411   34410   34411   34411       0   34413   34414
   34415   34414   34415   34415       0   34417   34418   34419   34418   34419
   34419       0   34421   34422   34423   34422   34423   34423       0   34425
   34426   34427   34426   34427   34427       0   34429   34430   34431   34430
   34431   34431       0   34433   34434   34435   34434   34435   34435       0
   34437   34438   34439   34438   34439   34439       0   34441   34442   34443
   34442   34443   34443       0   34445   34446   34447   34446   34447   34447
       0   34449   34450   34451   34450   34451   34451       0   34453   34454
   34455   34454   34455   34455       0   34457   34458   34459   34458   34459
   34459       0   34461   34462   34463   34462   34463   34463       0   34465
   34466   34467   34466   34467   34467       0   34469   34470   34471   34470
   34471   34471       0   34473   34474   34475   34474   34475   34475       0
   34477   34478   34479   34478   34479   34479       0   34481   34482   34483
   34482   34483   34483       0   34485   34486   34487   34486   34487   34487
       0   34489   34490   34491   34490   34491   34491       0   34493   34494
   34495   34494   34495   34495       0   34497   34498   34499   34498   34499
   34499       0   34501   34502   34503   34502   34503   34503       0   34505
   34506   34507   34506   34507   34507       0   34509   34510   34511   34510
   34511   34511       0   34513   34514   34515   34514   34515   34515       0
   34517   34518   34519   34518   34519   34519       0   34521   34522   34523
   34522   34523   34523       0   34525   34526   34527   34526   34527   34527
       0   34529   34530   34531   34530   34531   34531       0   34533   34534
   34535   34534   34535   34535       0   34537   34538   34539   34538   34539
   34539       0   34541   34542   34543   34542   34543   34543       0   34545
   34546   34547   34546   34547   34547       0   34549   34550   34551   34550
   34551   34551       0   34553   34554   34555   34554   34555   34555       0
   34557   34558   34559   34558   34559   34559       0   34561   34562   34563
   34562   34563   34563       0   34565   34566   34567   34566   34567   34567
       0   34569   34570   34571   34570   34571   34571       0   34573   34574
   34575   34574   34575   34575       0   34577   34578   34579   34578   34579
   34579       0   34581   34582   34583   34582   34583   34583       0   34585
   34586   34587   34586   34587   34587       0   34589   34590   34591   34590
   34591   34591       0   34593   34594   34595   34594   34595   34595       0
   34597   34598   34599   34598   34599   34599       0   34601   34602   34603
   34602   34603   34603       0   34605   34606   34607   34606   34607   34607
       0   34609   34610   34611   34610   34611   34611       0   34613   34614
   34615   34614   34615   34615       0   34617   34618   34619   34618   34619
   34619       0   34621   34622   34623   34622   34623   34623       0   34625
   34626   34627   34626   34627   34627       0   34629   34630   34631   34630
   34631   34631       0   34633   34634   34635   34634   34635   34635       0
   34637   34638   34639   34638   34639   34639       0   34641   34642   34643
   34642   34643   34643       0   34645   34646   34647   34646   34647   34647
       0   34649   34650   34651   34650   34651   34651       0   34653   34654
   34655   34654   34655   34655       0   34657   34658   34659   34658   34659
   34659       0   34661   34662   34663   34662   34663   34663       0   34665
   34666   34667   34666   34667   34667       0   34669   34670   34671   34670
   34671   34671       0   34673   34674   34675   34674   34675   34675       0
   34677   34678   34679   34678   34679   34679       0   34681   34682   34683
   34682   34683   34683       0   34685   34686   34687   34686   34687   34687
       0   34689   34690   34691   34690   34691   34691       0   34693   34694
   34695   34694   34695   34695       0   34697   34698   34699   34698   34699
   34699       0   34701   34702   34703   34702   34703   34703       0   34705
   34706   34707   34706   34707   34707       0   34709   34710   34711   34710
   34711   34711       0   34713   34714   34715   34714   34715   34715       0
   34717   34718   34719   34718   34719   34719       0   34721   34722   34723
   34722   34723   34723       0   34725   34726   34727   34726   34727   34727
       0   34729   34730   34731   34730   34731   34731       0   34733   34734
   34735   34734   34735   34735       0   34737   34738   34739   34738   34739
   34739       0   34741   34742   34743   34742   34743   34743       0   34745
   34746   34747   34746   34747   34747       0   34749   34750   34751   34750
   34751   34751       0   34753   34754   34755   34754   34755   34755       0
   34757   34758   34759   34758   34759   34759       0   34761   34762   34763
   34762   34763   34763       0   34765   34766   34767   34766   34767   34767
       0   34769   34770   34771   34770   34771   34771       0   34773   34774
   34775   34774   34775   34775       0   34777   34778   34779   34778   34779
   34779       0   34781   34782   34783   34782   34783   34783       0   34785
   34786   34787   34786   34787   34787       0   34789   34790   34791   34790
   34791   34791       0   34793   34794   34795   34794   34795   34795       0
   34797   34798   34799   34798   34799   34799       0   34801   34802   34803
   34802   34803   34803       0   34805   34806   34807   34806   34807   34807
       0   34809   34810   34811   34810   34811   34811       0   34813   34814
   34815   34814   34815   34815       0   34817   34818   34819   34818   34819
   34819       0   34821   34822   34823   34822   34823   34823       0   34825
   34826   34827   34826   34827   34827       0   34829   34830   34831   34830
   34831   34831       0   34833   34834   34835   34834   34835   34835       0
   34837   34838   34839   34838   34839   34839       0   34841   34842   34843
   34842   34843   34843       0   34845   34846   34847   34846   34847   34847
       0   34849   34850   34851   34850   34851   34851       0   34853   34854
   34855   34854   34855   34855       0   34857   34858   34859   34858   34859
   34859       0   34861   34862   34863   34862   34863   34863       0   34865
   34866   34867   34866   34867   34867       0   34869   34870   34871   34870
   34871   34871       0   34873   34874   34875   34874   34875   34875       0
   34877   34878   34879   34878   34879   34879       0   34881   34882   34883
   34882   34883   34883       0   34885   34886   34887   34886   34887   34887
       0   34889   34890   34891   34890   34891   34891       0   34893   34894
   34895   34894   34895   34895       0   34897   34898   34899   34898   34899
   34899       0   34901   34902   34903   34902   34903   34903       0   34905
   34906   34907   34906   34907   34907       0   34909   34910   34911   34910
   34911   34911       0   34913   34914   34915   34914   34915   34915       0
   34917   34918   34919   34918   34919   34919       0   34921   34922   34923
   34922   34923   34923       0   34925   34926   34927   34926   34927   34927
       0   34929   34930   34931   34930   34931   34931       0   34933   34934
   34935   34934   34935   34935       0   34937   34938   34939   34938   34939
   34939       0   34941   34942   34943   34942   34943   34943       0   34945
   34946   34947   34946   34947   34947       0   34949   34950   34951   34950
   34951   34951       0   34953   34954   34955   34954   34955   34955       0
   34957   34958   34959   34958   34959   34959       0   34961   34962   34963
   34962   34963   34963       0   34965   34966   34967   34966   34967   34967
       0   34969   34970   34971   34970   34971   34971       0   34973   34974
   34975   34974   34975   34975       0   34977   34978   34979   34978   34979
   34979       0   34981   34982   34983   34982   34983   34983       0   34985
   34986   34987   34986   34987   34987       0   34989   34990   34991   34990
   34991   34991       0   34993   34994   34995   34994   34995   34995       0
   34997   34998   34999   34998   34999   34999       0   35001   35002   35003
   35002   35003   35003       0   35005   35006   35007   35006   35007   35007
       0   35009   35010   35011   35010   35011   35011       0   35013   35014
   35015   35014   35015   35015       0   35017   35018   35019   35018   35019
   35019       0   35021   35022   35023   35022   35023   35023       0   35025
   35026   35027   35026   35027   35027       0   35029   35030   35031   35030
   35031   35031       0   35033   35034   35035   35034   35035   35035       0
   35037   35038   35039   35038   35039   35039       0   35041   35042   35043
   35042   35043   35043       0   35045   35046   35047   35046   35047   35047
       0   35049   35050   35051   35050   35051   35051       0   35053   35054
   35055   35054   35055   35055       0   35057   35058   35059   35058   35059
   35059       0   35061   35062   35063   35062   35063   35063       0   35065
   35066   35067   35066   35067   35067       0   35069   35070   35071   35070
   35071   35071       0   35073   35074   35075   35074   35075   35075       0
   35077   35078   35079   35078   35079   35079       0   35081   35082   35083
   35082   35083   35083       0   35085   35086   35087   35086   35087   35087
       0   35089   35090   35091   35090   35091   35091       0   35093   35094
   35095   35094   35095   35095       0   35097   35098   35099   35098   35099
   35099       0   35101   35102   35103   35102   35103   35103       0   35105
   35106   35107   35106   35107   35107       0   35109   35110   35111   35110
   35111   35111       0   35113   35114   35115   35114   35115   35115       0
   35117   35118   35119   35118   35119   35119       0   35121   35122   35123
   35122   35123   35123       0   35125   35126   35127   35126   35127   35127
       0   35129   35130   35131   35130   35131   35131       0   35133   35134
   35135   35134   35135   35135       0   35137   35138   35139   35138   35139
   35139       0   35141   35142   35143   35142   35143   35143       0   35145
   35146   35147   35146   35147   35147       0   35149   35150   35151   35150
   35151   35151       0   35153   35154   35155   35154   35155   35155       0
   35157   35158   35159   35158   35159   35159       0   35161   35162   35163
   35162   35163   35163       0   35165   35166   35167   35166   35167   35167
       0   35169   35170   35171   35170   35171   35171       0   35173   35174
   35175   35174   35175   35175       0   35177   35178   35179   35178   35179
   35179       0   35181   35182   35183   35182   35183   35183       0   35185
   35186   35187   35186   35187   35187       0   35189   35190   35191   35190
   35191   35191       0   35193   35194   35195   35194   35195   35195       0
   35197   35198   35199   35198   35199   35199       0   35201   35202   35203
   35202   35203   35203       0   35205   35206   35207   35206   35207   35207
       0   35209   35210   35211   35210   35211   35211       0   35213   35214
   35215   35214   35215   35215       0   35217   35218   35219   35218   35219
   35219       0   35221   35222   35223   35222   35223   35223       0   35225
   35226   35227   35226   35227   35227       0   35229   35230   35231   35230
   35231   35231       0   35233   35234   35235   35234   35235   35235       0
   35237   35238   35239   35238   35239   35239       0   35241   35242   35243
   35242   35243   35243       0   35245   35246   35247   35246   35247   35247
       0   35249   35250   35251   35250   35251   35251       0   35253   35254
   35255   35254   35255   35255       0   35257   35258   35259   35258   35259
   35259       0   35261   35262   35263   35262   35263   35263       0   35265
   35266   35267   35266   35267   35267       0   35269   35270   35271   35270
   35271   35271       0   35273   35274   35275   35274   35275   35275       0
   35277   35278   35279   35278   35279   35279       0   35281   35282   35283
   35282   35283   35283       0   35285   35286   35287   35286   35287   35287
       0   35289   35290   35291   35290   35291   35291       0   35293   35294
   35295   35294   35295   35295       0   35297   35298   35299   35298   35299
   35299       0   35301   35302   35303   35302   35303   35303       0   35305
   35306   35307   35306   35307   35307       0   35309   35310   35311   35310
   35311   35311       0   35313   35314   35315   35314   35315   35315       0
   35317   35318   35319   35318   35319   35319       0   35321   35322   35323
   35322   35323   35323       0   35325   35326   35327   35326   35327   35327
       0   35329   35330   35331   35330   35331   35331       0   35333   35334
   35335   35334   35335   35335       0   35337   35338   35339   35338   35339
   35339       0   35341   35342   35343   35342   35343   35343       0   35345
   35346   35347   35346   35347   35347       0   35349   35350   35351   35350
   35351   35351       0   35353   35354   35355   35354   35355   35355       0
   35357   35358   35359   35358   35359   35359       0   35361   35362   35363
   35362   35363   35363       0   35365   35366   35367   35366   35367   35367
       0   35369   35370   35371   35370   35371   35371       0   35373   35374
   35375   35374   35375   35375       0   35377   35378   35379   35378   35379
   35379       0   35381   35382   35383   35382   35383   35383       0   35385
   35386   35387   35386   35387   35387       0   35389   35390   35391   35390
   35391   35391       0   35393   35394   35395   35394   35395   35395       0
   35397   35398   35399   35398   35399   35399       0   35401   35402   35403
   35402   35403   35403       0   35405   35406   35407   35406   35407   35407
       0   35409   35410   35411   35410   35411   35411       0   35413   35414
   35415   35414   35415   35415       0   35417   35418   35419   35418   35419
   35419       0   35421   35422   35423   35422   35423   35423       0   35425
   35426   35427   35426   35427   35427       0   35429   35430   35431   35430
   35431   35431       0   35433   35434   35435   35434   35435   35435       0
   35437   35438   35439   35438   35439   35439       0   35441   35442   35443
   35442   35443   35443       0   35445   35446   35447   35446   35447   35447
       0   35449   35450   35451   35450   35451   35451       0   35453   35454
   35455   35454   35455   35455       0   35457   35458   35459   35458   35459
   35459       0   35461   35462   35463   35462   35463   35463       0   35465
   35466   35467   35466   35467   35467       0   35469   35470   35471   35470
   35471   35471       0   35473   35474   35475   35474   35475   35475       0
   35477   35478   35479   35478   35479   35479       0   35481   35482   35483
   35482   35483   35483       0   35485   35486   35487   35486   35487   35487
       0   35489   35490   35491   35490   35491   35491       0   35493   35494
   35495   35494   35495   35495       0   35497   35498   35499   35498   35499
   35499       0   35501   35502   35503   35502   35503   35503       0   35505
   35506   35507   35506   35507   35507       0   35509   35510   35511   35510
   35511   35511       0   35513   35514   35515   35514   35515   35515       0
   35517   35518   35519   35518   35519   35519       0   35521   35522   35523
   35522   35523   35523       0   35525   35526   35527   35526   35527   35527
       0   35529   35530   35531   35530   35531   35531       0   35533   35534
   35535   35534   35535   35535       0   35537   35538   35539   35538   35539
   35539       0   35541   35542   35543   35542   35543   35543       0   35545
   35546   35547   35546   35547   35547       0   35549   35550   35551   35550
   35551   35551       0   35553   35554   35555   35554   35555   35555       0
   35557   35558   35559   35558   35559   35559       0   35561   35562   35563
   35562   35563   35563       0   35565   35566   35567   35566   35567   35567
       0   35569   35570   35571   35570   35571   35571       0   35573   35574
   35575   35574   35575   35575       0   35577   35578   35579   35578   35579
   35579       0   35581   35582   35583   35582   35583   35583       0   35585
   35586   35587   35586   35587   35587       0   35589   35590   35591   35590
   35591   35591       0   35593   35594   35595   35594   35595   35595       0
   35597   35598   35599   35598   35599   35599       0   35601   35602   35603
   35602   35603   35603       0   35605   35606   35607   35606   35607   35607
       0   35609   35610   35611   35610   35611   35611       0   35613   35614
   35615   35614   35615   35615       0   35617   35618   35619   35618   35619
   35619       0   35621   35622   35623   35622   35623   35623       0   35625
   35626   35627   35626   35627   35627       0   35629   35630   35631   35630
   35631   35631       0   35633   35634   35635   35634   35635   35635       0
   35637   35638   35639   35638   35639   35639       0   35641   35642   35643
   35642   35643   35643       0   35645   35646   35647   35646   35647   35647
       0   35649   35650   35651   35650   35651   35651       0   35653   35654
   35655   35654   35655   35655       0   35657   35658   35659   35658   35659
   35659       0   35661   35662   35663   35662   35663   35663       0   35665
   35666   35667   35666   35667   35667       0   35669   35670   35671   35670
   35671   35671       0   35673   35674   35675   35674   35675   35675       0
   35677   35678   35679   35678   35679   35679       0   35681   35682   35683
   35682   35683   35683       0   35685   35686   35687   35686   35687   35687
       0   35689   35690   35691   35690   35691   35691       0   35693   35694
   35695   35694   35695   35695       0   35697   35698   35699   35698   35699
   35699       0   35701   35702   35703   35702   35703   35703       0   35705
   35706   35707   35706   35707   35707       0   35709   35710   35711   35710
   35711   35711       0   35713   35714   35715   35714   35715   35715       0
   35717   35718   35719   35718   35719   35719       0   35721   35722   35723
   35722   35723   35723       0   35725   35726   35727   35726   35727   35727
       0   35729   35730   35731   35730   35731   35731       0   35733   35734
   35735   35734   35735   35735       0   35737   35738   35739   35738   35739
   35739       0   35741   35742   35743   35742   35743   35743       0   35745
   35746   35747   35746   35747   35747       0   35749   35750   35751   35750
   35751   35751       0   35753   35754   35755   35754   35755   35755       0
   35757   35758   35759   35758   35759   35759       0   35761   35762   35763
   35762   35763   35763       0   35765   35766   35767   35766   35767   35767
       0   35769   35770   35771   35770   35771   35771       0   35773   35774
   35775   35774   35775   35775       0   35777   35778   35779   35778   35779
   35779       0   35781   35782   35783   35782   35783   35783       0   35785
   35786   35787   35786   35787   35787       0   35789   35790   35791   35790
   35791   35791       0   35793   35794   35795   35794   35795   35795       0
   35797   35798   35799   35798   35799   35799       0   35801   35802   35803
   35802   35803   35803       0   35805   35806   35807   35806   35807   35807
       0   35809   35810   35811   35810   35811   35811       0   35813   35814
   35815   35814   35815   35815       0   35817   35818   35819   35818   35819
   35819       0   35821   35822   35823   35822   35823   35823       0   35825
   35826   35827   35826   35827   35827       0   35829   35830   35831   35830
   35831   35831       0   35833   35834   35835   35834   35835   35835       0
   35837   35838   35839   35838   35839   35839       0   35841   35842   35843
   35842   35843   35843       0   35845   35846   35847   35846   35847   35847
       0   35849   35850   35851   35850   35851   35851       0   35853   35854
   35855   35854   35855   35855       0   35857   35858   35859   35858   35859
   35859       0   35861   35862   35863   35862   35863   35863       0   35865
   35866   35867   35866   35867   35867       0   35869   35870   35871   35870
   35871   35871       0   35873   35874   35875   35874   35875   35875       0
   35877   35878   35879   35878   35879   35879       0   35881   35882   35883
   35882   35883   35883       0   35885   35886   35887   35886   35887   35887
       0   35889   35890   35891   35890   35891   35891       0   35893   35894
   35895   35894   35895   35895       0   35897   35898   35899   35898   35899
   35899       0   35901   35902   35903   35902   35903   35903       0   35905
   35906   35907   35906   35907   35907       0   35909   35910   35911   35910
   35911   35911       0   35913   35914   35915   35914   35915   35915       0
   35917   35918   35919   35918   35919   35919       0   35921   35922   35923
   35922   35923   35923       0   35925   35926   35927   35926   35927   35927
       0   35929   35930   35931   35930   35931   35931       0   35933   35934
   35935   35934   35935   35935       0   35937   35938   35939   35938   35939
   35939       0   35941   35942   35943   35942   35943   35943       0   35945
   35946   35947   35946   35947   35947       0   35949   35950   35951   35950
   35951   35951       0   35953   35954   35955   35954   35955   35955       0
   35957   35958   35959   35958   35959   35959       0   35961   35962   35963
   35962   35963   35963       0   35965   35966   35967   35966   35967   35967
       0   35969   35970   35971   35970   35971   35971       0   35973   35974
   35975   35974   35975   35975       0   35977   35978   35979   35978   35979
   35979       0   35981   35982   35983   35982   35983   35983       0   35985
   35986   35987   35986   35987   35987       0   35989   35990   35991   35990
   35991   35991       0   35993   35994   35995   35994   35995   35995       0
   35997   35998   35999   35998   35999   35999       0   36001   36002   36003
   36002   36003   36003       0   36005   36006   36007   36006   36007   36007
       0   36009   36010   36011   36010   36011   36011       0   36013   36014
   36015   36014   36015   36015       0   36017   36018   36019   36018   36019
   36019       0   36021   36022   36023   36022   36023   36023       0   36025
   36026   36027   36026   36027   36027       0   36029   36030   36031   36030
   36031   36031       0   36033   36034   36035   36034   36035   36035       0
   36037   36038   36039   36038   36039   36039       0   36041   36042   36043
   36042   36043   36043       0   36045   36046   36047   36046   36047   36047
       0   36049   36050   36051   36050   36051   36051       0   36053   36054
   36055   36054   36055   36055       0   36057   36058   36059   36058   36059
   36059       0   36061   36062   36063   36062   36063   36063       0   36065
   36066   36067   36066   36067   36067       0   36069   36070   36071   36070
   36071   36071       0   36073   36074   36075   36074   36075   36075       0
   36077   36078   36079   36078   36079   36079       0   36081   36082   36083
   36082   36083   36083       0   36085   36086   36087   36086   36087   36087
       0   36089   36090   36091   36090   36091   36091       0   36093   36094
   36095   36094   36095   36095       0   36097   36098   36099   36098   36099
   36099       0   36101   36102   36103   36102   36103   36103       0   36105
   36106   36107   36106   36107   36107       0   36109   36110   36111   36110
   36111   36111       0   36113   36114   36115   36114   36115   36115       0
   36117   36118   36119   36118   36119   36119       0   36121   36122   36123
   36122   36123   36123       0   36125   36126   36127   36126   36127   36127
       0   36129   36130   36131   36130   36131   36131       0   36133   36134
   36135   36134   36135   36135       0   36137   36138   36139   36138   36139
   36139       0   36141   36142   36143   36142   36143   36143       0   36145
   36146   36147   36146   36147   36147       0   36149   36150   36151   36150
   36151   36151       0   36153   36154   36155   36154   36155   36155       0
   36157   36158   36159   36158   36159   36159       0   36161   36162   36163
   36162   36163   36163       0   36165   36166   36167   36166   36167   36167
       0   36169   36170   36171   36170   36171   36171       0   36173   36174
   36175   36174   36175   36175       0   36177   36178   36179   36178   36179
   36179       0   36181   36182   36183   36182   36183   36183       0   36185
   36186   36187   36186   36187   36187       0   36189   36190   36191   36190
   36191   36191       0   36193   36194   36195   36194   36195   36195       0
   36197   36198   36199   36198   36199   36199       0   36201   36202   36203
   36202   36203   36203       0   36205   36206   36207   36206   36207   36207
       0   36209   36210   36211   36210   36211   36211       0   36213   36214
   36215   36214   36215   36215       0   36217   36218   36219   36218   36219
   36219       0   36221   36222   36223   36222   36223   36223       0   36225
   36226   36227   36226   36227   36227       0   36229   36230   36231   36230
   36231   36231       0   36233   36234   36235   36234   36235   36235       0
   36237   36238   36239   36238   36239   36239       0   36241   36242   36243
   36242   36243   36243       0   36245   36246   36247   36246   36247   36247
       0   36249   36250   36251   36250   36251   36251       0   36253   36254
   36255   36254   36255   36255       0   36257   36258   36259   36258   36259
   36259       0   36261   36262   36263   36262   36263   36263       0   36265
   36266   36267   36266   36267   36267       0   36269   36270   36271   36270
   36271   36271       0   36273   36274   36275   36274   36275   36275       0
   36277   36278   36279   36278   36279   36279       0   36281   36282   36283
   36282   36283   36283       0   36285   36286   36287   36286   36287   36287
       0   36289   36290   36291   36290   36291   36291       0   36293   36294
   36295   36294   36295   36295       0   36297   36298   36299   36298   36299
   36299       0   36301   36302   36303   36302   36303   36303       0   36305
   36306   36307   36306   36307   36307       0   36309   36310   36311   36310
   36311   36311       0   36313   36314   36315   36314   36315   36315       0
   36317   36318   36319   36318   36319   36319       0   36321   36322   36323
   36322   36323   36323       0   36325   36326   36327   36326   36327   36327
       0   36329   36330   36331   36330   36331   36331       0   36333   36334
   36335   36334   36335   36335       0   36337   36338   36339   36338   36339
   36339       0   36341   36342   36343   36342   36343   36343       0   36345
   36346   36347   36346   36347   36347       0   36349   36350   36351   36350
   36351   36351       0   36353   36354   36355   36354   36355   36355       0
   36357   36358   36359   36358   36359   36359       0   36361   36362   36363
   36362   36363   36363       0   36365   36366   36367   36366   36367   36367
       0   36369   36370   36371   36370   36371   36371       0   36373   36374
   36375   36374   36375   36375       0   36377   36378   36379   36378   36379
   36379       0   36381   36382   36383   36382   36383   36383       0   36385
   36386   36387   36386   36387   36387       0   36389   36390   36391   36390
   36391   36391       0   36393   36394   36395   36394   36395   36395       0
   36397   36398   36399   36398   36399   36399       0   36401   36402   36403
   36402   36403   36403       0   36405   36406   36407   36406   36407   36407
       0   36409   36410   36411   36410   36411   36411       0   36413   36414
   36415   36414   36415   36415       0   36417   36418   36419   36418   36419
   36419       0   36421   36422   36423   36422   36423   36423       0   36425
   36426   36427   36426   36427   36427       0   36429   36430   36431   36430
   36431   36431       0   36433   36434   36435   36434   36435   36435       0
   36437   36438   36439   36438   36439   36439       0   36441   36442   36443
   36442   36443   36443       0   36445   36446   36447   36446   36447   36447
       0   36449   36450   36451   36450   36451   36451       0   36453   36454
   36455   36454   36455   36455       0   36457   36458   36459   36458   36459
   36459       0   36461   36462   36463   36462   36463   36463       0   36465
   36466   36467   36466   36467   36467       0   36469   36470   36471   36470
   36471   36471       0   36473   36474   36475   36474   36475   36475       0
   36477   36478   36479   36478   36479   36479       0   36481   36482   36483
   36482   36483   36483       0   36485   36486   36487   36486   36487   36487
       0   36489   36490   36491   36490   36491   36491       0   36493   36494
   36495   36494   36495   36495       0   36497   36498   36499   36498   36499
   36499       0   36501   36502   36503   36502   36503   36503       0   36505
   36506   36507   36506   36507   36507       0   36509   36510   36511   36510
   36511   36511       0   36513   36514   36515   36514   36515   36515       0
   36517   36518   36519   36518   36519   36519       0   36521   36522   36523
   36522   36523   36523       0   36525   36526   36527   36526   36527   36527
       0   36529   36530   36531   36530   36531   36531       0   36533   36534
   36535   36534   36535   36535       0   36537   36538   36539   36538   36539
   36539       0   36541   36542   36543   36542   36543   36543       0   36545
   36546   36547   36546   36547   36547       0   36549   36550   36551   36550
   36551   36551       0   36553   36554   36555   36554   36555   36555       0
   36557   36558   36559   36558   36559   36559       0   36561   36562   36563
   36562   36563   36563       0   36565   36566   36567   36566   36567   36567
       0   36569   36570   36571   36570   36571   36571       0   36573   36574
   36575   36574   36575   36575       0   36577   36578   36579   36578   36579
   36579       0   36581   36582   36583   36582   36583   36583       0   36585
   36586   36587   36586   36587   36587       0   36589   36590   36591   36590
   36591   36591       0   36593   36594   36595   36594   36595   36595       0
   36597   36598   36599   36598   36599   36599       0   36601   36602   36603
   36602   36603   36603       0   36605   36606   36607   36606   36607   36607
       0   36609   36610   36611   36610   36611   36611       0   36613   36614
   36615   36614   36615   36615       0   36617   36618   36619   36618   36619
   36619       0   36621   36622   36623   36622   36623   36623       0   36625
   36626   36627   36626   36627   36627       0   36629   36630   36631   36630
   36631   36631       0   36633   36634   36635   36634   36635   36635       0
   36637   36638   36639   36638   36639   36639       0   36641   36642   36643
   36642   36643   36643       0   36645   36646   36647   36646   36647   36647
       0   36649   36650   36651   36650   36651   36651       0   36653   36654
   36655   36654   36655   36655       0   36657   36658   36659   36658   36659
   36659       0   36661   36662   36663   36662   36663   36663       0   36665
   36666   36667   36666   36667   36667       0   36669   36670   36671   36670
   36671   36671       0   36673   36674   36675   36674   36675   36675       0
   36677   36678   36679   36678   36679   36679       0   36681   36682   36683
   36682   36683   36683       0   36685   36686   36687   36686   36687   36687
       0   36689   36690   36691   36690   36691   36691       0   36693   36694
   36695   36694   36695   36695       0   36697   36698   36699   36698   36699
   36699       0   36701   36702   36703   36702   36703   36703       0   36705
   36706   36707   36706   36707   36707       0   36709   36710   36711   36710
   36711   36711       0   36713   36714   36715   36714   36715   36715       0
   36717   36718   36719   36718   36719   36719       0   36721   36722   36723
   36722   36723   36723       0   36725   36726   36727   36726   36727   36727
       0   36729   36730   36731   36730   36731   36731       0   36733   36734
   36735   36734   36735   36735       0   36737   36738   36739   36738   36739
   36739       0   36741   36742   36743   36742   36743   36743       0   36745
   36746   36747   36746   36747   36747       0   36749   36750   36751   36750
   36751   36751       0   36753   36754   36755   36754   36755   36755       0
   36757   36758   36759   36758   36759   36759       0   36761   36762   36763
   36762   36763   36763       0   36765   36766   36767   36766   36767   36767
       0   36769   36770   36771   36770   36771   36771       0   36773   36774
   36775   36774   36775   36775       0   36777   36778   36779   36778   36779
   36779       0   36781   36782   36783   36782   36783   36783       0   36785
   36786   36787   36786   36787   36787       0   36789   36790   36791   36790
   36791   36791       0   36793   36794   36795   36794   36795   36795       0
   36797   36798   36799   36798   36799   36799       0   36801   36802   36803
   36802   36803   36803       0   36805   36806   36807   36806   36807   36807
       0   36809   36810   36811   36810   36811   36811       0   36813   36814
   36815   36814   36815   36815       0   36817   36818   36819   36818   36819
   36819       0   36821   36822   36823   36822   36823   36823       0   36825
   36826   36827   36826   36827   36827       0   36829   36830   36831   36830
   36831   36831       0   36833   36834   36835   36834   36835   36835       0
   36837   36838   36839   36838   36839   36839       0   36841   36842   36843
   36842   36843   36843       0   36845   36846   36847   36846   36847   36847
       0   36849   36850   36851   36850   36851   36851       0   36853   36854
   36855   36854   36855   36855       0   36857   36858   36859   36858   36859
   36859       0   36861   36862   36863   36862   36863   36863       0   36865
   36866   36867   36866   36867   36867       0   36869   36870   36871   36870
   36871   36871       0   36873   36874   36875   36874   36875   36875       0
   36877   36878   36879   36878   36879   36879       0   36881   36882   36883
   36882   36883   36883       0   36885   36886   36887   36886   36887   36887
       0   36889   36890   36891   36890   36891   36891       0   36893   36894
   36895   36894   36895   36895       0   36897   36898   36899   36898   36899
   36899       0   36901   36902   36903   36902   36903   36903       0   36905
   36906   36907   36906   36907   36907       0   36909   36910   36911   36910
   36911   36911       0   36913   36914   36915   36914   36915   36915       0
   36917   36918   36919   36918   36919   36919       0   36921   36922   36923
   36922   36923   36923       0   36925   36926   36927   36926   36927   36927
       0   36929   36930   36931   36930   36931   36931       0   36933   36934
   36935   36934   36935   36935       0   36937   36938   36939   36938   36939
   36939       0   36941   36942   36943   36942   36943   36943       0   36945
   36946   36947   36946   36947   36947       0   36949   36950   36951   36950
   36951   36951       0   36953   36954   36955   36954   36955   36955       0
   36957   36958   36959   36958   36959   36959       0   36961   36962   36963
   36962   36963   36963       0   36965   36966   36967   36966   36967   36967
       0   36969   36970   36971   36970   36971   36971       0   36973   36974
   36975   36974   36975   36975       0   36977   36978   36979   36978   36979
   36979       0   36981   36982   36983   36982   36983   36983       0   36985
   36986   36987   36986   36987   36987       0   36989   36990   36991   36990
   36991   36991       0   36993   36994   36995   36994   36995   36995       0
   36997   36998   36999   36998   36999   36999       0   37001   37002   37003
   37002   37003   37003       0   37005   37006   37007   37006   37007   37007
       0   37009   37010   37011   37010   37011   37011       0   37013   37014
   37015   37014   37015   37015       0   37017   37018   37019   37018   37019
   37019       0   37021   37022   37023   37022   37023   37023       0   37025
   37026   37027   37026   37027   37027       0   37029   37030   37031   37030
   37031   37031       0   37033   37034   37035   37034   37035   37035       0
   37037   37038   37039   37038   37039   37039       0   37041   37042   37043
   37042   37043   37043       0   37045   37046   37047   37046   37047   37047
       0   37049   37050   37051   37050   37051   37051       0   37053   37054
   37055   37054   37055   37055       0   37057   37058   37059   37058   37059
   37059       0   37061   37062   37063   37062   37063   37063       0   37065
   37066   37067   37066   37067   37067       0   37069   37070   37071   37070
   37071   37071       0   37073   37074   37075   37074   37075   37075       0
   37077   37078   37079   37078   37079   37079       0   37081   37082   37083
   37082   37083   37083       0   37085   37086   37087   37086   37087   37087
       0   37089   37090   37091   37090   37091   37091       0   37093   37094
   37095   37094   37095   37095       0   37097   37098   37099   37098   37099
   37099       0   37101   37102   37103   37102   37103   37103       0   37105
   37106   37107   37106   37107   37107       0   37109   37110   37111   37110
   37111   37111       0   37113   37114   37115   37114   37115   37115       0
   37117   37118   37119   37118   37119   37119       0   37121   37122   37123
   37122   37123   37123       0   37125   37126   37127   37126   37127   37127
       0   37129   37130   37131   37130   37131   37131       0   37133   37134
   37135   37134   37135   37135       0   37137   37138   37139   37138   37139
   37139       0   37141   37142   37143   37142   37143   37143       0   37145
   37146   37147   37146   37147   37147       0   37149   37150   37151   37150
   37151   37151       0   37153   37154   37155   37154   37155   37155       0
   37157   37158   37159   37158   37159   37159       0   37161   37162   37163
   37162   37163   37163       0   37165   37166   37167   37166   37167   37167
       0   37169   37170   37171   37170   37171   37171       0   37173   37174
   37175   37174   37175   37175       0   37177   37178   37179   37178   37179
   37179       0   37181   37182   37183   37182   37183   37183       0   37185
   37186   37187   37186   37187   37187       0   37189   37190   37191   37190
   37191   37191       0   37193   37194   37195   37194   37195   37195       0
   37197   37198   37199   37198   37199   37199       0   37201   37202   37203
   37202   37203   37203       0   37205   37206   37207   37206   37207   37207
       0   37209   37210   37211   37210   37211   37211       0   37213   37214
   37215   37214   37215   37215       0   37217   37218   37219   37218   37219
   37219       0   37221   37222   37223   37222   37223   37223       0   37225
   37226   37227   37226   37227   37227       0   37229   37230   37231   37230
   37231   37231       0   37233   37234   37235   37234   37235   37235       0
   37237   37238   37239   37238   37239   37239       0   37241   37242   37243
   37242   37243   37243       0   37245   37246   37247   37246   37247   37247
       0   37249   37250   37251   37250   37251   37251       0   37253   37254
   37255   37254   37255   37255       0   37257   37258   37259   37258   37259
   37259       0   37261   37262   37263   37262   37263   37263       0   37265
   37266   37267   37266   37267   37267       0   37269   37270   37271   37270
   37271   37271       0   37273   37274   37275   37274   37275   37275       0
   37277   37278   37279   37278   37279   37279       0   37281   37282   37283
   37282   37283   37283       0   37285   37286   37287   37286   37287   37287
       0   37289   37290   37291   37290   37291   37291       0   37293   37294
   37295   37294   37295   37295       0   37297   37298   37299   37298   37299
   37299       0   37301   37302   37303   37302   37303   37303       0   37305
   37306   37307   37306   37307   37307       0   37309   37310   37311   37310
   37311   37311       0   37313   37314   37315   37314   37315   37315       0
   37317   37318   37319   37318   37319   37319       0   37321   37322   37323
   37322   37323   37323       0   37325   37326   37327   37326   37327   37327
       0   37329   37330   37331   37330   37331   37331       0   37333   37334
   37335   37334   37335   37335       0   37337   37338   37339   37338   37339
   37339       0   37341   37342   37343   37342   37343   37343       0   37345
   37346   37347   37346   37347   37347       0   37349   37350   37351   37350
   37351   37351       0   37353   37354   37355   37354   37355   37355       0
   37357   37358   37359   37358   37359   37359       0   37361   37362   37363
   37362   37363   37363       0   37365   37366   37367   37366   37367   37367
       0   37369   37370   37371   37370   37371   37371       0   37373   37374
   37375   37374   37375   37375       0   37377   37378   37379   37378   37379
   37379       0   37381   37382   37383   37382   37383   37383       0   37385
   37386   37387   37386   37387   37387       0   37389   37390   37391   37390
   37391   37391       0   37393   37394   37395   37394   37395   37395       0
   37397   37398   37399   37398   37399   37399       0   37401   37402   37403
   37402   37403   37403       0   37405   37406   37407   37406   37407   37407
       0   37409   37410   37411   37410   37411   37411       0   37413   37414
   37415   37414   37415   37415       0   37417   37418   37419   37418   37419
   37419       0   37421   37422   37423   37422   37423   37423       0   37425
   37426   37427   37426   37427   37427       0   37429   37430   37431   37430
   37431   37431       0   37433   37434   37435   37434   37435   37435       0
   37437   37438   37439   37438   37439   37439       0   37441   37442   37443
   37442   37443   37443       0   37445   37446   37447   37446   37447   37447
       0   37449   37450   37451   37450   37451   37451       0   37453   37454
   37455   37454   37455   37455       0   37457   37458   37459   37458   37459
   37459       0   37461   37462   37463   37462   37463   37463       0   37465
   37466   37467   37466   37467   37467       0   37469   37470   37471   37470
   37471   37471       0   37473   37474   37475   37474   37475   37475       0
   37477   37478   37479   37478   37479   37479       0   37481   37482   37483
   37482   37483   37483       0   37485   37486   37487   37486   37487   37487
       0   37489   37490   37491   37490   37491   37491       0   37493   37494
   37495   37494   37495   37495       0   37497   37498   37499   37498   37499
   37499       0   37501   37502   37503   37502   37503   37503       0   37505
   37506   37507   37506   37507   37507       0   37509   37510   37511   37510
   37511   37511       0   37513   37514   37515   37514   37515   37515       0
   37517   37518   37519   37518   37519   37519       0   37521   37522   37523
   37522   37523   37523       0   37525   37526   37527   37526   37527   37527
       0   37529   37530   37531   37530   37531   37531       0   37533   37534
   37535   37534   37535   37535       0   37537   37538   37539   37538   37539
   37539       0   37541   37542   37543   37542   37543   37543       0   37545
   37546   37547   37546   37547   37547       0   37549   37550   37551   37550
   37551   37551       0   37553   37554   37555   37554   37555   37555       0
   37557   37558   37559   37558   37559   37559       0   37561   37562   37563
   37562   37563   37563       0   37565   37566   37567   37566   37567   37567
       0   37569   37570   37571   37570   37571   37571       0   37573   37574
   37575   37574   37575   37575       0   37577   37578   37579   37578   37579
   37579       0   37581   37582   37583   37582   37583   37583       0   37585
   37586   37587   37586   37587   37587       0   37589   37590   37591   37590
   37591   37591       0   37593   37594   37595   37594   37595   37595       0
   37597   37598   37599   37598   37599   37599       0   37601   37602   37603
   37602   37603   37603       0   37605   37606   37607   37606   37607   37607
       0   37609   37610   37611   37610   37611   37611       0   37613   37614
   37615   37614   37615   37615       0   37617   37618   37619   37618   37619
   37619       0   37621   37622   37623   37622   37623   37623       0   37625
   37626   37627   37626   37627   37627       0   37629   37630   37631   37630
   37631   37631       0   37633   37634   37635   37634   37635   37635       0
   37637   37638   37639   37638   37639   37639       0   37641   37642   37643
   37642   37643   37643       0   37645   37646   37647   37646   37647   37647
       0   37649   37650   37651   37650   37651   37651       0   37653   37654
   37655   37654   37655   37655       0   37657   37658   37659   37658   37659
   37659       0   37661   37662   37663   37662   37663   37663       0   37665
   37666   37667   37666   37667   37667       0   37669   37670   37671   37670
   37671   37671       0   37673   37674   37675   37674   37675   37675       0
   37677   37678   37679   37678   37679   37679       0   37681   37682   37683
   37682   37683   37683       0   37685   37686   37687   37686   37687   37687
       0   37689   37690   37691   37690   37691   37691       0   37693   37694
   37695   37694   37695   37695       0   37697   37698   37699   37698   37699
   37699       0   37701   37702   37703   37702   37703   37703       0   37705
   37706   37707   37706   37707   37707       0   37709   37710   37711   37710
   37711   37711       0   37713   37714   37715   37714   37715   37715       0
   37717   37718   37719   37718   37719   37719       0   37721   37722   37723
   37722   37723   37723       0   37725   37726   37727   37726   37727   37727
       0   37729   37730   37731   37730   37731   37731       0   37733   37734
   37735   37734   37735   37735       0   37737   37738   37739   37738   37739
   37739       0   37741   37742   37743   37742   37743   37743       0   37745
   37746   37747   37746   37747   37747       0   37749   37750   37751   37750
   37751   37751       0   37753   37754   37755   37754   37755   37755       0
   37757   37758   37759   37758   37759   37759       0   37761   37762   37763
   37762   37763   37763       0   37765   37766   37767   37766   37767   37767
       0   37769   37770   37771   37770   37771   37771       0   37773   37774
   37775   37774   37775   37775       0   37777   37778   37779   37778   37779
   37779       0   37781   37782   37783   37782   37783   37783       0   37785
   37786   37787   37786   37787   37787       0   37789   37790   37791   37790
   37791   37791       0   37793   37794   37795   37794   37795   37795       0
   37797   37798   37799   37798   37799   37799       0   37801   37802   37803
   37802   37803   37803       0   37805   37806   37807   37806   37807   37807
       0   37809   37810   37811   37810   37811   37811       0   37813   37814
   37815   37814   37815   37815       0   37817   37818   37819   37818   37819
   37819       0   37821   37822   37823   37822   37823   37823       0   37825
   37826   37827   37826   37827   37827       0   37829   37830   37831   37830
   37831   37831       0   37833   37834   37835   37834   37835   37835       0
   37837   37838   37839   37838   37839   37839       0   37841   37842   37843
   37842   37843   37843       0   37845   37846   37847   37846   37847   37847
       0   37849   37850   37851   37850   37851   37851       0   37853   37854
   37855   37854   37855   37855       0   37857   37858   37859   37858   37859
   37859       0   37861   37862   37863   37862   37863   37863       0   37865
   37866   37867   37866   37867   37867       0   37869   37870   37871   37870
   37871   37871       0   37873   37874   37875   37874   37875   37875       0
   37877   37878   37879   37878   37879   37879       0   37881   37882   37883
   37882   37883   37883       0   37885   37886   37887   37886   37887   37887
       0   37889   37890   37891   37890   37891   37891       0   37893   37894
   37895   37894   37895   37895       0   37897   37898   37899   37898   37899
   37899       0   37901   37902   37903   37902   37903   37903       0   37905
   37906   37907   37906   37907   37907       0   37909   37910   37911   37910
   37911   37911       0   37913   37914   37915   37914   37915   37915       0
   37917   37918   37919   37918   37919   37919       0   37921   37922   37923
   37922   37923   37923       0   37925   37926   37927   37926   37927   37927
       0   37929   37930   37931   37930   37931   37931       0   37933   37934
   37935   37934   37935   37935       0   37937   37938   37939   37938   37939
   37939       0   37941   37942   37943   37942   37943   37943       0   37945
   37946   37947   37946   37947   37947       0   37949   37950   37951   37950
   37951   37951       0   37953   37954   37955   37954   37955   37955       0
   37957   37958   37959   37958   37959   37959       0   37961   37962   37963
   37962   37963   37963       0   37965   37966   37967   37966   37967   37967
       0   37969   37970   37971   37970   37971   37971       0   37973   37974
   37975   37974   37975   37975       0   37977   37978   37979   37978   37979
   37979       0   37981   37982   37983   37982   37983   37983       0   37985
   37986   37987   37986   37987   37987       0   37989   37990   37991   37990
   37991   37991       0   37993   37994   37995   37994   37995   37995       0
   37997   37998   37999   37998   37999   37999       0   38001   38002   38003
   38002   38003   38003       0   38005   38006   38007   38006   38007   38007
       0   38009   38010   38011   38010   38011   38011       0   38013   38014
   38015   38014   38015   38015       0   38017   38018   38019   38018   38019
   38019       0   38021   38022   38023   38022   38023   38023       0   38025
   38026   38027   38026   38027   38027       0   38029   38030   38031   38030
   38031   38031       0   38033   38034   38035   38034   38035   38035       0
   38037   38038   38039   38038   38039   38039       0   38041   38042   38043
   38042   38043   38043       0   38045   38046   38047   38046   38047   38047
       0   38049   38050   38051   38050   38051   38051       0   38053   38054
   38055   38054   38055   38055       0   38057   38058   38059   38058   38059
   38059       0   38061   38062   38063   38062   38063   38063       0   38065
   38066   38067   38066   38067   38067       0   38069   38070   38071   38070
   38071   38071       0   38073   38074   38075   38074   38075   38075       0
   38077   38078   38079   38078   38079   38079       0   38081   38082   38083
   38082   38083   38083       0   38085   38086   38087   38086   38087   38087
       0   38089   38090   38091   38090   38091   38091       0   38093   38094
   38095   38094   38095   38095       0   38097   38098   38099   38098   38099
   38099       0   38101   38102   38103   38102   38103   38103       0   38105
   38106   38107   38106   38107   38107       0   38109   38110   38111   38110
   38111   38111       0   38113   38114   38115   38114   38115   38115       0
   38117   38118   38119   38118   38119   38119       0   38121   38122   38123
   38122   38123   38123       0   38125   38126   38127   38126   38127   38127
       0   38129   38130   38131   38130   38131   38131       0   38133   38134
   38135   38134   38135   38135       0   38137   38138   38139   38138   38139
   38139       0   38141   38142   38143   38142   38143   38143       0   38145
   38146   38147   38146   38147   38147       0   38149   38150   38151   38150
   38151   38151       0   38153   38154   38155   38154   38155   38155       0
   38157   38158   38159   38158   38159   38159       0   38161   38162   38163
   38162   38163   38163       0   38165   38166   38167   38166   38167   38167
       0   38169   38170   38171   38170   38171   38171       0   38173   38174
   38175   38174   38175   38175       0   38177   38178   38179   38178   38179
   38179       0   38181   38182   38183   38182   38183   38183       0   38185
   38186   38187   38186   38187   38187       0   38189   38190   38191   38190
   38191   38191       0   38193   38194   38195   38194   38195   38195       0
   38197   38198   38199   38198   38199   38199       0   38201   38202   38203
   38202   38203   38203       0   38205   38206   38207   38206   38207   38207
       0   38209   38210   38211   38210   38211   38211       0   38213   38214
   38215   38214   38215   38215       0   38217   38218   38219   38218   38219
   38219       0   38221   38222   38223   38222   38223   38223       0   38225
   38226   38227   38226   38227   38227       0   38229   38230   38231   38230
   38231   38231       0   38233   38234   38235   38234   38235   38235       0
   38237   38238   38239   38238   38239   38239       0   38241   38242   38243
   38242   38243   38243       0   38245   38246   38247   38246   38247   38247
       0   38249   38250   38251   38250   38251   38251       0   38253   38254
   38255   38254   38255   38255       0   38257   38258   38259   38258   38259
   38259       0   38261   38262   38263   38262   38263   38263       0   38265
   38266   38267   38266   38267   38267       0   38269   38270   38271   38270
   38271   38271       0   38273   38274   38275   38274   38275   38275       0
   38277   38278   38279   38278   38279   38279       0   38281   38282   38283
   38282   38283   38283       0   38285   38286   38287   38286   38287   38287
       0   38289   38290   38291   38290   38291   38291       0   38293   38294
   38295   38294   38295   38295       0   38297   38298   38299   38298   38299
   38299       0   38301   38302   38303   38302   38303   38303       0   38305
   38306   38307   38306   38307   38307       0   38309   38310   38311   38310
   38311   38311       0   38313   38314   38315   38314   38315   38315       0
   38317   38318   38319   38318   38319   38319       0   38321   38322   38323
   38322   38323   38323       0   38325   38326   38327   38326   38327   38327
       0   38329   38330   38331   38330   38331   38331       0   38333   38334
   38335   38334   38335   38335       0   38337   38338   38339   38338   38339
   38339       0   38341   38342   38343   38342   38343   38343       0   38345
   38346   38347   38346   38347   38347       0   38349   38350   38351   38350
   38351   38351       0   38353   38354   38355   38354   38355   38355       0
   38357   38358   38359   38358   38359   38359       0   38361   38362   38363
   38362   38363   38363       0   38365   38366   38367   38366   38367   38367
       0   38369   38370   38371   38370   38371   38371       0   38373   38374
   38375   38374   38375   38375       0   38377   38378   38379   38378   38379
   38379       0   38381   38382   38383   38382   38383   38383       0   38385
   38386   38387   38386   38387   38387       0   38389   38390   38391   38390
   38391   38391       0   38393   38394   38395   38394   38395   38395       0
   38397   38398   38399   38398   38399   38399       0   38401   38402   38403
   38402   38403   38403       0   38405   38406   38407   38406   38407   38407
       0   38409   38410   38411   38410   38411   38411       0   38413   38414
   38415   38414   38415   38415       0   38417   38418   38419   38418   38419
   38419       0   38421   38422   38423   38422   38423   38423       0   38425
   38426   38427   38426   38427   38427       0   38429   38430   38431   38430
   38431   38431       0   38433   38434   38435   38434   38435   38435       0
   38437   38438   38439   38438   38439   38439       0   38441   38442   38443
   38442   38443   38443       0   38445   38446   38447   38446   38447   38447
       0   38449   38450   38451   38450   38451   38451       0   38453   38454
   38455   38454   38455   38455       0   38457   38458   38459   38458   38459
   38459       0   38461   38462   38463   38462   38463   38463       0   38465
   38466   38467   38466   38467   38467       0   38469   38470   38471   38470
   38471   38471       0   38473   38474   38475   38474   38475   38475       0
   38477   38478   38479   38478   38479   38479       0   38481   38482   38483
   38482   38483   38483       0   38485   38486   38487   38486   38487   38487
       0   38489   38490   38491   38490   38491   38491       0   38493   38494
   38495   38494   38495   38495       0   38497   38498   38499   38498   38499
   38499       0   38501   38502   38503   38502   38503   38503       0   38505
   38506   38507   38506   38507   38507       0   38509   38510   38511   38510
   38511   38511       0   38513   38514   38515   38514   38515   38515       0
   38517   38518   38519   38518   38519   38519       0   38521   38522   38523
   38522   38523   38523       0   38525   38526   38527   38526   38527   38527
       0   38529   38530   38531   38530   38531   38531       0   38533   38534
   38535   38534   38535   38535       0   38537   38538   38539   38538   38539
   38539       0   38541   38542   38543   38542   38543   38543       0   38545
   38546   38547   38546   38547   38547       0   38549   38550   38551   38550
   38551   38551       0   38553   38554   38555   38554   38555   38555       0
   38557   38558   38559   38558   38559   38559       0   38561   38562   38563
   38562   38563   38563       0   38565   38566   38567   38566   38567   38567
       0   38569   38570   38571   38570   38571   38571       0   38573   38574
   38575   38574   38575   38575       0   38577   38578   38579   38578   38579
   38579       0   38581   38582   38583   38582   38583   38583       0   38585
   38586   38587   38586   38587   38587       0   38589   38590   38591   38590
   38591   38591       0   38593   38594   38595   38594   38595   38595       0
   38597   38598   38599   38598   38599   38599       0   38601   38602   38603
   38602   38603   38603       0   38605   38606   38607   38606   38607   38607
       0   38609   38610   38611   38610   38611   38611       0   38613   38614
   38615   38614   38615   38615       0   38617   38618   38619   38618   38619
   38619       0   38621   38622   38623   38622   38623   38623       0   38625
   38626   38627   38626   38627   38627       0   38629   38630   38631   38630
   38631   38631       0   38633   38634   38635   38634   38635   38635       0
   38637   38638   38639   38638   38639   38639       0   38641   38642   38643
   38642   38643   38643       0   38645   38646   38647   38646   38647   38647
       0   38649   38650   38651   38650   38651   38651       0   38653   38654
   38655   38654   38655   38655       0   38657   38658   38659   38658   38659
   38659       0   38661   38662   38663   38662   38663   38663       0   38665
   38666   38667   38666   38667   38667       0   38669   38670   38671   38670
   38671   38671       0   38673   38674   38675   38674   38675   38675       0
   38677   38678   38679   38678   38679   38679       0   38681   38682   38683
   38682   38683   38683       0   38685   38686   38687   38686   38687   38687
       0   38689   38690   38691   38690   38691   38691       0   38693   38694
   38695   38694   38695   38695       0   38697   38698   38699   38698   38699
   38699       0   38701   38702   38703   38702   38703   38703       0   38705
   38706   38707   38706   38707   38707       0   38709   38710   38711   38710
   38711   38711       0   38713   38714   38715   38714   38715   38715       0
   38717   38718   38719   38718   38719   38719       0   38721   38722   38723
   38722   38723   38723       0   38725   38726   38727   38726   38727   38727
       0   38729   38730   38731   38730   38731   38731       0   38733   38734
   38735   38734   38735   38735       0   38737   38738   38739   38738   38739
   38739       0   38741   38742   38743   38742   38743   38743       0   38745
   38746   38747   38746   38747   38747       0   38749   38750   38751   38750
   38751   38751       0   38753   38754   38755   38754   38755   38755       0
   38757   38758   38759   38758   38759   38759       0   38761   38762   38763
   38762   38763   38763       0   38765   38766   38767   38766   38767   38767
       0   38769   38770   38771   38770   38771   38771       0   38773   38774
   38775   38774   38775   38775       0   38777   38778   38779   38778   38779
   38779       0   38781   38782   38783   38782   38783   38783       0   38785
   38786   38787   38786   38787   38787       0   38789   38790   38791   38790
   38791   38791       0   38793   38794   38795   38794   38795   38795       0
   38797   38798   38799   38798   38799   38799       0   38801   38802   38803
   38802   38803   38803       0   38805   38806   38807   38806   38807   38807
       0   38809   38810   38811   38810   38811   38811       0   38813   38814
   38815   38814   38815   38815       0   38817   38818   38819   38818   38819
   38819       0   38821   38822   38823   38822   38823   38823       0   38825
   38826   38827   38826   38827   38827       0   38829   38830   38831   38830
   38831   38831       0   38833   38834   38835   38834   38835   38835       0
   38837   38838   38839   38838   38839   38839       0   38841   38842   38843
   38842   38843   38843       0   38845   38846   38847   38846   38847   38847
       0   38849   38850   38851   38850   38851   38851       0   38853   38854
   38855   38854   38855   38855       0   38857   38858   38859   38858   38859
   38859       0   38861   38862   38863   38862   38863   38863       0   38865
   38866   38867   38866   38867   38867       0   38869   38870   38871   38870
   38871   38871       0   38873   38874   38875   38874   38875   38875       0
   38877   38878   38879   38878   38879   38879       0   38881   38882   38883
   38882   38883   38883       0   38885   38886   38887   38886   38887   38887
       0   38889   38890   38891   38890   38891   38891       0   38893   38894
   38895   38894   38895   38895       0   38897   38898   38899   38898   38899
   38899       0   38901   38902   38903   38902   38903   38903       0   38905
   38906   38907   38906   38907   38907       0   38909   38910   38911   38910
   38911   38911       0   38913   38914   38915   38914   38915   38915       0
   38917   38918   38919   38918   38919   38919       0   38921   38922   38923
   38922   38923   38923       0   38925   38926   38927   38926   38927   38927
       0   38929   38930   38931   38930   38931   38931       0   38933   38934
   38935   38934   38935   38935       0   38937   38938   38939   38938   38939
   38939       0   38941   38942   38943   38942   38943   38943       0   38945
   38946   38947   38946   38947   38947       0   38949   38950   38951   38950
   38951   38951       0   38953   38954   38955   38954   38955   38955       0
   38957   38958   38959   38958   38959   38959       0   38961   38962   38963
   38962   38963   38963       0   38965   38966   38967   38966   38967   38967
       0   38969   38970   38971   38970   38971   38971       0   38973   38974
   38975   38974   38975   38975       0   38977   38978   38979   38978   38979
   38979       0   38981   38982   38983   38982   38983   38983       0   38985
   38986   38987   38986   38987   38987       0   38989   38990   38991   38990
   38991   38991       0   38993   38994   38995   38994   38995   38995       0
   38997   38998   38999   38998   38999   38999       0   39001   39002   39003
   39002   39003   39003       0   39005   39006   39007   39006   39007   39007
       0   39009   39010   39011   39010   39011   39011       0   39013   39014
   39015   39014   39015   39015       0   39017   39018   39019   39018   39019
   39019       0   39021   39022   39023   39022   39023   39023       0   39025
   39026   39027   39026   39027   39027       0   39029   39030   39031   39030
   39031   39031       0   39033   39034   39035   39034   39035   39035       0
   39037   39038   39039   39038   39039   39039       0   39041   39042   39043
   39042   39043   39043       0   39045   39046   39047   39046   39047   39047
       0   39049   39050   39051   39050   39051   39051       0   39053   39054
   39055   39054   39055   39055       0   39057   39058   39059   39058   39059
   39059       0   39061   39062   39063   39062   39063   39063       0   39065
   39066   39067   39066   39067   39067       0   39069   39070   39071   39070
   39071   39071       0   39073   39074   39075   39074   39075   39075       0
   39077   39078   39079   39078   39079   39079       0   39081   39082   39083
   39082   39083   39083       0   39085   39086   39087   39086   39087   39087
       0   39089   39090   39091   39090   39091   39091       0   39093   39094
   39095   39094   39095   39095       0   39097   39098   39099   39098   39099
   39099       0   39101   39102   39103   39102   39103   39103       0   39105
   39106   39107   39106   39107   39107       0   39109   39110   39111   39110
   39111   39111       0   39113   39114   39115   39114   39115   39115       0
   39117   39118   39119   39118   39119   39119       0   39121   39122   39123
   39122   39123   39123       0   39125   39126   39127   39126   39127   39127
       0   39129   39130   39131   39130   39131   39131       0   39133   39134
   39135   39134   39135   39135       0   39137   39138   39139   39138   39139
   39139       0   39141   39142   39143   39142   39143   39143       0   39145
   39146   39147   39146   39147   39147       0   39149   39150   39151   39150
   39151   39151       0   39153   39154   39155   39154   39155   39155       0
   39157   39158   39159   39158   39159   39159       0   39161   39162   39163
   39162   39163   39163       0   39165   39166   39167   39166   39167   39167
       0   39169   39170   39171   39170   39171   39171       0   39173   39174
   39175   39174   39175   39175       0   39177   39178   39179   39178   39179
   39179       0   39181   39182   39183   39182   39183   39183       0   39185
   39186   39187   39186   39187   39187       0   39189   39190   39191   39190
   39191   39191       0   39193   39194   39195   39194   39195   39195       0
   39197   39198   39199   39198   39199   39199       0   39201   39202   39203
   39202   39203   39203       0   39205   39206   39207   39206   39207   39207
       0   39209   39210   39211   39210   39211   39211       0   39213   39214
   39215   39214   39215   39215       0   39217   39218   39219   39218   39219
   39219       0   39221   39222   39223   39222   39223   39223       0   39225
   39226   39227   39226   39227   39227       0   39229   39230   39231   39230
   39231   39231       0   39233   39234   39235   39234   39235   39235       0
   39237   39238   39239   39238   39239   39239       0   39241   39242   39243
   39242   39243   39243       0   39245   39246   39247   39246   39247   39247
       0   39249   39250   39251   39250   39251   39251       0   39253   39254
   39255   39254   39255   39255       0   39257   39258   39259   39258   39259
   39259       0   39261   39262   39263   39262   39263   39263       0   39265
   39266   39267   39266   39267   39267       0   39269   39270   39271   39270
   39271   39271       0   39273   39274   39275   39274   39275   39275       0
   39277   39278   39279   39278   39279   39279       0   39281   39282   39283
   39282   39283   39283       0   39285   39286   39287   39286   39287   39287
       0   39289   39290   39291   39290   39291   39291       0   39293   39294
   39295   39294   39295   39295       0   39297   39298   39299   39298   39299
   39299       0   39301   39302   39303   39302   39303   39303       0   39305
   39306   39307   39306   39307   39307       0   39309   39310   39311   39310
   39311   39311       0   39313   39314   39315   39314   39315   39315       0
   39317   39318   39319   39318   39319   39319       0   39321   39322   39323
   39322   39323   39323       0   39325   39326   39327   39326   39327   39327
       0   39329   39330   39331   39330   39331   39331       0   39333   39334
   39335   39334   39335   39335       0   39337   39338   39339   39338   39339
   39339       0   39341   39342   39343   39342   39343   39343       0   39345
   39346   39347   39346   39347   39347       0   39349   39350   39351   39350
   39351   39351       0   39353   39354   39355   39354   39355   39355       0
   39357   39358   39359   39358   39359   39359       0   39361   39362   39363
   39362   39363   39363       0   39365   39366   39367   39366   39367   39367
       0   39369   39370   39371   39370   39371   39371       0   39373   39374
   39375   39374   39375   39375       0   39377   39378   39379   39378   39379
   39379       0   39381   39382   39383   39382   39383   39383       0   39385
   39386   39387   39386   39387   39387       0   39389   39390   39391   39390
   39391   39391       0   39393   39394   39395   39394   39395   39395       0
   39397   39398   39399   39398   39399   39399       0   39401   39402   39403
   39402   39403   39403       0   39405   39406   39407   39406   39407   39407
       0   39409   39410   39411   39410   39411   39411       0   39413   39414
   39415   39414   39415   39415       0   39417   39418   39419   39418   39419
   39419       0   39421   39422   39423   39422   39423   39423       0   39425
   39426   39427   39426   39427   39427       0   39429   39430   39431   39430
   39431   39431       0   39433   39434   39435   39434   39435   39435       0
   39437   39438   39439   39438   39439   39439       0   39441   39442   39443
   39442   39443   39443       0   39445   39446   39447   39446   39447   39447
       0   39449   39450   39451   39450   39451   39451       0   39453   39454
   39455   39454   39455   39455       0   39457   39458   39459   39458   39459
   39459       0   39461   39462   39463   39462   39463   39463       0   39465
   39466   39467   39466   39467   39467       0   39469   39470   39471   39470
   39471   39471       0   39473   39474   39475   39474   39475   39475       0
   39477   39478   39479   39478   39479   39479       0   39481   39482   39483
   39482   39483   39483       0   39485   39486   39487   39486   39487   39487
       0   39489   39490   39491   39490   39491   39491       0   39493   39494
   39495   39494   39495   39495       0   39497   39498   39499   39498   39499
   39499       0   39501   39502   39503   39502   39503   39503       0   39505
   39506   39507   39506   39507   39507       0   39509   39510   39511   39510
   39511   39511       0   39513   39514   39515   39514   39515   39515       0
   39517   39518   39519   39518   39519   39519       0   39521   39522   39523
   39522   39523   39523       0   39525   39526   39527   39526   39527   39527
       0   39529   39530   39531   39530   39531   39531       0   39533   39534
   39535   39534   39535   39535       0   39537   39538   39539   39538   39539
   39539       0   39541   39542   39543   39542   39543   39543       0   39545
   39546   39547   39546   39547   39547       0   39549   39550   39551   39550
   39551   39551       0   39553   39554   39555   39554   39555   39555       0
   39557   39558   39559   39558   39559   39559       0   39561   39562   39563
   39562   39563   39563       0   39565   39566   39567   39566   39567   39567
       0   39569   39570   39571   39570   39571   39571       0   39573   39574
   39575   39574   39575   39575       0   39577   39578   39579   39578   39579
   39579       0   39581   39582   39583   39582   39583   39583       0   39585
   39586   39587   39586   39587   39587       0   39589   39590   39591   39590
   39591   39591       0   39593   39594   39595   39594   39595   39595       0
   39597   39598   39599   39598   39599   39599       0   39601   39602   39603
   39602   39603   39603       0   39605   39606   39607   39606   39607   39607
       0   39609   39610   39611   39610   39611   39611       0   39613   39614
   39615   39614   39615   39615       0   39617   39618   39619   39618   39619
   39619       0   39621   39622   39623   39622   39623   39623       0   39625
   39626   39627   39626   39627   39627       0   39629   39630   39631   39630
   39631   39631       0   39633   39634   39635   39634   39635   39635       0
   39637   39638   39639   39638   39639   39639       0   39641   39642   39643
   39642   39643   39643       0   39645   39646   39647   39646   39647   39647
       0   39649   39650   39651   39650   39651   39651       0   39653   39654
   39655   39654   39655   39655       0   39657   39658   39659   39658   39659
   39659       0   39661   39662   39663   39662   39663   39663       0   39665
   39666   39667   39666   39667   39667       0   39669   39670   39671   39670
   39671   39671       0   39673   39674   39675   39674   39675   39675       0
   39677   39678   39679   39678   39679   39679       0   39681   39682   39683
   39682   39683   39683       0   39685   39686   39687   39686   39687   39687
       0   39689   39690   39691   39690   39691   39691       0   39693   39694
   39695   39694   39695   39695       0   39697   39698   39699   39698   39699
   39699       0   39701   39702   39703   39702   39703   39703       0   39705
   39706   39707   39706   39707   39707       0   39709   39710   39711   39710
   39711   39711       0   39713   39714   39715   39714   39715   39715       0
   39717   39718   39719   39718   39719   39719       0   39721   39722   39723
   39722   39723   39723       0   39725   39726   39727   39726   39727   39727
       0   39729   39730   39731   39730   39731   39731       0   39733   39734
   39735   39734   39735   39735       0   39737   39738   39739   39738   39739
   39739       0   39741   39742   39743   39742   39743   39743       0   39745
   39746   39747   39746   39747   39747       0   39749   39750   39751   39750
   39751   39751       0   39753   39754   39755   39754   39755   39755       0
   39757   39758   39759   39758   39759   39759       0   39761   39762   39763
   39762   39763   39763       0   39765   39766   39767   39766   39767   39767
       0   39769   39770   39771   39770   39771   39771       0   39773   39774
   39775   39774   39775   39775       0   39777   39778   39779   39778   39779
   39779       0   39781   39782   39783   39782   39783   39783       0   39785
   39786   39787   39786   39787   39787       0   39789   39790   39791   39790
   39791   39791       0   39793   39794   39795   39794   39795   39795       0
   39797   39798   39799   39798   39799   39799       0   39801   39802   39803
   39802   39803   39803       0   39805   39806   39807   39806   39807   39807
       0   39809   39810   39811   39810   39811   39811       0   39813   39814
   39815   39814   39815   39815       0   39817   39818   39819   39818   39819
   39819       0   39821   39822   39823   39822   39823   39823       0   39825
   39826   39827   39826   39827   39827       0   39829   39830   39831   39830
   39831   39831       0   39833   39834   39835   39834   39835   39835       0
   39837   39838   39839   39838   39839   39839       0   39841   39842   39843
   39842   39843   39843       0   39845   39846   39847   39846   39847   39847
       0   39849   39850   39851   39850   39851   39851       0   39853   39854
   39855   39854   39855   39855       0   39857   39858   39859   39858   39859
   39859       0   39861   39862   39863   39862   39863   39863       0   39865
   39866   39867   39866   39867   39867       0   39869   39870   39871   39870
   39871   39871       0   39873   39874   39875   39874   39875   39875       0
   39877   39878   39879   39878   39879   39879       0   39881   39882   39883
   39882   39883   39883       0   39885   39886   39887   39886   39887   39887
       0   39889   39890   39891   39890   39891   39891       0   39893   39894
   39895   39894   39895   39895       0   39897   39898   39899   39898   39899
   39899       0   39901   39902   39903   39902   39903   39903       0   39905
   39906   39907   39906   39907   39907       0   39909   39910   39911   39910
   39911   39911       0   39913   39914   39915   39914   39915   39915       0
   39917   39918   39919   39918   39919   39919       0   39921   39922   39923
   39922   39923   39923       0   39925   39926   39927   39926   39927   39927
       0   39929   39930   39931   39930   39931   39931       0   39933   39934
   39935   39934   39935   39935       0   39937   39938   39939   39938   39939
   39939       0   39941   39942   39943   39942   39943   39943       0   39945
   39946   39947   39946   39947   39947       0   39949   39950   39951   39950
   39951   39951       0   39953   39954   39955   39954   39955   39955       0
   39957   39958   39959   39958   39959   39959       0   39961   39962   39963
   39962   39963   39963       0   39965   39966   39967   39966   39967   39967
       0   39969   39970   39971   39970   39971   39971       0   39973   39974
   39975   39974   39975   39975       0   39977   39978   39979   39978   39979
   39979       0   39981   39982   39983   39982   39983   39983       0   39985
   39986   39987   39986   39987   39987       0   39989   39990   39991   39990
   39991   39991       0   39993   39994   39995   39994   39995   39995       0
   39997   39998   39999   39998   39999   39999       0   40001   40002   40003
   40002   40003   40003       0   40005   40006   40007   40006   40007   40007
       0   40009   40010   40011   40010   40011   40011       0   40013   40014
   40015   40014   40015   40015       0   40017   40018   40019   40018   40019
   40019       0   40021   40022   40023   40022   40023   40023       0   40025
   40026   40027   40026   40027   40027       0   40029   40030   40031   40030
   40031   40031       0   40033   40034   40035   40034   40035   40035       0
   40037   40038   40039   40038   40039   40039       0   40041   40042   40043
   40042   40043   40043       0   40045   40046   40047   40046   40047   40047
       0   40049   40050   40051   40050   40051   40051       0   40053   40054
   40055   40054   40055   40055       0   40057   40058   40059   40058   40059
   40059       0   40061   40062   40063   40062   40063   40063       0   40065
   40066   40067   40066   40067   40067       0   40069   40070   40071   40070
   40071   40071       0   40073   40074   40075   40074   40075   40075       0
   40077   40078   40079   40078   40079   40079       0   40081   40082   40083
   40082   40083   40083       0   40085   40086   40087   40086   40087   40087
       0   40089   40090   40091   40090   40091   40091       0   40093   40094
   40095   40094   40095   40095       0   40097   40098   40099   40098   40099
   40099       0   40101   40102   40103   40102   40103   40103       0   40105
   40106   40107   40106   40107   40107       0   40109   40110   40111   40110
   40111   40111       0   40113   40114   40115   40114   40115   40115       0
   40117   40118   40119   40118   40119   40119       0   40121   40122   40123
   40122   40123   40123       0   40125   40126   40127   40126   40127   40127
       0   40129   40130   40131   40130   40131   40131       0   40133   40134
   40135   40134   40135   40135       0   40137   40138   40139   40138   40139
   40139       0   40141   40142   40143   40142   40143   40143       0   40145
   40146   40147   40146   40147   40147       0   40149   40150   40151   40150
   40151   40151       0   40153   40154   40155   40154   40155   40155       0
   40157   40158   40159   40158   40159   40159       0   40161   40162   40163
   40162   40163   40163       0   40165   40166   40167   40166   40167   40167
       0   40169   40170   40171   40170   40171   40171       0   40173   40174
   40175   40174   40175   40175       0   40177   40178   40179   40178   40179
   40179       0   40181   40182   40183   40182   40183   40183       0   40185
   40186   40187   40186   40187   40187       0   40189   40190   40191   40190
   40191   40191       0   40193   40194   40195   40194   40195   40195       0
   40197   40198   40199   40198   40199   40199       0   40201   40202   40203
   40202   40203   40203       0   40205   40206   40207   40206   40207   40207
       0   40209   40210   40211   40210   40211   40211       0   40213   40214
   40215   40214   40215   40215       0   40217   40218   40219   40218   40219
   40219       0   40221   40222   40223   40222   40223   40223       0   40225
   40226   40227   40226   40227   40227       0   40229   40230   40231   40230
   40231   40231       0   40233   40234   40235   40234   40235   40235       0
   40237   40238   40239   40238   40239   40239       0   40241   40242   40243
   40242   40243   40243       0   40245   40246   40247   40246   40247   40247
       0   40249   40250   40251   40250   40251   40251       0   40253   40254
   40255   40254   40255   40255       0   40257   40258   40259   40258   40259
   40259       0   40261   40262   40263   40262   40263   40263       0   40265
   40266   40267   40266   40267   40267       0   40269   40270   40271   40270
   40271   40271       0   40273   40274   40275   40274   40275   40275       0
   40277   40278   40279   40278   40279   40279       0   40281   40282   40283
   40282   40283   40283       0   40285   40286   40287   40286   40287   40287
       0   40289   40290   40291   40290   40291   40291       0   40293   40294
   40295   40294   40295   40295       0   40297   40298   40299   40298   40299
   40299       0   40301   40302   40303   40302   40303   40303       0   40305
   40306   40307   40306   40307   40307       0   40309   40310   40311   40310
   40311   40311       0   40313   40314   40315   40314   40315   40315       0
   40317   40318   40319   40318   40319   40319       0   40321   40322   40323
   40322   40323   40323       0   40325   40326   40327   40326   40327   40327
       0   40329   40330   40331   40330   40331   40331       0   40333   40334
   40335   40334   40335   40335       0   40337   40338   40339   40338   40339
   40339       0   40341   40342   40343   40342   40343   40343       0   40345
   40346   40347   40346   40347   40347       0   40349   40350   40351   40350
   40351   40351       0   40353   40354   40355   40354   40355   40355       0
   40357   40358   40359   40358   40359   40359       0   40361   40362   40363
   40362   40363   40363       0   40365   40366   40367   40366   40367   40367
       0   40369   40370   40371   40370   40371   40371       0   40373   40374
   40375   40374   40375   40375       0   40377   40378   40379   40378   40379
   40379       0   40381   40382   40383   40382   40383   40383       0   40385
   40386   40387   40386   40387   40387       0   40389   40390   40391   40390
   40391   40391       0   40393   40394   40395   40394   40395   40395       0
   40397   40398   40399   40398   40399   40399       0   40401   40402   40403
   40402   40403   40403       0   40405   40406   40407   40406   40407   40407
       0   40409   40410   40411   40410   40411   40411       0   40413   40414
   40415   40414   40415   40415       0   40417   40418   40419   40418   40419
   40419       0   40421   40422   40423   40422   40423   40423       0   40425
   40426   40427   40426   40427   40427       0   40429   40430   40431   40430
   40431   40431       0   40433   40434   40435   40434   40435   40435       0
   40437   40438   40439   40438   40439   40439       0   40441   40442   40443
   40442   40443   40443       0   40445   40446   40447   40446   40447   40447
       0   40449   40450   40451   40450   40451   40451       0   40453   40454
   40455   40454   40455   40455       0   40457   40458   40459   40458   40459
   40459       0   40461   40462   40463   40462   40463   40463       0   40465
   40466   40467   40466   40467   40467       0   40469   40470   40471   40470
   40471   40471       0   40473   40474   40475   40474   40475   40475       0
   40477   40478   40479   40478   40479   40479       0   40481   40482   40483
   40482   40483   40483       0   40485   40486   40487   40486   40487   40487
       0   40489   40490   40491   40490   40491   40491       0   40493   40494
   40495   40494   40495   40495       0   40497   40498   40499   40498   40499
   40499       0   40501   40502   40503   40502   40503   40503       0   40505
   40506   40507   40506   40507   40507       0   40509   40510   40511   40510
   40511   40511       0   40513   40514   40515   40514   40515   40515       0
   40517   40518   40519   40518   40519   40519       0   40521   40522   40523
   40522   40523   40523       0   40525   40526   40527   40526   40527   40527
       0   40529   40530   40531   40530   40531   40531       0   40533   40534
   40535   40534   40535   40535       0   40537   40538   40539   40538   40539
   40539       0   40541   40542   40543   40542   40543   40543       0   40545
   40546   40547   40546   40547   40547       0   40549   40550   40551   40550
   40551   40551       0   40553   40554   40555   40554   40555   40555       0
   40557   40558   40559   40558   40559   40559       0   40561   40562   40563
   40562   40563   40563       0   40565   40566   40567   40566   40567   40567
       0   40569   40570   40571   40570   40571   40571       0   40573   40574
   40575   40574   40575   40575       0   40577   40578   40579   40578   40579
   40579       0   40581   40582   40583   40582   40583   40583       0   40585
   40586   40587   40586   40587   40587       0   40589   40590   40591   40590
   40591   40591       0   40593   40594   40595   40594   40595   40595       0
   40597   40598   40599   40598   40599   40599       0   40601   40602   40603
   40602   40603   40603       0   40605   40606   40607   40606   40607   40607
       0   40609   40610   40611   40610   40611   40611       0   40613   40614
   40615   40614   40615   40615       0   40617   40618   40619   40618   40619
   40619       0   40621   40622   40623   40622   40623   40623       0   40625
   40626   40627   40626   40627   40627       0   40629   40630   40631   40630
   40631   40631       0   40633   40634   40635   40634   40635   40635       0
   40637   40638   40639   40638   40639   40639       0   40641   40642   40643
   40642   40643   40643       0   40645   40646   40647   40646   40647   40647
       0   40649   40650   40651   40650   40651   40651       0   40653   40654
   40655   40654   40655   40655       0   40657   40658   40659   40658   40659
   40659       0   40661   40662   40663   40662   40663   40663       0   40665
   40666   40667   40666   40667   40667       0   40669   40670   40671   40670
   40671   40671       0   40673   40674   40675   40674   40675   40675       0
   40677   40678   40679   40678   40679   40679       0   40681   40682   40683
   40682   40683   40683       0   40685   40686   40687   40686   40687   40687
       0   40689   40690   40691   40690   40691   40691       0   40693   40694
   40695   40694   40695   40695       0   40697   40698   40699   40698   40699
   40699       0   40701   40702   40703   40702   40703   40703       0   40705
   40706   40707   40706   40707   40707       0   40709   40710   40711   40710
   40711   40711       0   40713   40714   40715   40714   40715   40715       0
   40717   40718   40719   40718   40719   40719       0   40721   40722   40723
   40722   40723   40723       0   40725   40726   40727   40726   40727   40727
       0   40729   40730   40731   40730   40731   40731       0   40733   40734
   40735   40734   40735   40735       0   40737   40738   40739   40738   40739
   40739       0   40741   40742   40743   40742   40743   40743       0   40745
   40746   40747   40746   40747   40747       0   40749   40750   40751   40750
   40751   40751       0   40753   40754   40755   40754   40755   40755       0
   40757   40758   40759   40758   40759   40759       0   40761   40762   40763
   40762   40763   40763       0   40765   40766   40767   40766   40767   40767
       0   40769   40770   40771   40770   40771   40771       0   40773   40774
   40775   40774   40775   40775       0   40777   40778   40779   40778   40779
   40779       0   40781   40782   40783   40782   40783   40783       0   40785
   40786   40787   40786   40787   40787       0   40789   40790   40791   40790
   40791   40791       0   40793   40794   40795   40794   40795   40795       0
   40797   40798   40799   40798   40799   40799       0   40801   40802   40803
   40802   40803   40803       0   40805   40806   40807   40806   40807   40807
       0   40809   40810   40811   40810   40811   40811       0   40813   40814
   40815   40814   40815   40815       0   40817   40818   40819   40818   40819
   40819       0   40821   40822   40823   40822   40823   40823       0   40825
   40826   40827   40826   40827   40827       0   40829   40830   40831   40830
   40831   40831       0   40833   40834   40835   40834   40835   40835       0
   40837   40838   40839   40838   40839   40839       0   40841   40842   40843
   40842   40843   40843       0   40845   40846   40847   40846   40847   40847
       0   40849   40850   40851   40850   40851   40851       0   40853   40854
   40855   40854   40855   40855       0   40857   40858   40859   40858   40859
   40859       0   40861   40862   40863   40862   40863   40863       0   40865
   40866   40867   40866   40867   40867       0   40869   40870   40871   40870
   40871   40871       0   40873   40874   40875   40874   40875   40875       0
   40877   40878   40879   40878   40879   40879       0   40881   40882   40883
   40882   40883   40883       0   40885   40886   40887   40886   40887   40887
       0   40889   40890   40891   40890   40891   40891       0   40893   40894
   40895   40894   40895   40895       0   40897   40898   40899   40898   40899
   40899       0   40901   40902   40903   40902   40903   40903       0   40905
   40906   40907   40906   40907   40907       0   40909   40910   40911   40910
   40911   40911       0   40913   40914   40915   40914   40915   40915       0
   40917   40918   40919   40918   40919   40919       0   40921   40922   40923
   40922   40923   40923       0   40925   40926   40927   40926   40927   40927
       0   40929   40930   40931   40930   40931   40931       0   40933   40934
   40935   40934   40935   40935       0   40937   40938   40939   40938   40939
   40939       0   40941   40942   40943   40942   40943   40943       0   40945
   40946   40947   40946   40947   40947       0   40949   40950   40951   40950
   40951   40951       0   40953   40954   40955   40954   40955   40955       0
   40957   40958   40959   40958   40959   40959       0   40961   40962   40963
   40962   40963   40963       0   40965   40966   40967   40966   40967   40967
       0   40969   40970   40971   40970   40971   40971       0   40973   40974
   40975   40974   40975   40975       0   40977   40978   40979   40978   40979
   40979       0   40981   40982   40983   40982   40983   40983       0   40985
   40986   40987   40986   40987   40987       0   40989   40990   40991   40990
   40991   40991       0   40993   40994   40995   40994   40995   40995       0
   40997   40998   40999   40998   40999   40999       0   41001   41002   41003
   41002   41003   41003       0   41005   41006   41007   41006   41007   41007
       0   41009   41010   41011   41010   41011   41011       0   41013   41014
   41015   41014   41015   41015       0   41017   41018   41019   41018   41019
   41019       0   41021   41022   41023   41022   41023   41023       0   41025
   41026   41027   41026   41027   41027       0   41029   41030   41031   41030
   41031   41031       0   41033   41034   41035   41034   41035   41035       0
   41037   41038   41039   41038   41039   41039       0   41041   41042   41043
   41042   41043   41043       0   41045   41046   41047   41046   41047   41047
       0   41049   41050   41051   41050   41051   41051       0   41053   41054
   41055   41054   41055   41055       0   41057   41058   41059   41058   41059
   41059       0   41061   41062   41063   41062   41063   41063       0   41065
   41066   41067   41066   41067   41067       0   41069   41070   41071   41070
   41071   41071       0   41073   41074   41075   41074   41075   41075       0
   41077   41078   41079   41078   41079   41079       0   41081   41082   41083
   41082   41083   41083       0   41085   41086   41087   41086   41087   41087
       0   41089   41090   41091   41090   41091   41091       0   41093   41094
   41095   41094   41095   41095       0   41097   41098   41099   41098   41099
   41099       0   41101   41102   41103   41102   41103   41103       0   41105
   41106   41107   41106   41107   41107       0   41109   41110   41111   41110
   41111   41111       0   41113   41114   41115   41114   41115   41115       0
   41117   41118   41119   41118   41119   41119       0   41121   41122   41123
   41122   41123   41123       0   41125   41126   41127   41126   41127   41127
       0   41129   41130   41131   41130   41131   41131       0   41133   41134
   41135   41134   41135   41135       0   41137   41138   41139   41138   41139
   41139       0   41141   41142   41143   41142   41143   41143       0   41145
   41146   41147   41146   41147   41147       0   41149   41150   41151   41150
   41151   41151       0   41153   41154   41155   41154   41155   41155       0
   41157   41158   41159   41158   41159   41159       0   41161   41162   41163
   41162   41163   41163       0   41165   41166   41167   41166   41167   41167
       0   41169   41170   41171   41170   41171   41171       0   41173   41174
   41175   41174   41175   41175       0   41177   41178   41179   41178   41179
   41179       0   41181   41182   41183   41182   41183   41183       0   41185
   41186   41187   41186   41187   41187       0   41189   41190   41191   41190
   41191   41191       0   41193   41194   41195   41194   41195   41195       0
   41197   41198   41199   41198   41199   41199       0   41201   41202   41203
   41202   41203   41203       0   41205   41206   41207   41206   41207   41207
       0   41209   41210   41211   41210   41211   41211       0   41213   41214
   41215   41214   41215   41215       0   41217   41218   41219   41218   41219
   41219       0   41221   41222   41223   41222   41223   41223       0   41225
   41226   41227   41226   41227   41227       0   41229   41230   41231   41230
   41231   41231       0   41233   41234   41235   41234   41235   41235       0
   41237   41238   41239   41238   41239   41239       0   41241   41242   41243
   41242   41243   41243       0   41245   41246   41247   41246   41247   41247
       0   41249   41250   41251   41250   41251   41251       0   41253   41254
   41255   41254   41255   41255       0   41257   41258   41259   41258   41259
   41259       0   41261   41262   41263   41262   41263   41263       0   41265
   41266   41267   41266   41267   41267       0   41269   41270   41271   41270
   41271   41271       0   41273   41274   41275   41274   41275   41275       0
   41277   41278   41279   41278   41279   41279       0   41281   41282   41283
   41282   41283   41283       0   41285   41286   41287   41286   41287   41287
       0   41289   41290   41291   41290   41291   41291       0   41293   41294
   41295   41294   41295   41295       0   41297   41298   41299   41298   41299
   41299       0   41301   41302   41303   41302   41303   41303       0   41305
   41306   41307   41306   41307   41307       0   41309   41310   41311   41310
   41311   41311       0   41313   41314   41315   41314   41315   41315       0
   41317   41318   41319   41318   41319   41319       0   41321   41322   41323
   41322   41323   41323       0   41325   41326   41327   41326   41327   41327
       0   41329   41330   41331   41330   41331   41331       0   41333   41334
   41335   41334   41335   41335       0   41337   41338   41339   41338   41339
   41339       0   41341   41342   41343   41342   41343   41343       0   41345
   41346   41347   41346   41347   41347       0   41349   41350   41351   41350
   41351   41351       0   41353   41354   41355   41354   41355   41355       0
   41357   41358   41359   41358   41359   41359       0   41361   41362   41363
   41362   41363   41363       0   41365   41366   41367   41366   41367   41367
       0   41369   41370   41371   41370   41371   41371       0   41373   41374
   41375   41374   41375   41375       0   41377   41378   41379   41378   41379
   41379       0   41381   41382   41383   41382   41383   41383       0   41385
   41386   41387   41386   41387   41387       0   41389   41390   41391   41390
   41391   41391       0   41393   41394   41395   41394   41395   41395       0
   41397   41398   41399   41398   41399   41399       0   41401   41402   41403
   41402   41403   41403       0   41405   41406   41407   41406   41407   41407
       0   41409   41410   41411   41410   41411   41411       0   41413   41414
   41415   41414   41415   41415       0   41417   41418   41419   41418   41419
   41419       0   41421   41422   41423   41422   41423   41423       0   41425
   41426   41427   41426   41427   41427       0   41429   41430   41431   41430
   41431   41431       0   41433   41434   41435   41434   41435   41435       0
   41437   41438   41439   41438   41439   41439       0   41441   41442   41443
   41442   41443   41443       0   41445   41446   41447   41446   41447   41447
       0   41449   41450   41451   41450   41451   41451       0   41453   41454
   41455   41454   41455   41455       0   41457   41458   41459   41458   41459
   41459       0   41461   41462   41463   41462   41463   41463       0   41465
   41466   41467   41466   41467   41467       0   41469   41470   41471   41470
   41471   41471       0   41473   41474   41475   41474   41475   41475       0
   41477   41478   41479   41478   41479   41479       0   41481   41482   41483
   41482   41483   41483       0   41485   41486   41487   41486   41487   41487
       0   41489   41490   41491   41490   41491   41491       0   41493   41494
   41495   41494   41495   41495       0   41497   41498   41499   41498   41499
   41499       0   41501   41502   41503   41502   41503   41503       0   41505
   41506   41507   41506   41507   41507       0   41509   41510   41511   41510
   41511   41511       0   41513   41514   41515   41514   41515   41515       0
   41517   41518   41519   41518   41519   41519       0   41521   41522   41523
   41522   41523   41523       0   41525   41526   41527   41526   41527   41527
       0   41529   41530   41531   41530   41531   41531       0   41533   41534
   41535   41534   41535   41535       0   41537   41538   41539   41538   41539
   41539       0   41541   41542   41543   41542   41543   41543       0   41545
   41546   41547   41546   41547   41547       0   41549   41550   41551   41550
   41551   41551       0   41553   41554   41555   41554   41555   41555       0
   41557   41558   41559   41558   41559   41559       0   41561   41562   41563
   41562   41563   41563       0   41565   41566   41567   41566   41567   41567
       0   41569   41570   41571   41570   41571   41571       0   41573   41574
   41575   41574   41575   41575       0   41577   41578   41579   41578   41579
   41579       0   41581   41582   41583   41582   41583   41583       0   41585
   41586   41587   41586   41587   41587       0   41589   41590   41591   41590
   41591   41591       0   41593   41594   41595   41594   41595   41595       0
   41597   41598   41599   41598   41599   41599       0   41601   41602   41603
   41602   41603   41603       0   41605   41606   41607   41606   41607   41607
       0   41609   41610   41611   41610   41611   41611       0   41613   41614
   41615   41614   41615   41615       0   41617   41618   41619   41618   41619
   41619       0   41621   41622   41623   41622   41623   41623       0   41625
   41626   41627   41626   41627   41627       0   41629   41630   41631   41630
   41631   41631       0   41633   41634   41635   41634   41635   41635       0
   41637   41638   41639   41638   41639   41639       0   41641   41642   41643
   41642   41643   41643       0   41645   41646   41647   41646   41647   41647
       0   41649   41650   41651   41650   41651   41651       0   41653   41654
   41655   41654   41655   41655       0   41657   41658   41659   41658   41659
   41659       0   41661   41662   41663   41662   41663   41663       0   41665
   41666   41667   41666   41667   41667       0   41669   41670   41671   41670
   41671   41671       0   41673   41674   41675   41674   41675   41675       0
   41677   41678   41679   41678   41679   41679       0   41681   41682   41683
   41682   41683   41683       0   41685   41686   41687   41686   41687   41687
       0   41689   41690   41691   41690   41691   41691       0   41693   41694
   41695   41694   41695   41695       0   41697   41698   41699   41698   41699
   41699       0   41701   41702   41703   41702   41703   41703       0   41705
   41706   41707   41706   41707   41707       0   41709   41710   41711   41710
   41711   41711       0   41713   41714   41715   41714   41715   41715       0
   41717   41718   41719   41718   41719   41719       0   41721   41722   41723
   41722   41723   41723       0   41725   41726   41727   41726   41727   41727
       0   41729   41730   41731   41730   41731   41731       0   41733   41734
   41735   41734   41735   41735       0   41737   41738   41739   41738   41739
   41739       0   41741   41742   41743   41742   41743   41743       0   41745
   41746   41747   41746   41747   41747       0   41749   41750   41751   41750
   41751   41751       0   41753   41754   41755   41754   41755   41755       0
   41757   41758   41759   41758   41759   41759       0   41761   41762   41763
   41762   41763   41763       0   41765   41766   41767   41766   41767   41767
       0   41769   41770   41771   41770   41771   41771       0   41773   41774
   41775   41774   41775   41775       0   41777   41778   41779   41778   41779
   41779       0   41781   41782   41783   41782   41783   41783       0   41785
   41786   41787   41786   41787   41787       0   41789   41790   41791   41790
   41791   41791       0   41793   41794   41795   41794   41795   41795       0
   41797   41798   41799   41798   41799   41799       0   41801   41802   41803
   41802   41803   41803       0   41805   41806   41807   41806   41807   41807
       0   41809   41810   41811   41810   41811   41811       0   41813   41814
   41815   41814   41815   41815       0   41817   41818   41819   41818   41819
   41819       0   41821   41822   41823   41822   41823   41823       0   41825
   41826   41827   41826   41827   41827       0   41829   41830   41831   41830
   41831   41831       0   41833   41834   41835   41834   41835   41835       0
   41837   41838   41839   41838   41839   41839       0   41841   41842   41843
   41842   41843   41843       0   41845   41846   41847   41846   41847   41847
       0   41849   41850   41851   41850   41851   41851       0   41853   41854
   41855   41854   41855   41855       0   41857   41858   41859   41858   41859
   41859       0   41861   41862   41863   41862   41863   41863       0   41865
   41866   41867   41866   41867   41867       0   41869   41870   41871   41870
   41871   41871       0   41873   41874   41875   41874   41875   41875       0
   41877   41878   41879   41878   41879   41879       0   41881   41882   41883
   41882   41883   41883       0   41885   41886   41887   41886   41887   41887
       0   41889   41890   41891   41890   41891   41891       0   41893   41894
   41895   41894   41895   41895       0   41897   41898   41899   41898   41899
   41899       0   41901   41902   41903   41902   41903   41903       0   41905
   41906   41907   41906   41907   41907       0   41909   41910   41911   41910
   41911   41911       0   41913   41914   41915   41914   41915   41915       0
   41917   41918   41919   41918   41919   41919       0   41921   41922   41923
   41922   41923   41923       0   41925   41926   41927   41926   41927   41927
       0   41929   41930   41931   41930   41931   41931       0   41933   41934
   41935   41934   41935   41935       0   41937   41938   41939   41938   41939
   41939       0   41941   41942   41943   41942   41943   41943       0   41945
   41946   41947   41946   41947   41947       0   41949   41950   41951   41950
   41951   41951       0   41953   41954   41955   41954   41955   41955       0
   41957   41958   41959   41958   41959   41959       0   41961   41962   41963
   41962   41963   41963       0   41965   41966   41967   41966   41967   41967
       0   41969   41970   41971   41970   41971   41971       0   41973   41974
   41975   41974   41975   41975       0   41977   41978   41979   41978   41979
   41979       0   41981   41982   41983   41982   41983   41983       0   41985
   41986   41987   41986   41987   41987       0   41989   41990   41991   41990
   41991   41991       0   41993   41994   41995   41994   41995   41995       0
   41997   41998   41999   41998   41999   41999       0   42001   42002   42003
   42002   42003   42003       0   42005   42006   42007   42006   42007   42007
       0   42009   42010   42011   42010   42011   42011       0   42013   42014
   42015   42014   42015   42015       0   42017   42018   42019   42018   42019
   42019       0   42021   42022   42023   42022   42023   42023       0   42025
   42026   42027   42026   42027   42027       0   42029   42030   42031   42030
   42031   42031       0   42033   42034   42035   42034   42035   42035       0
   42037   42038   42039   42038   42039   42039       0   42041   42042   42043
   42042   42043   42043       0   42045   42046   42047   42046   42047   42047
       0   42049   42050   42051   42050   42051   42051       0   42053   42054
   42055   42054   42055   42055       0   42057   42058   42059   42058   42059
   42059       0   42061   42062   42063   42062   42063   42063       0   42065
   42066   42067   42066   42067   42067       0   42069   42070   42071   42070
   42071   42071       0   42073   42074   42075   42074   42075   42075       0
   42077   42078   42079   42078   42079   42079       0   42081   42082   42083
   42082   42083   42083       0   42085   42086   42087   42086   42087   42087
       0   42089   42090   42091   42090   42091   42091       0   42093   42094
   42095   42094   42095   42095       0   42097   42098   42099   42098   42099
   42099       0   42101   42102   42103   42102   42103   42103       0   42105
   42106   42107   42106   42107   42107       0   42109   42110   42111   42110
   42111   42111       0   42113   42114   42115   42114   42115   42115       0
   42117   42118   42119   42118   42119   42119       0   42121   42122   42123
   42122   42123   42123       0   42125   42126   42127   42126   42127   42127
       0   42129   42130   42131   42130   42131   42131       0   42133   42134
   42135   42134   42135   42135       0   42137   42138   42139   42138   42139
   42139       0   42141   42142   42143   42142   42143   42143       0   42145
   42146   42147   42146   42147   42147       0   42149   42150   42151   42150
   42151   42151       0   42153   42154   42155   42154   42155   42155       0
   42157   42158   42159   42158   42159   42159       0   42161   42162   42163
   42162   42163   42163       0   42165   42166   42167   42166   42167   42167
       0   42169   42170   42171   42170   42171   42171       0   42173   42174
   42175   42174   42175   42175       0   42177   42178   42179   42178   42179
   42179       0   42181   42182   42183   42182   42183   42183       0   42185
   42186   42187   42186   42187   42187       0   42189   42190   42191   42190
   42191   42191       0   42193   42194   42195   42194   42195   42195       0
   42197   42198   42199   42198   42199   42199       0   42201   42202   42203
   42202   42203   42203       0   42205   42206   42207   42206   42207   42207
       0   42209   42210   42211   42210   42211   42211       0   42213   42214
   42215   42214   42215   42215       0   42217   42218   42219   42218   42219
   42219       0   42221   42222   42223   42222   42223   42223       0   42225
   42226   42227   42226   42227   42227       0   42229   42230   42231   42230
   42231   42231       0   42233   42234   42235   42234   42235   42235       0
   42237   42238   42239   42238   42239   42239       0   42241   42242   42243
   42242   42243   42243       0   42245   42246   42247   42246   42247   42247
       0   42249   42250   42251   42250   42251   42251       0   42253   42254
   42255   42254   42255   42255       0   42257   42258   42259   42258   42259
   42259       0   42261   42262   42263   42262   42263   42263       0   42265
   42266   42267   42266   42267   42267       0   42269   42270   42271   42270
   42271   42271       0   42273   42274   42275   42274   42275   42275       0
   42277   42278   42279   42278   42279   42279       0   42281   42282   42283
   42282   42283   42283       0   42285   42286   42287   42286   42287   42287
       0   42289   42290   42291   42290   42291   42291       0   42293   42294
   42295   42294   42295   42295       0   42297   42298   42299   42298   42299
   42299       0   42301   42302   42303   42302   42303   42303       0   42305
   42306   42307   42306   42307   42307       0   42309   42310   42311   42310
   42311   42311       0   42313   42314   42315   42314   42315   42315       0
   42317   42318   42319   42318   42319   42319       0   42321   42322   42323
   42322   42323   42323       0   42325   42326   42327   42326   42327   42327
       0   42329   42330   42331   42330   42331   42331       0   42333   42334
   42335   42334   42335   42335       0   42337   42338   42339   42338   42339
   42339       0   42341   42342   42343   42342   42343   42343       0   42345
   42346   42347   42346   42347   42347       0   42349   42350   42351   42350
   42351   42351       0   42353   42354   42355   42354   42355   42355       0
   42357   42358   42359   42358   42359   42359       0   42361   42362   42363
   42362   42363   42363       0   42365   42366   42367   42366   42367   42367
       0   42369   42370   42371   42370   42371   42371       0   42373   42374
   42375   42374   42375   42375       0   42377   42378   42379   42378   42379
   42379       0   42381   42382   42383   42382   42383   42383       0   42385
   42386   42387   42386   42387   42387       0   42389   42390   42391   42390
   42391   42391       0   42393   42394   42395   42394   42395   42395       0
   42397   42398   42399   42398   42399   42399       0   42401   42402   42403
   42402   42403   42403       0   42405   42406   42407   42406   42407   42407
       0   42409   42410   42411   42410   42411   42411       0   42413   42414
   42415   42414   42415   42415       0   42417   42418   42419   42418   42419
   42419       0   42421   42422   42423   42422   42423   42423       0   42425
   42426   42427   42426   42427   42427       0   42429   42430   42431   42430
   42431   42431       0   42433   42434   42435   42434   42435   42435       0
   42437   42438   42439   42438   42439   42439       0   42441   42442   42443
   42442   42443   42443       0   42445   42446   42447   42446   42447   42447
       0   42449   42450   42451   42450   42451   42451       0   42453   42454
   42455   42454   42455   42455       0   42457   42458   42459   42458   42459
   42459       0   42461   42462   42463   42462   42463   42463       0   42465
   42466   42467   42466   42467   42467       0   42469   42470   42471   42470
   42471   42471       0   42473   42474   42475   42474   42475   42475       0
   42477   42478   42479   42478   42479   42479       0   42481   42482   42483
   42482   42483   42483       0   42485   42486   42487   42486   42487   42487
       0   42489   42490   42491   42490   42491   42491       0   42493   42494
   42495   42494   42495   42495       0   42497   42498   42499   42498   42499
   42499       0   42501   42502   42503   42502   42503   42503       0   42505
   42506   42507   42506   42507   42507       0   42509   42510   42511   42510
   42511   42511       0   42513   42514   42515   42514   42515   42515       0
   42517   42518   42519   42518   42519   42519       0   42521   42522   42523
   42522   42523   42523       0   42525   42526   42527   42526   42527   42527
       0   42529   42530   42531   42530   42531   42531       0   42533   42534
   42535   42534   42535   42535       0   42537   42538   42539   42538   42539
   42539       0   42541   42542   42543   42542   42543   42543       0   42545
   42546   42547   42546   42547   42547       0   42549   42550   42551   42550
   42551   42551       0   42553   42554   42555   42554   42555   42555       0
   42557   42558   42559   42558   42559   42559       0   42561   42562   42563
   42562   42563   42563       0   42565   42566   42567   42566   42567   42567
       0   42569   42570   42571   42570   42571   42571       0   42573   42574
   42575   42574   42575   42575       0   42577   42578   42579   42578   42579
   42579       0   42581   42582   42583   42582   42583   42583       0   42585
   42586   42587   42586   42587   42587       0   42589   42590   42591   42590
   42591   42591       0   42593   42594   42595   42594   42595   42595       0
   42597   42598   42599   42598   42599   42599       0   42601   42602   42603
   42602   42603   42603       0   42605   42606   42607   42606   42607   42607
       0   42609   42610   42611   42610   42611   42611       0   42613   42614
   42615   42614   42615   42615       0   42617   42618   42619   42618   42619
   42619       0   42621   42622   42623   42622   42623   42623       0   42625
   42626   42627   42626   42627   42627       0   42629   42630   42631   42630
   42631   42631       0   42633   42634   42635   42634   42635   42635       0
   42637   42638   42639   42638   42639   42639       0   42641   42642   42643
   42642   42643   42643       0   42645   42646   42647   42646   42647   42647
       0   42649   42650   42651   42650   42651   42651       0   42653   42654
   42655   42654   42655   42655       0   42657   42658   42659   42658   42659
   42659       0   42661   42662   42663   42662   42663   42663       0   42665
   42666   42667   42666   42667   42667       0   42669   42670   42671   42670
   42671   42671       0   42673   42674   42675   42674   42675   42675       0
   42677   42678   42679   42678   42679   42679       0   42681   42682   42683
   42682   42683   42683       0   42685   42686   42687   42686   42687   42687
       0   42689   42690   42691   42690   42691   42691       0   42693   42694
   42695   42694   42695   42695       0   42697   42698   42699   42698   42699
   42699       0   42701   42702   42703   42702   42703   42703       0   42705
   42706   42707   42706   42707   42707       0   42709   42710   42711   42710
   42711   42711       0   42713   42714   42715   42714   42715   42715       0
   42717   42718   42719   42718   42719   42719       0   42721   42722   42723
   42722   42723   42723       0   42725   42726   42727   42726   42727   42727
       0   42729   42730   42731   42730   42731   42731       0   42733   42734
   42735   42734   42735   42735       0   42737   42738   42739   42738   42739
   42739       0   42741   42742   42743   42742   42743   42743       0   42745
   42746   42747   42746   42747   42747       0   42749   42750   42751   42750
   42751   42751       0   42753   42754   42755   42754   42755   42755       0
   42757   42758   42759   42758   42759   42759       0   42761   42762   42763
   42762   42763   42763       0   42765   42766   42767   42766   42767   42767
       0   42769   42770   42771   42770   42771   42771       0   42773   42774
   42775   42774   42775   42775       0   42777   42778   42779   42778   42779
   42779       0   42781   42782   42783   42782   42783   42783       0   42785
   42786   42787   42786   42787   42787       0   42789   42790   42791   42790
   42791   42791       0   42793   42794   42795   42794   42795   42795       0
   42797   42798   42799   42798   42799   42799       0   42801   42802   42803
   42802   42803   42803       0   42805   42806   42807   42806   42807   42807
       0   42809   42810   42811   42810   42811   42811       0   42813   42814
   42815   42814   42815   42815       0   42817   42818   42819   42818   42819
   42819       0   42821   42822   42823   42822   42823   42823       0   42825
   42826   42827   42826   42827   42827       0   42829   42830   42831   42830
   42831   42831       0   42833   42834   42835   42834   42835   42835       0
   42837   42838   42839   42838   42839   42839       0   42841   42842   42843
   42842   42843   42843       0   42845   42846   42847   42846   42847   42847
       0   42849   42850   42851   42850   42851   42851       0   42853   42854
   42855   42854   42855   42855       0   42857   42858   42859   42858   42859
   42859       0   42861   42862   42863   42862   42863   42863       0   42865
   42866   42867   42866   42867   42867       0   42869   42870   42871   42870
   42871   42871       0   42873   42874   42875   42874   42875   42875       0
   42877   42878   42879   42878   42879   42879       0   42881   42882   42883
   42882   42883   42883       0   42885   42886   42887   42886   42887   42887
       0   42889   42890   42891   42890   42891   42891       0   42893   42894
   42895   42894   42895   42895       0   42897   42898   42899   42898   42899
   42899       0   42901   42902   42903   42902   42903   42903       0   42905
   42906   42907   42906   42907   42907       0   42909   42910   42911   42910
   42911   42911       0   42913   42914   42915   42914   42915   42915       0
   42917   42918   42919   42918   42919   42919       0   42921   42922   42923
   42922   42923   42923       0   42925   42926   42927   42926   42927   42927
       0   42929   42930   42931   42930   42931   42931       0   42933   42934
   42935   42934   42935   42935       0   42937   42938   42939   42938   42939
   42939       0   42941   42942   42943   42942   42943   42943       0   42945
   42946   42947   42946   42947   42947       0   42949   42950   42951   42950
   42951   42951       0   42953   42954   42955   42954   42955   42955       0
   42957   42958   42959   42958   42959   42959       0   42961   42962   42963
   42962   42963   42963       0   42965   42966   42967   42966   42967   42967
       0   42969   42970   42971   42970   42971   42971       0   42973   42974
   42975   42974   42975   42975       0   42977   42978   42979   42978   42979
   42979       0   42981   42982   42983   42982   42983   42983       0   42985
   42986   42987   42986   42987   42987       0   42989   42990   42991   42990
   42991   42991       0   42993   42994   42995   42994   42995   42995       0
   42997   42998   42999   42998   42999   42999       0   43001   43002   43003
   43002   43003   43003       0   43005   43006   43007   43006   43007   43007
       0   43009   43010   43011   43010   43011   43011       0   43013   43014
   43015   43014   43015   43015       0   43017   43018   43019   43018   43019
   43019       0   43021   43022   43023   43022   43023   43023       0   43025
   43026   43027   43026   43027   43027       0   43029   43030   43031   43030
   43031   43031       0   43033   43034   43035   43034   43035   43035       0
   43037   43038   43039   43038   43039   43039       0   43041   43042   43043
   43042   43043   43043       0   43045   43046   43047   43046   43047   43047
       0   43049   43050   43051   43050   43051   43051       0   43053   43054
   43055   43054   43055   43055       0   43057   43058   43059   43058   43059
   43059       0   43061   43062   43063   43062   43063   43063       0   43065
   43066   43067   43066   43067   43067       0   43069   43070   43071   43070
   43071   43071       0   43073   43074   43075   43074   43075   43075       0
   43077   43078   43079   43078   43079   43079       0   43081   43082   43083
   43082   43083   43083       0   43085   43086   43087   43086   43087   43087
       0   43089   43090   43091   43090   43091   43091       0   43093   43094
   43095   43094   43095   43095       0   43097   43098   43099   43098   43099
   43099       0   43101   43102   43103   43102   43103   43103       0   43105
   43106   43107   43106   43107   43107       0   43109   43110   43111   43110
   43111   43111       0   43113   43114   43115   43114   43115   43115       0
   43117   43118   43119   43118   43119   43119       0   43121   43122   43123
   43122   43123   43123       0   43125   43126   43127   43126   43127   43127
       0   43129   43130   43131   43130   43131   43131       0   43133   43134
   43135   43134   43135   43135       0   43137   43138   43139   43138   43139
   43139       0   43141   43142   43143   43142   43143   43143       0   43145
   43146   43147   43146   43147   43147       0   43149   43150   43151   43150
   43151   43151       0   43153   43154   43155   43154   43155   43155       0
   43157   43158   43159   43158   43159   43159       0   43161   43162   43163
   43162   43163   43163       0   43165   43166   43167   43166   43167   43167
       0   43169   43170   43171   43170   43171   43171       0   43173   43174
   43175   43174   43175   43175       0   43177   43178   43179   43178   43179
   43179       0   43181   43182   43183   43182   43183   43183       0   43185
   43186   43187   43186   43187   43187       0   43189   43190   43191   43190
   43191   43191       0   43193   43194   43195   43194   43195   43195       0
   43197   43198   43199   43198   43199   43199       0   43201   43202   43203
   43202   43203   43203       0   43205   43206   43207   43206   43207   43207
       0   43209   43210   43211   43210   43211   43211       0   43213   43214
   43215   43214   43215   43215       0   43217   43218   43219   43218   43219
   43219       0   43221   43222   43223   43222   43223   43223       0   43225
   43226   43227   43226   43227   43227       0   43229   43230   43231   43230
   43231   43231       0   43233   43234   43235   43234   43235   43235       0
   43237   43238   43239   43238   43239   43239       0   43241   43242   43243
   43242   43243   43243       0   43245   43246   43247   43246   43247   43247
       0   43249   43250   43251   43250   43251   43251       0   43253   43254
   43255   43254   43255   43255       0   43257   43258   43259   43258   43259
   43259       0   43261   43262   43263   43262   43263   43263       0   43265
   43266   43267   43266   43267   43267       0   43269   43270   43271   43270
   43271   43271       0   43273   43274   43275   43274   43275   43275       0
   43277   43278   43279   43278   43279   43279       0   43281   43282   43283
   43282   43283   43283       0   43285   43286   43287   43286   43287   43287
       0   43289   43290   43291   43290   43291   43291       0   43293   43294
   43295   43294   43295   43295       0   43297   43298   43299   43298   43299
   43299       0   43301   43302   43303   43302   43303   43303       0   43305
   43306   43307   43306   43307   43307       0   43309   43310   43311   43310
   43311   43311       0   43313   43314   43315   43314   43315   43315       0
   43317   43318   43319   43318   43319   43319       0   43321   43322   43323
   43322   43323   43323       0   43325   43326   43327   43326   43327   43327
       0   43329   43330   43331   43330   43331   43331       0   43333   43334
   43335   43334   43335   43335       0   43337   43338   43339   43338   43339
   43339       0   43341   43342   43343   43342   43343   43343       0   43345
   43346   43347   43346   43347   43347       0   43349   43350   43351   43350
   43351   43351       0   43353   43354   43355   43354   43355   43355       0
   43357   43358   43359   43358   43359   43359       0   43361   43362   43363
   43362   43363   43363       0   43365   43366   43367   43366   43367   43367
       0   43369   43370   43371   43370   43371   43371       0   43373   43374
   43375   43374   43375   43375       0   43377   43378   43379   43378   43379
   43379       0   43381   43382   43383   43382   43383   43383       0   43385
   43386   43387   43386   43387   43387       0   43389   43390   43391   43390
   43391   43391       0   43393   43394   43395   43394   43395   43395       0
   43397   43398   43399   43398   43399   43399       0   43401   43402   43403
   43402   43403   43403       0   43405   43406   43407   43406   43407   43407
       0   43409   43410   43411   43410   43411   43411       0   43413   43414
   43415   43414   43415   43415       0   43417   43418   43419   43418   43419
   43419       0   43421   43422   43423   43422   43423   43423       0   43425
   43426   43427   43426   43427   43427       0   43429   43430   43431   43430
   43431   43431       0   43433   43434   43435   43434   43435   43435       0
   43437   43438   43439   43438   43439   43439       0   43441   43442   43443
   43442   43443   43443       0   43445   43446   43447   43446   43447   43447
       0   43449   43450   43451   43450   43451   43451       0   43453   43454
   43455   43454   43455   43455       0   43457   43458   43459   43458   43459
   43459       0   43461   43462   43463   43462   43463   43463       0   43465
   43466   43467   43466   43467   43467       0   43469   43470   43471   43470
   43471   43471       0   43473   43474   43475   43474   43475   43475       0
   43477   43478   43479   43478   43479   43479       0   43481   43482   43483
   43482   43483   43483       0   43485   43486   43487   43486   43487   43487
       0   43489   43490   43491   43490   43491   43491       0   43493   43494
   43495   43494   43495   43495       0   43497   43498   43499   43498   43499
   43499       0   43501   43502   43503   43502   43503   43503       0   43505
   43506   43507   43506   43507   43507       0   43509   43510   43511   43510
   43511   43511       0   43513   43514   43515   43514   43515   43515       0
   43517   43518   43519   43518   43519   43519       0   43521   43522   43523
   43522   43523   43523       0   43525   43526   43527   43526   43527   43527
       0   43529   43530   43531   43530   43531   43531       0   43533   43534
   43535   43534   43535   43535       0   43537   43538   43539   43538   43539
   43539       0   43541   43542   43543   43542   43543   43543       0   43545
   43546   43547   43546   43547   43547       0   43549   43550   43551   43550
   43551   43551       0   43553   43554   43555   43554   43555   43555       0
   43557   43558   43559   43558   43559   43559       0   43561   43562   43563
   43562   43563   43563       0   43565   43566   43567   43566   43567   43567
       0   43569   43570   43571   43570   43571   43571       0   43573   43574
   43575   43574   43575   43575       0   43577   43578   43579   43578   43579
   43579       0   43581   43582   43583   43582   43583   43583       0   43585
   43586   43587   43586   43587   43587       0   43589   43590   43591   43590
   43591   43591       0   43593   43594   43595   43594   43595   43595       0
   43597   43598   43599   43598   43599   43599       0   43601   43602   43603
   43602   43603   43603       0   43605   43606   43607   43606   43607   43607
       0   43609   43610   43611   43610   43611   43611       0   43613   43614
   43615   43614   43615   43615       0   43617   43618   43619   43618   43619
   43619       0   43621   43622   43623   43622   43623   43623       0   43625
   43626   43627   43626   43627   43627       0   43629   43630   43631   43630
   43631   43631       0   43633   43634   43635   43634   43635   43635       0
   43637   43638   43639   43638   43639   43639       0   43641   43642   43643
   43642   43643   43643       0   43645   43646   43647   43646   43647   43647
       0   43649   43650   43651   43650   43651   43651       0   43653   43654
   43655   43654   43655   43655       0   43657   43658   43659   43658   43659
   43659       0   43661   43662   43663   43662   43663   43663       0   43665
   43666   43667   43666   43667   43667       0   43669   43670   43671   43670
   43671   43671       0   43673   43674   43675   43674   43675   43675       0
   43677   43678   43679   43678   43679   43679       0   43681   43682   43683
   43682   43683   43683       0   43685   43686   43687   43686   43687   43687
       0   43689   43690   43691   43690   43691   43691       0   43693   43694
   43695   43694   43695   43695       0   43697   43698   43699   43698   43699
   43699       0   43701   43702   43703   43702   43703   43703       0   43705
   43706   43707   43706   43707   43707       0   43709   43710   43711   43710
   43711   43711       0   43713   43714   43715   43714   43715   43715       0
   43717   43718   43719   43718   43719   43719       0   43721   43722   43723
   43722   43723   43723       0   43725   43726   43727   43726   43727   43727
       0   43729   43730   43731   43730   43731   43731       0   43733   43734
   43735   43734   43735   43735       0   43737   43738   43739   43738   43739
   43739       0   43741   43742   43743   43742   43743   43743       0   43745
   43746   43747   43746   43747   43747       0   43749   43750   43751   43750
   43751   43751       0   43753   43754   43755   43754   43755   43755       0
   43757   43758   43759   43758   43759   43759       0   43761   43762   43763
   43762   43763   43763       0   43765   43766   43767   43766   43767   43767
       0   43769   43770   43771   43770   43771   43771       0   43773   43774
   43775   43774   43775   43775       0   43777   43778   43779   43778   43779
   43779       0   43781   43782   43783   43782   43783   43783       0   43785
   43786   43787   43786   43787   43787       0   43789   43790   43791   43790
   43791   43791       0   43793   43794   43795   43794   43795   43795       0
   43797   43798   43799   43798   43799   43799       0   43801   43802   43803
   43802   43803   43803       0   43805   43806   43807   43806   43807   43807
       0   43809   43810   43811   43810   43811   43811       0   43813   43814
   43815   43814   43815   43815       0   43817   43818   43819   43818   43819
   43819       0   43821   43822   43823   43822   43823   43823       0   43825
   43826   43827   43826   43827   43827       0   43829   43830   43831   43830
   43831   43831       0   43833   43834   43835   43834   43835   43835       0
   43837   43838   43839   43838   43839   43839       0   43841   43842   43843
   43842   43843   43843       0   43845   43846   43847   43846   43847   43847
       0   43849   43850   43851   43850   43851   43851       0   43853   43854
   43855   43854   43855   43855       0   43857   43858   43859   43858   43859
   43859       0   43861   43862   43863   43862   43863   43863       0   43865
   43866   43867   43866   43867   43867       0   43869   43870   43871   43870
   43871   43871       0   43873   43874   43875   43874   43875   43875       0
   43877   43878   43879   43878   43879   43879       0   43881   43882   43883
   43882   43883   43883       0   43885   43886   43887   43886   43887   43887
       0   43889   43890   43891   43890   43891   43891       0   43893   43894
   43895   43894   43895   43895       0   43897   43898   43899   43898   43899
   43899       0   43901   43902   43903   43902   43903   43903       0   43905
   43906   43907   43906   43907   43907       0   43909   43910   43911   43910
   43911   43911       0   43913   43914   43915   43914   43915   43915       0
   43917   43918   43919   43918   43919   43919       0   43921   43922   43923
   43922   43923   43923       0   43925   43926   43927   43926   43927   43927
       0   43929   43930   43931   43930   43931   43931       0   43933   43934
   43935   43934   43935   43935       0   43937   43938   43939   43938   43939
   43939       0   43941   43942   43943   43942   43943   43943       0   43945
   43946   43947   43946   43947   43947       0   43949   43950   43951   43950
   43951   43951       0   43953   43954   43955   43954   43955   43955       0
   43957   43958   43959   43958   43959   43959       0   43961   43962   43963
   43962   43963   43963       0   43965   43966   43967   43966   43967   43967
       0   43969   43970   43971   43970   43971   43971       0   43973   43974
   43975   43974   43975   43975       0   43977   43978   43979   43978   43979
   43979       0   43981   43982   43983   43982   43983   43983       0   43985
   43986   43987   43986   43987   43987       0   43989   43990   43991   43990
   43991   43991       0   43993   43994   43995   43994   43995   43995       0
   43997   43998   43999   43998   43999   43999       0   44001   44002   44003
   44002   44003   44003       0   44005   44006   44007   44006   44007   44007
       0   44009   44010   44011   44010   44011   44011       0   44013   44014
   44015   44014   44015   44015       0   44017   44018   44019   44018   44019
   44019       0   44021   44022   44023   44022   44023   44023       0   44025
   44026   44027   44026   44027   44027       0   44029   44030   44031   44030
   44031   44031       0   44033   44034   44035   44034   44035   44035       0
   44037   44038   44039   44038   44039   44039       0   44041   44042   44043
   44042   44043   44043       0   44045   44046   44047   44046   44047   44047
       0   44049   44050   44051   44050   44051   44051       0   44053   44054
   44055   44054   44055   44055       0   44057   44058   44059   44058   44059
   44059       0   44061   44062   44063   44062   44063   44063       0   44065
   44066   44067   44066   44067   44067       0   44069   44070   44071   44070
   44071   44071       0   44073   44074   44075   44074   44075   44075       0
   44077   44078   44079   44078   44079   44079       0   44081   44082   44083
   44082   44083   44083       0   44085   44086   44087   44086   44087   44087
       0   44089   44090   44091   44090   44091   44091       0   44093   44094
   44095   44094   44095   44095       0   44097   44098   44099   44098   44099
   44099       0   44101   44102   44103   44102   44103   44103       0   44105
   44106   44107   44106   44107   44107       0   44109   44110   44111   44110
   44111   44111       0   44113   44114   44115   44114   44115   44115       0
   44117   44118   44119   44118   44119   44119       0   44121   44122   44123
   44122   44123   44123       0   44125   44126   44127   44126   44127   44127
       0   44129   44130   44131   44130   44131   44131       0   44133   44134
   44135   44134   44135   44135       0   44137   44138   44139   44138   44139
   44139       0   44141   44142   44143   44142   44143   44143       0   44145
   44146   44147   44146   44147   44147       0   44149   44150   44151   44150
   44151   44151       0   44153   44154   44155   44154   44155   44155       0
   44157   44158   44159   44158   44159   44159       0   44161   44162   44163
   44162   44163   44163       0   44165   44166   44167   44166   44167   44167
       0   44169   44170   44171   44170   44171   44171       0   44173   44174
   44175   44174   44175   44175       0   44177   44178   44179   44178   44179
   44179       0   44181   44182   44183   44182   44183   44183       0   44185
   44186   44187   44186   44187   44187       0   44189   44190   44191   44190
   44191   44191       0   44193   44194   44195   44194   44195   44195       0
   44197   44198   44199   44198   44199   44199       0   44201   44202   44203
   44202   44203   44203       0   44205   44206   44207   44206   44207   44207
       0   44209   44210   44211   44210   44211   44211       0   44213   44214
   44215   44214   44215   44215       0   44217   44218   44219   44218   44219
   44219       0   44221   44222   44223   44222   44223   44223       0   44225
   44226   44227   44226   44227   44227       0   44229   44230   44231   44230
   44231   44231       0   44233   44234   44235   44234   44235   44235       0
   44237   44238   44239   44238   44239   44239       0   44241   44242   44243
   44242   44243   44243       0   44245   44246   44247   44246   44247   44247
       0   44249   44250   44251   44250   44251   44251       0   44253   44254
   44255   44254   44255   44255       0   44257   44258   44259   44258   44259
   44259       0   44261   44262   44263   44262   44263   44263       0   44265
   44266   44267   44266   44267   44267       0   44269   44270   44271   44270
   44271   44271       0   44273   44274   44275   44274   44275   44275       0
   44277   44278   44279   44278   44279   44279       0   44281   44282   44283
   44282   44283   44283       0   44285   44286   44287   44286   44287   44287
       0   44289   44290   44291   44290   44291   44291       0   44293   44294
   44295   44294   44295   44295       0   44297   44298   44299   44298   44299
   44299       0   44301   44302   44303   44302   44303   44303       0   44305
   44306   44307   44306   44307   44307       0   44309   44310   44311   44310
   44311   44311       0   44313   44314   44315   44314   44315   44315       0
   44317   44318   44319   44318   44319   44319       0   44321   44322   44323
   44322   44323   44323       0   44325   44326   44327   44326   44327   44327
       0   44329   44330   44331   44330   44331   44331       0   44333   44334
   44335   44334   44335   44335       0   44337   44338   44339   44338   44339
   44339       0   44341   44342   44343   44342   44343   44343       0   44345
   44346   44347   44346   44347   44347       0   44349   44350   44351   44350
   44351   44351       0   44353   44354   44355   44354   44355   44355       0
   44357   44358   44359   44358   44359   44359       0   44361   44362   44363
   44362   44363   44363       0   44365   44366   44367   44366   44367   44367
       0   44369   44370   44371   44370   44371   44371       0   44373   44374
   44375   44374   44375   44375       0   44377   44378   44379   44378   44379
   44379       0   44381   44382   44383   44382   44383   44383       0   44385
   44386   44387   44386   44387   44387       0   44389   44390   44391   44390
   44391   44391       0   44393   44394   44395   44394   44395   44395       0
   44397   44398   44399   44398   44399   44399       0   44401   44402   44403
   44402   44403   44403       0   44405   44406   44407   44406   44407   44407
       0   44409   44410   44411   44410   44411   44411       0   44413   44414
   44415   44414   44415   44415       0   44417   44418   44419   44418   44419
   44419       0   44421   44422   44423   44422   44423   44423       0   44425
   44426   44427   44426   44427   44427       0   44429   44430   44431   44430
   44431   44431       0   44433   44434   44435   44434   44435   44435       0
   44437   44438   44439   44438   44439   44439       0   44441   44442   44443
   44442   44443   44443       0   44445   44446   44447   44446   44447   44447
       0   44449   44450   44451   44450   44451   44451       0   44453   44454
   44455   44454   44455   44455       0   44457   44458   44459   44458   44459
   44459       0   44461   44462   44463   44462   44463   44463       0   44465
   44466   44467   44466   44467   44467       0   44469   44470   44471   44470
   44471   44471       0   44473   44474   44475   44474   44475   44475       0
   44477   44478   44479   44478   44479   44479       0   44481   44482   44483
   44482   44483   44483       0   44485   44486   44487   44486   44487   44487
       0   44489   44490   44491   44490   44491   44491       0   44493   44494
   44495   44494   44495   44495       0   44497   44498   44499   44498   44499
   44499       0   44501   44502   44503   44502   44503   44503       0   44505
   44506   44507   44506   44507   44507       0   44509   44510   44511   44510
   44511   44511       0   44513   44514   44515   44514   44515   44515       0
   44517   44518   44519   44518   44519   44519       0   44521   44522   44523
   44522   44523   44523       0   44525   44526   44527   44526   44527   44527
       0   44529   44530   44531   44530   44531   44531       0   44533   44534
   44535   44534   44535   44535       0   44537   44538   44539   44538   44539
   44539       0   44541   44542   44543   44542   44543   44543       0   44545
   44546   44547   44546   44547   44547       0   44549   44550   44551   44550
   44551   44551       0   44553   44554   44555   44554   44555   44555       0
   44557   44558   44559   44558   44559   44559       0   44561   44562   44563
   44562   44563   44563       0   44565   44566   44567   44566   44567   44567
       0   44569   44570   44571   44570   44571   44571       0   44573   44574
   44575   44574   44575   44575       0   44577   44578   44579   44578   44579
   44579       0   44581   44582   44583   44582   44583   44583       0   44585
   44586   44587   44586   44587   44587       0   44589   44590   44591   44590
   44591   44591       0   44593   44594   44595   44594   44595   44595       0
   44597   44598   44599   44598   44599   44599       0   44601   44602   44603
   44602   44603   44603       0   44605   44606   44607   44606   44607   44607
       0   44609   44610   44611   44610   44611   44611       0   44613   44614
   44615   44614   44615   44615       0   44617   44618   44619   44618   44619
   44619       0   44621   44622   44623   44622   44623   44623       0   44625
   44626   44627   44626   44627   44627       0   44629   44630   44631   44630
   44631   44631       0   44633   44634   44635   44634   44635   44635       0
   44637   44638   44639   44638   44639   44639       0   44641   44642   44643
   44642   44643   44643       0   44645   44646   44647   44646   44647   44647
       0   44649   44650   44651   44650   44651   44651       0   44653   44654
   44655   44654   44655   44655       0   44657   44658   44659   44658   44659
   44659       0   44661   44662   44663   44662   44663   44663       0   44665
   44666   44667   44666   44667   44667       0   44669   44670   44671   44670
   44671   44671       0   44673   44674   44675   44674   44675   44675       0
   44677   44678   44679   44678   44679   44679       0   44681   44682   44683
   44682   44683   44683       0   44685   44686   44687   44686   44687   44687
       0   44689   44690   44691   44690   44691   44691       0   44693   44694
   44695   44694   44695   44695       0   44697   44698   44699   44698   44699
   44699       0   44701   44702   44703   44702   44703   44703       0   44705
   44706   44707   44706   44707   44707       0   44709   44710   44711   44710
   44711   44711       0   44713   44714   44715   44714   44715   44715       0
   44717   44718   44719   44718   44719   44719       0   44721   44722   44723
   44722   44723   44723       0   44725   44726   44727   44726   44727   44727
       0   44729   44730   44731   44730   44731   44731       0   44733   44734
   44735   44734   44735   44735       0   44737   44738   44739   44738   44739
   44739       0   44741   44742   44743   44742   44743   44743       0   44745
   44746   44747   44746   44747   44747       0   44749   44750   44751   44750
   44751   44751       0   44753   44754   44755   44754   44755   44755       0
   44757   44758   44759   44758   44759   44759       0   44761   44762   44763
   44762   44763   44763       0   44765   44766   44767   44766   44767   44767
       0   44769   44770   44771   44770   44771   44771       0   44773   44774
   44775   44774   44775   44775       0   44777   44778   44779   44778   44779
   44779       0   44781   44782   44783   44782   44783   44783       0   44785
   44786   44787   44786   44787   44787       0   44789   44790   44791   44790
   44791   44791       0   44793   44794   44795   44794   44795   44795       0
   44797   44798   44799   44798   44799   44799       0   44801   44802   44803
   44802   44803   44803       0   44805   44806   44807   44806   44807   44807
       0   44809   44810   44811   44810   44811   44811       0   44813   44814
   44815   44814   44815   44815       0   44817   44818   44819   44818   44819
   44819       0   44821   44822   44823   44822   44823   44823       0   44825
   44826   44827   44826   44827   44827       0   44829   44830   44831   44830
   44831   44831       0   44833   44834   44835   44834   44835   44835       0
   44837   44838   44839   44838   44839   44839       0   44841   44842   44843
   44842   44843   44843       0   44845   44846   44847   44846   44847   44847
       0   44849   44850   44851   44850   44851   44851       0   44853   44854
   44855   44854   44855   44855       0   44857   44858   44859   44858   44859
   44859       0   44861   44862   44863   44862   44863   44863       0   44865
   44866   44867   44866   44867   44867       0   44869   44870   44871   44870
   44871   44871       0   44873   44874   44875   44874   44875   44875       0
   44877   44878   44879   44878   44879   44879       0   44881   44882   44883
   44882   44883   44883       0   44885   44886   44887   44886   44887   44887
       0   44889   44890   44891   44890   44891   44891       0   44893   44894
   44895   44894   44895   44895       0   44897   44898   44899   44898   44899
   44899       0   44901   44902   44903   44902   44903   44903       0   44905
   44906   44907   44906   44907   44907       0   44909   44910   44911   44910
   44911   44911       0   44913   44914   44915   44914   44915   44915       0
   44917   44918   44919   44918   44919   44919       0   44921   44922   44923
   44922   44923   44923       0   44925   44926   44927   44926   44927   44927
       0   44929   44930   44931   44930   44931   44931       0   44933   44934
   44935   44934   44935   44935       0   44937   44938   44939   44938   44939
   44939       0   44941   44942   44943   44942   44943   44943       0   44945
   44946   44947   44946   44947   44947       0   44949   44950   44951   44950
   44951   44951       0   44953   44954   44955   44954   44955   44955       0
   44957   44958   44959   44958   44959   44959       0   44961   44962   44963
   44962   44963   44963       0   44965   44966   44967   44966   44967   44967
       0   44969   44970   44971   44970   44971   44971       0   44973   44974
   44975   44974   44975   44975       0   44977   44978   44979   44978   44979
   44979       0   44981   44982   44983   44982   44983   44983       0   44985
   44986   44987   44986   44987   44987       0   44989   44990   44991   44990
   44991   44991       0   44993   44994   44995   44994   44995   44995       0
   44997   44998   44999   44998   44999   44999       0   45001   45002   45003
   45002   45003   45003       0   45005   45006   45007   45006   45007   45007
       0   45009   45010   45011   45010   45011   45011       0   45013   45014
   45015   45014   45015   45015       0   45017   45018   45019   45018   45019
   45019       0   45021   45022   45023   45022   45023   45023       0   45025
   45026   45027   45026   45027   45027       0   45029   45030   45031   45030
   45031   45031       0   45033   45034   45035   45034   45035   45035       0
   45037   45038   45039   45038   45039   45039       0   45041   45042   45043
   45042   45043   45043       0   45045   45046   45047   45046   45047   45047
       0   45049   45050   45051   45050   45051   45051       0   45053   45054
   45055   45054   45055   45055       0   45057   45058   45059   45058   45059
   45059       0   45061   45062   45063   45062   45063   45063       0   45065
   45066   45067   45066   45067   45067       0   45069   45070   45071   45070
   45071   45071       0   45073   45074   45075   45074   45075   45075       0
   45077   45078   45079   45078   45079   45079       0   45081   45082   45083
   45082   45083   45083       0   45085   45086   45087   45086   45087   45087
       0   45089   45090   45091   45090   45091   45091       0   45093   45094
   45095   45094   45095   45095       0   45097   45098   45099   45098   45099
   45099       0   45101   45102   45103   45102   45103   45103       0   45105
   45106   45107   45106   45107   45107       0   45109   45110   45111   45110
   45111   45111       0   45113   45114   45115   45114   45115   45115       0
   45117   45118   45119   45118   45119   45119       0   45121   45122   45123
   45122   45123   45123       0   45125   45126   45127   45126   45127   45127
       0   45129   45130   45131   45130   45131   45131       0   45133   45134
   45135   45134   45135   45135       0   45137   45138   45139   45138   45139
   45139       0   45141   45142   45143   45142   45143   45143       0   45145
   45146   45147   45146   45147   45147       0   45149   45150   45151   45150
   45151   45151       0   45153   45154   45155   45154   45155   45155       0
   45157   45158   45159   45158   45159   45159       0   45161   45162   45163
   45162   45163   45163       0   45165   45166   45167   45166   45167   45167
       0   45169   45170   45171   45170   45171   45171       0   45173   45174
   45175   45174   45175   45175       0   45177   45178   45179   45178   45179
   45179       0   45181   45182   45183   45182   45183   45183       0   45185
   45186   45187   45186   45187   45187       0   45189   45190   45191   45190
   45191   45191       0   45193   45194   45195   45194   45195   45195       0
   45197   45198   45199   45198   45199   45199       0   45201   45202   45203
   45202   45203   45203       0   45205   45206   45207   45206   45207   45207
       0   45209   45210   45211   45210   45211   45211       0   45213   45214
   45215   45214   45215   45215       0   45217   45218   45219   45218   45219
   45219       0   45221   45222   45223   45222   45223   45223       0   45225
   45226   45227   45226   45227   45227       0   45229   45230   45231   45230
   45231   45231       0   45233   45234   45235   45234   45235   45235       0
   45237   45238   45239   45238   45239   45239       0   45241   45242   45243
   45242   45243   45243       0   45245   45246   45247   45246   45247   45247
       0   45249   45250   45251   45250   45251   45251       0   45253   45254
   45255   45254   45255   45255       0   45257   45258   45259   45258   45259
   45259       0   45261   45262   45263   45262   45263   45263       0   45265
   45266   45267   45266   45267   45267       0   45269   45270   45271   45270
   45271   45271       0   45273   45274   45275   45274   45275   45275       0
   45277   45278   45279   45278   45279   45279       0   45281   45282   45283
   45282   45283   45283       0   45285   45286   45287   45286   45287   45287
       0   45289   45290   45291   45290   45291   45291       0   45293   45294
   45295   45294   45295   45295       0   45297   45298   45299   45298   45299
   45299       0   45301   45302   45303   45302   45303   45303       0   45305
   45306   45307   45306   45307   45307       0   45309   45310   45311   45310
   45311   45311       0   45313   45314   45315   45314   45315   45315       0
   45317   45318   45319   45318   45319   45319       0   45321   45322   45323
   45322   45323   45323       0   45325   45326   45327   45326   45327   45327
       0   45329   45330   45331   45330   45331   45331       0   45333   45334
   45335   45334   45335   45335       0   45337   45338   45339   45338   45339
   45339       0   45341   45342   45343   45342   45343   45343       0   45345
   45346   45347   45346   45347   45347       0   45349   45350   45351   45350
   45351   45351       0   45353   45354   45355   45354   45355   45355       0
   45357   45358   45359   45358   45359   45359       0   45361   45362   45363
   45362   45363   45363       0   45365   45366   45367   45366   45367   45367
       0   45369   45370   45371   45370   45371   45371       0   45373   45374
   45375   45374   45375   45375       0   45377   45378   45379   45378   45379
   45379       0   45381   45382   45383   45382   45383   45383       0   45385
   45386   45387   45386   45387   45387       0   45389   45390   45391   45390
   45391   45391       0   45393   45394   45395   45394   45395   45395       0
   45397   45398   45399   45398   45399   45399       0   45401   45402   45403
   45402   45403   45403       0   45405   45406   45407   45406   45407   45407
       0   45409   45410   45411   45410   45411   45411       0   45413   45414
   45415   45414   45415   45415       0   45417   45418   45419   45418   45419
   45419       0   45421   45422   45423   45422   45423   45423       0   45425
   45426   45427   45426   45427   45427       0   45429   45430   45431   45430
   45431   45431       0   45433   45434   45435   45434   45435   45435       0
   45437   45438   45439   45438   45439   45439       0   45441   45442   45443
   45442   45443   45443       0   45445   45446   45447   45446   45447   45447
       0   45449   45450   45451   45450   45451   45451       0   45453   45454
   45455   45454   45455   45455       0   45457   45458   45459   45458   45459
   45459       0   45461   45462   45463   45462   45463   45463       0   45465
   45466   45467   45466   45467   45467       0   45469   45470   45471   45470
   45471   45471       0   45473   45474   45475   45474   45475   45475       0
   45477   45478   45479   45478   45479   45479       0   45481   45482   45483
   45482   45483   45483       0   45485   45486   45487   45486   45487   45487
       0   45489   45490   45491   45490   45491   45491       0   45493   45494
   45495   45494   45495   45495       0   45497   45498   45499   45498   45499
   45499       0   45501   45502   45503   45502   45503   45503       0   45505
   45506   45507   45506   45507   45507       0   45509   45510   45511   45510
   45511   45511       0   45513   45514   45515   45514   45515   45515       0
   45517   45518   45519   45518   45519   45519       0   45521   45522   45523
   45522   45523   45523       0   45525   45526   45527   45526   45527   45527
       0   45529   45530   45531   45530   45531   45531       0   45533   45534
   45535   45534   45535   45535       0   45537   45538   45539   45538   45539
   45539       0   45541   45542   45543   45542   45543   45543       0   45545
   45546   45547   45546   45547   45547       0   45549   45550   45551   45550
   45551   45551       0   45553   45554   45555   45554   45555   45555       0
   45557   45558   45559   45558   45559   45559       0   45561   45562   45563
   45562   45563   45563       0   45565   45566   45567   45566   45567   45567
       0   45569   45570   45571   45570   45571   45571       0   45573   45574
   45575   45574   45575   45575       0   45577   45578   45579   45578   45579
   45579       0   45581   45582   45583   45582   45583   45583       0   45585
   45586   45587   45586   45587   45587       0   45589   45590   45591   45590
   45591   45591       0   45593   45594   45595   45594   45595   45595       0
   45597   45598   45599   45598   45599   45599       0   45601   45602   45603
   45602   45603   45603       0   45605   45606   45607   45606   45607   45607
       0   45609   45610   45611   45610   45611   45611       0   45613   45614
   45615   45614   45615   45615       0   45617   45618   45619   45618   45619
   45619       0   45621   45622   45623   45622   45623   45623       0   45625
   45626   45627   45626   45627   45627       0   45629   45630   45631   45630
   45631   45631       0   45633   45634   45635   45634   45635   45635       0
   45637   45638   45639   45638   45639   45639       0   45641   45642   45643
   45642   45643   45643       0   45645   45646   45647   45646   45647   45647
       0   45649   45650   45651   45650   45651   45651       0   45653   45654
   45655   45654   45655   45655       0   45657   45658   45659   45658   45659
   45659       0   45661   45662   45663   45662   45663   45663       0   45665
   45666   45667   45666   45667   45667       0   45669   45670   45671   45670
   45671   45671       0   45673   45674   45675   45674   45675   45675       0
   45677   45678   45679   45678   45679   45679       0   45681   45682   45683
   45682   45683   45683       0   45685   45686   45687   45686   45687   45687
       0   45689   45690   45691   45690   45691   45691       0   45693   45694
   45695   45694   45695   45695       0   45697   45698   45699   45698   45699
   45699       0   45701   45702   45703   45702   45703   45703       0   45705
   45706   45707   45706   45707   45707       0   45709   45710   45711   45710
   45711   45711       0   45713   45714   45715   45714   45715   45715       0
   45717   45718   45719   45718   45719   45719       0   45721   45722   45723
   45722   45723   45723       0   45725   45726   45727   45726   45727   45727
       0   45729   45730   45731   45730   45731   45731       0   45733   45734
   45735   45734   45735   45735       0   45737   45738   45739   45738   45739
   45739       0   45741   45742   45743   45742   45743   45743       0   45745
   45746   45747   45746   45747   45747       0   45749   45750   45751   45750
   45751   45751       0   45753   45754   45755   45754   45755   45755       0
   45757   45758   45759   45758   45759   45759       0   45761   45762   45763
   45762   45763   45763       0   45765   45766   45767   45766   45767   45767
       0   45769   45770   45771   45770   45771   45771       0   45773   45774
   45775   45774   45775   45775       0   45777   45778   45779   45778   45779
   45779       0   45781   45782   45783   45782   45783   45783       0   45785
   45786   45787   45786   45787   45787       0   45789   45790   45791   45790
   45791   45791       0   45793   45794   45795   45794   45795   45795       0
   45797   45798   45799   45798   45799   45799       0   45801   45802   45803
   45802   45803   45803       0   45805   45806   45807   45806   45807   45807
       0   45809   45810   45811   45810   45811   45811       0   45813   45814
   45815   45814   45815   45815       0   45817   45818   45819   45818   45819
   45819       0   45821   45822   45823   45822   45823   45823       0   45825
   45826   45827   45826   45827   45827       0   45829   45830   45831   45830
   45831   45831       0   45833   45834   45835   45834   45835   45835       0
   45837   45838   45839   45838   45839   45839       0   45841   45842   45843
   45842   45843   45843       0   45845   45846   45847   45846   45847   45847
       0   45849   45850   45851   45850   45851   45851       0   45853   45854
   45855   45854   45855   45855       0   45857   45858   45859   45858   45859
   45859       0   45861   45862   45863   45862   45863   45863       0   45865
   45866   45867   45866   45867   45867       0   45869   45870   45871   45870
   45871   45871       0   45873   45874   45875   45874   45875   45875       0
   45877   45878   45879   45878   45879   45879       0   45881   45882   45883
   45882   45883   45883       0   45885   45886   45887   45886   45887   45887
       0   45889   45890   45891   45890   45891   45891       0   45893   45894
   45895   45894   45895   45895       0   45897   45898   45899   45898   45899
   45899       0   45901   45902   45903   45902   45903   45903       0   45905
   45906   45907   45906   45907   45907       0   45909   45910   45911   45910
   45911   45911       0   45913   45914   45915   45914   45915   45915       0
   45917   45918   45919   45918   45919   45919       0   45921   45922   45923
   45922   45923   45923       0   45925   45926   45927   45926   45927   45927
       0   45929   45930   45931   45930   45931   45931       0   45933   45934
   45935   45934   45935   45935       0   45937   45938   45939   45938   45939
   45939       0   45941   45942   45943   45942   45943   45943       0   45945
   45946   45947   45946   45947   45947       0   45949   45950   45951   45950
   45951   45951       0   45953   45954   45955   45954   45955   45955       0
   45957   45958   45959   45958   45959   45959       0   45961   45962   45963
   45962   45963   45963       0   45965   45966   45967   45966   45967   45967
       0   45969   45970   45971   45970   45971   45971       0   45973   45974
   45975   45974   45975   45975       0   45977   45978   45979   45978   45979
   45979       0   45981   45982   45983   45982   45983   45983       0   45985
   45986   45987   45986   45987   45987       0   45989   45990   45991   45990
   45991   45991       0   45993   45994   45995   45994   45995   45995       0
   45997   45998   45999   45998   45999   45999       0   46001   46002   46003
   46002   46003   46003       0   46005   46006   46007   46006   46007   46007
       0   46009   46010   46011   46010   46011   46011       0   46013   46014
   46015   46014   46015   46015       0   46017   46018   46019   46018   46019
   46019       0   46021   46022   46023   46022   46023   46023       0   46025
   46026   46027   46026   46027   46027       0   46029   46030   46031   46030
   46031   46031       0   46033   46034   46035   46034   46035   46035       0
   46037   46038   46039   46038   46039   46039       0   46041   46042   46043
   46042   46043   46043       0   46045   46046   46047   46046   46047   46047
       0   46049   46050   46051   46050   46051   46051       0   46053   46054
   46055   46054   46055   46055       0   46057   46058   46059   46058   46059
   46059       0   46061   46062   46063   46062   46063   46063       0   46065
   46066   46067   46066   46067   46067       0   46069   46070   46071   46070
   46071   46071       0   46073   46074   46075   46074   46075   46075       0
   46077   46078   46079   46078   46079   46079       0   46081   46082   46083
   46082   46083   46083       0   46085   46086   46087   46086   46087   46087
       0   46089   46090   46091   46090   46091   46091       0   46093   46094
   46095   46094   46095   46095       0   46097   46098   46099   46098   46099
   46099       0   46101   46102   46103   46102   46103   46103       0   46105
   46106   46107   46106   46107   46107       0   46109   46110   46111   46110
   46111   46111       0   46113   46114   46115   46114   46115   46115       0
   46117   46118   46119   46118   46119   46119       0   46121   46122   46123
   46122   46123   46123       0   46125   46126   46127   46126   46127   46127
       0   46129   46130   46131   46130   46131   46131       0   46133   46134
   46135   46134   46135   46135       0   46137   46138   46139   46138   46139
   46139       0   46141   46142   46143   46142   46143   46143       0   46145
   46146   46147   46146   46147   46147       0   46149   46150   46151   46150
   46151   46151       0   46153   46154   46155   46154   46155   46155       0
   46157   46158   46159   46158   46159   46159       0   46161   46162   46163
   46162   46163   46163       0   46165   46166   46167   46166   46167   46167
       0   46169   46170   46171   46170   46171   46171       0   46173   46174
   46175   46174   46175   46175       0   46177   46178   46179   46178   46179
   46179       0   46181   46182   46183   46182   46183   46183       0   46185
   46186   46187   46186   46187   46187       0   46189   46190   46191   46190
   46191   46191       0   46193   46194   46195   46194   46195   46195       0
   46197   46198   46199   46198   46199   46199       0   46201   46202   46203
   46202   46203   46203       0   46205   46206   46207   46206   46207   46207
       0   46209   46210   46211   46210   46211   46211       0   46213   46214
   46215   46214   46215   46215       0   46217   46218   46219   46218   46219
   46219       0   46221   46222   46223   46222   46223   46223       0   46225
   46226   46227   46226   46227   46227       0   46229   46230   46231   46230
   46231   46231       0   46233   46234   46235   46234   46235   46235       0
   46237   46238   46239   46238   46239   46239       0   46241   46242   46243
   46242   46243   46243       0   46245   46246   46247   46246   46247   46247
       0   46249   46250   46251   46250   46251   46251       0   46253   46254
   46255   46254   46255   46255       0   46257   46258   46259   46258   46259
   46259       0   46261   46262   46263   46262   46263   46263       0   46265
   46266   46267   46266   46267   46267       0   46269   46270   46271   46270
   46271   46271       0   46273   46274   46275   46274   46275   46275       0
   46277   46278   46279   46278   46279   46279       0   46281   46282   46283
   46282   46283   46283       0   46285   46286   46287   46286   46287   46287
       0   46289   46290   46291   46290   46291   46291       0   46293   46294
   46295   46294   46295   46295       0   46297   46298   46299   46298   46299
   46299       0   46301   46302   46303   46302   46303   46303       0   46305
   46306   46307   46306   46307   46307       0   46309   46310   46311   46310
   46311   46311       0   46313   46314   46315   46314   46315   46315       0
   46317   46318   46319   46318   46319   46319       0   46321   46322   46323
   46322   46323   46323       0   46325   46326   46327   46326   46327   46327
       0   46329   46330   46331   46330   46331   46331       0   46333   46334
   46335   46334   46335   46335       0   46337   46338   46339   46338   46339
   46339       0   46341   46342   46343   46342   46343   46343       0   46345
   46346   46347   46346   46347   46347       0   46349   46350   46351   46350
   46351   46351       0   46353   46354   46355   46354   46355   46355       0
   46357   46358   46359   46358   46359   46359       0   46361   46362   46363
   46362   46363   46363       0   46365   46366   46367   46366   46367   46367
       0   46369   46370   46371   46370   46371   46371       0   46373   46374
   46375   46374   46375   46375       0   46377   46378   46379   46378   46379
   46379       0   46381   46382   46383   46382   46383   46383       0   46385
   46386   46387   46386   46387   46387       0   46389   46390   46391   46390
   46391   46391       0   46393   46394   46395   46394   46395   46395       0
   46397   46398   46399   46398   46399   46399       0   46401   46402   46403
   46402   46403   46403       0   46405   46406   46407   46406   46407   46407
       0   46409   46410   46411   46410   46411   46411       0   46413   46414
   46415   46414   46415   46415       0   46417   46418   46419   46418   46419
   46419       0   46421   46422   46423   46422   46423   46423       0   46425
   46426   46427   46426   46427   46427       0   46429   46430   46431   46430
   46431   46431       0   46433   46434   46435   46434   46435   46435       0
   46437   46438   46439   46438   46439   46439       0   46441   46442   46443
   46442   46443   46443       0   46445   46446   46447   46446   46447   46447
       0   46449   46450   46451   46450   46451   46451       0   46453   46454
   46455   46454   46455   46455       0   46457   46458   46459   46458   46459
   46459       0   46461   46462   46463   46462   46463   46463       0   46465
   46466   46467   46466   46467   46467       0   46469   46470   46471   46470
   46471   46471       0   46473   46474   46475   46474   46475   46475       0
   46477   46478   46479   46478   46479   46479       0   46481   46482   46483
   46482   46483   46483       0   46485   46486   46487   46486   46487   46487
       0   46489   46490   46491   46490   46491   46491       0   46493   46494
   46495   46494   46495   46495       0   46497   46498   46499   46498   46499
   46499       0   46501   46502   46503   46502   46503   46503       0   46505
   46506   46507   46506   46507   46507       0   46509   46510   46511   46510
   46511   46511       0   46513   46514   46515   46514   46515   46515       0
   46517   46518   46519   46518   46519   46519       0   46521   46522   46523
   46522   46523   46523       0   46525   46526   46527   46526   46527   46527
       0   46529   46530   46531   46530   46531   46531       0   46533   46534
   46535   46534   46535   46535       0   46537   46538   46539   46538   46539
   46539       0   46541   46542   46543   46542   46543   46543       0   46545
   46546   46547   46546   46547   46547       0   46549   46550   46551   46550
   46551   46551       0   46553   46554   46555   46554   46555   46555       0
   46557   46558   46559   46558   46559   46559       0   46561   46562   46563
   46562   46563   46563       0   46565   46566   46567   46566   46567   46567
       0   46569   46570   46571   46570   46571   46571       0   46573   46574
   46575   46574   46575   46575       0   46577   46578   46579   46578   46579
   46579       0   46581   46582   46583   46582   46583   46583       0   46585
   46586   46587   46586   46587   46587       0   46589   46590   46591   46590
   46591   46591       0   46593   46594   46595   46594   46595   46595       0
   46597   46598   46599   46598   46599   46599       0   46601   46602   46603
   46602   46603   46603       0   46605   46606   46607   46606   46607   46607
       0   46609   46610   46611   46610   46611   46611       0   46613   46614
   46615   46614   46615   46615       0   46617   46618   46619   46618   46619
   46619       0   46621   46622   46623   46622   46623   46623       0   46625
   46626   46627   46626   46627   46627       0   46629   46630   46631   46630
   46631   46631       0   46633   46634   46635   46634   46635   46635       0
   46637   46638   46639   46638   46639   46639       0   46641   46642   46643
   46642   46643   46643       0   46645   46646   46647   46646   46647   46647
       0   46649   46650   46651   46650   46651   46651       0   46653   46654
   46655   46654   46655   46655       0   46657   46658   46659   46658   46659
   46659       0   46661   46662   46663   46662   46663   46663       0   46665
   46666   46667   46666   46667   46667       0   46669   46670   46671   46670
   46671   46671       0   46673   46674   46675   46674   46675   46675       0
   46677   46678   46679   46678   46679   46679       0   46681   46682   46683
   46682   46683   46683       0   46685   46686   46687   46686   46687   46687
       0   46689   46690   46691   46690   46691   46691       0   46693   46694
   46695   46694   46695   46695       0   46697   46698   46699   46698   46699
   46699       0   46701   46702   46703   46702   46703   46703       0   46705
   46706   46707   46706   46707   46707       0   46709   46710   46711   46710
   46711   46711       0   46713   46714   46715   46714   46715   46715       0
   46717   46718   46719   46718   46719   46719       0   46721   46722   46723
   46722   46723   46723       0   46725   46726   46727   46726   46727   46727
       0   46729   46730   46731   46730   46731   46731       0   46733   46734
   46735   46734   46735   46735       0   46737   46738   46739   46738   46739
   46739       0   46741   46742   46743   46742   46743   46743       0   46745
   46746   46747   46746   46747   46747       0   46749   46750   46751   46750
   46751   46751       0   46753   46754   46755   46754   46755   46755       0
   46757   46758   46759   46758   46759   46759       0   46761   46762   46763
   46762   46763   46763       0   46765   46766   46767   46766   46767   46767
       0   46769   46770   46771   46770   46771   46771       0   46773   46774
   46775   46774   46775   46775       0   46777   46778   46779   46778   46779
   46779       0   46781   46782   46783   46782   46783   46783       0   46785
   46786   46787   46786   46787   46787       0   46789   46790   46791   46790
   46791   46791       0   46793   46794   46795   46794   46795   46795       0
   46797   46798   46799   46798   46799   46799       0   46801   46802   46803
   46802   46803   46803       0   46805   46806   46807   46806   46807   46807
       0   46809   46810   46811   46810   46811   46811       0   46813   46814
   46815   46814   46815   46815       0   46817   46818   46819   46818   46819
   46819       0   46821   46822   46823   46822   46823   46823       0   46825
   46826   46827   46826   46827   46827       0   46829   46830   46831   46830
   46831   46831       0   46833   46834   46835   46834   46835   46835       0
   46837   46838   46839   46838   46839   46839       0   46841   46842   46843
   46842   46843   46843       0   46845   46846   46847   46846   46847   46847
       0   46849   46850   46851   46850   46851   46851       0   46853   46854
   46855   46854   46855   46855       0   46857   46858   46859   46858   46859
   46859       0   46861   46862   46863   46862   46863   46863       0   46865
   46866   46867   46866   46867   46867       0   46869   46870   46871   46870
   46871   46871       0   46873   46874   46875   46874   46875   46875       0
   46877   46878   46879   46878   46879   46879       0   46881   46882   46883
   46882   46883   46883       0   46885   46886   46887   46886   46887   46887
       0   46889   46890   46891   46890   46891   46891       0   46893   46894
   46895   46894   46895   46895       0   46897   46898   46899   46898   46899
   46899       0   46901   46902   46903   46902   46903   46903       0   46905
   46906   46907   46906   46907   46907       0   46909   46910   46911   46910
   46911   46911       0   46913   46914   46915   46914   46915   46915       0
   46917   46918   46919   46918   46919   46919       0   46921   46922   46923
   46922   46923   46923       0   46925   46926   46927   46926   46927   46927
       0   46929   46930   46931   46930   46931   46931       0   46933   46934
   46935   46934   46935   46935       0   46937   46938   46939   46938   46939
   46939       0   46941   46942   46943   46942   46943   46943       0   46945
   46946   46947   46946   46947   46947       0   46949   46950   46951   46950
   46951   46951       0   46953   46954   46955   46954   46955   46955       0
   46957   46958   46959   46958   46959   46959       0   46961   46962   46963
   46962   46963   46963       0   46965   46966   46967   46966   46967   46967
       0   46969   46970   46971   46970   46971   46971       0   46973   46974
   46975   46974   46975   46975       0   46977   46978   46979   46978   46979
   46979       0   46981   46982   46983   46982   46983   46983       0   46985
   46986   46987   46986   46987   46987       0   46989   46990   46991   46990
   46991   46991       0   46993   46994   46995   46994   46995   46995       0
   46997   46998   46999   46998   46999   46999       0   47001   47002   47003
   47002   47003   47003       0   47005   47006   47007   47006   47007   47007
       0   47009   47010   47011   47010   47011   47011       0   47013   47014
   47015   47014   47015   47015       0   47017   47018   47019   47018   47019
   47019       0   47021   47022   47023   47022   47023   47023       0   47025
   47026   47027   47026   47027   47027       0   47029   47030   47031   47030
   47031   47031       0   47033   47034   47035   47034   47035   47035       0
   47037   47038   47039   47038   47039   47039       0   47041   47042   47043
   47042   47043   47043       0   47045   47046   47047   47046   47047   47047
       0   47049   47050   47051   47050   47051   47051       0   47053   47054
   47055   47054   47055   47055       0   47057   47058   47059   47058   47059
   47059       0   47061   47062   47063   47062   47063   47063       0   47065
   47066   47067   47066   47067   47067       0   47069   47070   47071   47070
   47071   47071       0   47073   47074   47075   47074   47075   47075       0
   47077   47078   47079   47078   47079   47079       0   47081   47082   47083
   47082   47083   47083       0   47085   47086   47087   47086   47087   47087
       0   47089   47090   47091   47090   47091   47091       0   47093   47094
   47095   47094   47095   47095       0   47097   47098   47099   47098   47099
   47099       0   47101   47102   47103   47102   47103   47103       0   47105
   47106   47107   47106   47107   47107       0   47109   47110   47111   47110
   47111   47111       0   47113   47114   47115   47114   47115   47115       0
   47117   47118   47119   47118   47119   47119       0   47121   47122   47123
   47122   47123   47123       0   47125   47126   47127   47126   47127   47127
       0   47129   47130   47131   47130   47131   47131       0   47133   47134
   47135   47134   47135   47135       0   47137   47138   47139   47138   47139
   47139       0   47141   47142   47143   47142   47143   47143       0   47145
   47146   47147   47146   47147   47147       0   47149   47150   47151   47150
   47151   47151       0   47153   47154   47155   47154   47155   47155       0
   47157   47158   47159   47158   47159   47159       0   47161   47162   47163
   47162   47163   47163       0   47165   47166   47167   47166   47167   47167
       0   47169   47170   47171   47170   47171   47171       0   47173   47174
   47175   47174   47175   47175       0   47177   47178   47179   47178   47179
   47179       0   47181   47182   47183   47182   47183   47183       0   47185
   47186   47187   47186   47187   47187       0   47189   47190   47191   47190
   47191   47191       0   47193   47194   47195   47194   47195   47195       0
   47197   47198   47199   47198   47199   47199       0   47201   47202   47203
   47202   47203   47203       0   47205   47206   47207   47206   47207   47207
       0   47209   47210   47211   47210   47211   47211       0   47213   47214
   47215   47214   47215   47215       0   47217   47218   47219   47218   47219
   47219       0   47221   47222   47223   47222   47223   47223       0   47225
   47226   47227   47226   47227   47227       0   47229   47230   47231   47230
   47231   47231       0   47233   47234   47235   47234   47235   47235       0
   47237   47238   47239   47238   47239   47239       0   47241   47242   47243
   47242   47243   47243       0   47245   47246   47247   47246   47247   47247
       0   47249   47250   47251   47250   47251   47251       0   47253   47254
   47255   47254   47255   47255       0   47257   47258   47259   47258   47259
   47259       0   47261   47262   47263   47262   47263   47263       0   47265
   47266   47267   47266   47267   47267       0   47269   47270   47271   47270
   47271   47271       0   47273   47274   47275   47274   47275   47275       0
   47277   47278   47279   47278   47279   47279       0   47281   47282   47283
   47282   47283   47283       0   47285   47286   47287   47286   47287   47287
       0   47289   47290   47291   47290   47291   47291       0   47293   47294
   47295   47294   47295   47295       0   47297   47298   47299   47298   47299
   47299       0   47301   47302   47303   47302   47303   47303       0   47305
   47306   47307   47306   47307   47307       0   47309   47310   47311   47310
   47311   47311       0   47313   47314   47315   47314   47315   47315       0
   47317   47318   47319   47318   47319   47319       0   47321   47322   47323
   47322   47323   47323       0   47325   47326   47327   47326   47327   47327
       0   47329   47330   47331   47330   47331   47331       0   47333   47334
   47335   47334   47335   47335       0   47337   47338   47339   47338   47339
   47339       0   47341   47342   47343   47342   47343   47343       0   47345
   47346   47347   47346   47347   47347       0   47349   47350   47351   47350
   47351   47351       0   47353   47354   47355   47354   47355   47355       0
   47357   47358   47359   47358   47359   47359       0   47361   47362   47363
   47362   47363   47363       0   47365   47366   47367   47366   47367   47367
       0   47369   47370   47371   47370   47371   47371       0   47373   47374
   47375   47374   47375   47375       0   47377   47378   47379   47378   47379
   47379       0   47381   47382   47383   47382   47383   47383       0   47385
   47386   47387   47386   47387   47387       0   47389   47390   47391   47390
   47391   47391       0   47393   47394   47395   47394   47395   47395       0
   47397   47398   47399   47398   47399   47399       0   47401   47402   47403
   47402   47403   47403       0   47405   47406   47407   47406   47407   47407
       0   47409   47410   47411   47410   47411   47411       0   47413   47414
   47415   47414   47415   47415       0   47417   47418   47419   47418   47419
   47419       0   47421   47422   47423   47422   47423   47423       0   47425
   47426   47427   47426   47427   47427       0   47429   47430   47431   47430
   47431   47431       0   47433   47434   47435   47434   47435   47435       0
   47437   47438   47439   47438   47439   47439       0   47441   47442   47443
   47442   47443   47443       0   47445   47446   47447   47446   47447   47447
       0   47449   47450   47451   47450   47451   47451       0   47453   47454
   47455   47454   47455   47455       0   47457   47458   47459   47458   47459
   47459       0   47461   47462   47463   47462   47463   47463       0   47465
   47466   47467   47466   47467   47467       0   47469   47470   47471   47470
   47471   47471       0   47473   47474   47475   47474   47475   47475       0
   47477   47478   47479   47478   47479   47479       0   47481   47482   47483
   47482   47483   47483       0   47485   47486   47487   47486   47487   47487
       0   47489   47490   47491   47490   47491   47491       0   47493   47494
   47495   47494   47495   47495       0   47497   47498   47499   47498   47499
   47499       0   47501   47502   47503   47502   47503   47503       0   47505
   47506   47507   47506   47507   47507       0   47509   47510   47511   47510
   47511   47511       0   47513   47514   47515   47514   47515   47515       0
   47517   47518   47519   47518   47519   47519       0   47521   47522   47523
   47522   47523   47523       0   47525   47526   47527   47526   47527   47527
       0   47529   47530   47531   47530   47531   47531       0   47533   47534
   47535   47534   47535   47535       0   47537   47538   47539   47538   47539
   47539       0   47541   47542   47543   47542   47543   47543       0   47545
   47546   47547   47546   47547   47547       0   47549   47550   47551   47550
   47551   47551       0   47553   47554   47555   47554   47555   47555       0
   47557   47558   47559   47558   47559   47559       0   47561   47562   47563
   47562   47563   47563       0   47565   47566   47567   47566   47567   47567
       0   47569   47570   47571   47570   47571   47571       0   47573   47574
   47575   47574   47575   47575       0   47577   47578   47579   47578   47579
   47579       0   47581   47582   47583   47582   47583   47583       0   47585
   47586   47587   47586   47587   47587       0   47589   47590   47591   47590
   47591   47591       0   47593   47594   47595   47594   47595   47595       0
   47597   47598   47599   47598   47599   47599       0   47601   47602   47603
   47602   47603   47603       0   47605   47606   47607   47606   47607   47607
       0   47609   47610   47611   47610   47611   47611       0   47613   47614
   47615   47614   47615   47615       0   47617   47618   47619   47618   47619
   47619       0   47621   47622   47623   47622   47623   47623       0   47625
   47626   47627   47626   47627   47627       0   47629   47630   47631   47630
   47631   47631       0   47633   47634   47635   47634   47635   47635       0
   47637   47638   47639   47638   47639   47639       0   47641   47642   47643
   47642   47643   47643       0   47645   47646   47647   47646   47647   47647
       0   47649   47650   47651   47650   47651   47651       0   47653   47654
   47655   47654   47655   47655       0   47657   47658   47659   47658   47659
   47659       0   47661   47662   47663   47662   47663   47663       0   47665
   47666   47667   47666   47667   47667       0   47669   47670   47671   47670
   47671   47671       0   47673   47674   47675   47674   47675   47675       0
   47677   47678   47679   47678   47679   47679       0   47681   47682   47683
   47682   47683   47683       0   47685   47686   47687   47686   47687   47687
       0   47689   47690   47691   47690   47691   47691       0   47693   47694
   47695   47694   47695   47695       0   47697   47698   47699   47698   47699
   47699       0   47701   47702   47703   47702   47703   47703       0   47705
   47706   47707   47706   47707   47707       0   47709   47710   47711   47710
   47711   47711       0   47713   47714   47715   47714   47715   47715       0
   47717   47718   47719   47718   47719   47719       0   47721   47722   47723
   47722   47723   47723       0   47725   47726   47727   47726   47727   47727
       0   47729   47730   47731   47730   47731   47731       0   47733   47734
   47735   47734   47735   47735       0   47737   47738   47739   47738   47739
   47739       0   47741   47742   47743   47742   47743   47743       0   47745
   47746   47747   47746   47747   47747       0   47749   47750   47751   47750
   47751   47751       0   47753   47754   47755   47754   47755   47755       0
   47757   47758   47759   47758   47759   47759       0   47761   47762   47763
   47762   47763   47763       0   47765   47766   47767   47766   47767   47767
       0   47769   47770   47771   47770   47771   47771       0   47773   47774
   47775   47774   47775   47775       0   47777   47778   47779   47778   47779
   47779       0   47781   47782   47783   47782   47783   47783       0   47785
   47786   47787   47786   47787   47787       0   47789   47790   47791   47790
   47791   47791       0   47793   47794   47795   47794   47795   47795       0
   47797   47798   47799   47798   47799   47799       0   47801   47802   47803
   47802   47803   47803       0   47805   47806   47807   47806   47807   47807
       0   47809   47810   47811   47810   47811   47811       0   47813   47814
   47815   47814   47815   47815       0   47817   47818   47819   47818   47819
   47819       0   47821   47822   47823   47822   47823   47823       0   47825
   47826   47827   47826   47827   47827       0   47829   47830   47831   47830
   47831   47831       0   47833   47834   47835   47834   47835   47835       0
   47837   47838   47839   47838   47839   47839       0   47841   47842   47843
   47842   47843   47843       0   47845   47846   47847   47846   47847   47847
       0   47849   47850   47851   47850   47851   47851       0   47853   47854
   47855   47854   47855   47855       0   47857   47858   47859   47858   47859
   47859       0   47861   47862   47863   47862   47863   47863       0   47865
   47866   47867   47866   47867   47867       0   47869   47870   47871   47870
   47871   47871       0   47873   47874   47875   47874   47875   47875       0
   47877   47878   47879   47878   47879   47879       0   47881   47882   47883
   47882   47883   47883       0   47885   47886   47887   47886   47887   47887
       0   47889   47890   47891   47890   47891   47891       0   47893   47894
   47895   47894   47895   47895       0   47897   47898   47899   47898   47899
   47899       0   47901   47902   47903   47902   47903   47903       0   47905
   47906   47907   47906   47907   47907       0   47909   47910   47911   47910
   47911   47911       0   47913   47914   47915   47914   47915   47915       0
   47917   47918   47919   47918   47919   47919       0   47921   47922   47923
   47922   47923   47923       0   47925   47926   47927   47926   47927   47927
       0   47929   47930   47931   47930   47931   47931       0   47933   47934
   47935   47934   47935   47935       0   47937   47938   47939   47938   47939
   47939       0   47941   47942   47943   47942   47943   47943       0   47945
   47946   47947   47946   47947   47947       0   47949   47950   47951   47950
   47951   47951       0   47953   47954   47955   47954   47955   47955       0
   47957   47958   47959   47958   47959   47959       0   47961   47962   47963
   47962   47963   47963       0   47965   47966   47967   47966   47967   47967
       0   47969   47970   47971   47970   47971   47971       0   47973   47974
   47975   47974   47975   47975       0   47977   47978   47979   47978   47979
   47979       0   47981   47982   47983   47982   47983   47983       0   47985
   47986   47987   47986   47987   47987       0   47989   47990   47991   47990
   47991   47991       0   47993   47994   47995   47994   47995   47995       0
   47997   47998   47999   47998   47999   47999       0   48001   48002   48003
   48002   48003   48003       0   48005   48006   48007   48006   48007   48007
       0   48009   48010   48011   48010   48011   48011       0   48013   48014
   48015   48014   48015   48015       0   48017   48018   48019   48018   48019
   48019       0   48021   48022   48023   48022   48023   48023       0   48025
   48026   48027   48026   48027   48027       0   48029   48030   48031   48030
   48031   48031       0   48033   48034   48035   48034   48035   48035       0
   48037   48038   48039   48038   48039   48039       0   48041   48042   48043
   48042   48043   48043       0   48045   48046   48047   48046   48047   48047
       0   48049   48050   48051   48050   48051   48051       0   48053   48054
   48055   48054   48055   48055       0   48057   48058   48059   48058   48059
   48059       0   48061   48062   48063   48062   48063   48063       0   48065
   48066   48067   48066   48067   48067       0   48069   48070   48071   48070
   48071   48071       0   48073   48074   48075   48074   48075   48075       0
   48077   48078   48079   48078   48079   48079       0   48081   48082   48083
   48082   48083   48083       0   48085   48086   48087   48086   48087   48087
       0   48089   48090   48091   48090   48091   48091       0   48093   48094
   48095   48094   48095   48095       0   48097   48098   48099   48098   48099
   48099       0   48101   48102   48103   48102   48103   48103       0   48105
   48106   48107   48106   48107   48107       0   48109   48110   48111   48110
   48111   48111       0   48113   48114   48115   48114   48115   48115       0
   48117   48118   48119   48118   48119   48119       0   48121   48122   48123
   48122   48123   48123       0   48125   48126   48127   48126   48127   48127
       0   48129   48130   48131   48130   48131   48131       0   48133   48134
   48135   48134   48135   48135       0   48137   48138   48139   48138   48139
   48139       0   48141   48142   48143   48142   48143   48143       0   48145
   48146   48147   48146   48147   48147       0   48149   48150   48151   48150
   48151   48151       0   48153   48154   48155   48154   48155   48155       0
   48157   48158   48159   48158   48159   48159       0   48161   48162   48163
   48162   48163   48163       0   48165   48166   48167   48166   48167   48167
       0   48169   48170   48171   48170   48171   48171       0   48173   48174
   48175   48174   48175   48175       0   48177   48178   48179   48178   48179
   48179       0   48181   48182   48183   48182   48183   48183       0   48185
   48186   48187   48186   48187   48187       0   48189   48190   48191   48190
   48191   48191       0   48193   48194   48195   48194   48195   48195       0
   48197   48198   48199   48198   48199   48199       0   48201   48202   48203
   48202   48203   48203       0   48205   48206   48207   48206   48207   48207
       0   48209   48210   48211   48210   48211   48211       0   48213   48214
   48215   48214   48215   48215       0   48217   48218   48219   48218   48219
   48219       0   48221   48222   48223   48222   48223   48223       0   48225
   48226   48227   48226   48227   48227       0   48229   48230   48231   48230
   48231   48231       0   48233   48234   48235   48234   48235   48235       0
   48237   48238   48239   48238   48239   48239       0   48241   48242   48243
   48242   48243   48243       0   48245   48246   48247   48246   48247   48247
       0   48249   48250   48251   48250   48251   48251       0   48253   48254
   48255   48254   48255   48255       0   48257   48258   48259   48258   48259
   48259       0   48261   48262   48263   48262   48263   48263       0   48265
   48266   48267   48266   48267   48267       0   48269   48270   48271   48270
   48271   48271       0   48273   48274   48275   48274   48275   48275       0
   48277   48278   48279   48278   48279   48279       0   48281   48282   48283
   48282   48283   48283       0   48285   48286   48287   48286   48287   48287
       0   48289   48290   48291   48290   48291   48291       0   48293   48294
   48295   48294   48295   48295       0   48297   48298   48299   48298   48299
   48299       0   48301   48302   48303   48302   48303   48303       0   48305
   48306   48307   48306   48307   48307       0   48309   48310   48311   48310
   48311   48311       0   48313   48314   48315   48314   48315   48315       0
   48317   48318   48319   48318   48319   48319       0   48321   48322   48323
   48322   48323   48323       0   48325   48326   48327   48326   48327   48327
       0   48329   48330   48331   48330   48331   48331       0   48333   48334
   48335   48334   48335   48335       0   48337   48338   48339   48338   48339
   48339       0   48341   48342   48343   48342   48343   48343       0   48345
   48346   48347   48346   48347   48347       0   48349   48350   48351   48350
   48351   48351       0   48353   48354   48355   48354   48355   48355       0
   48357   48358   48359   48358   48359   48359       0   48361   48362   48363
   48362   48363   48363       0   48365   48366   48367   48366   48367   48367
       0   48369   48370   48371   48370   48371   48371       0   48373   48374
   48375   48374   48375   48375       0   48377   48378   48379   48378   48379
   48379       0   48381   48382   48383   48382   48383   48383       0   48385
   48386   48387   48386   48387   48387       0   48389   48390   48391   48390
   48391   48391       0   48393   48394   48395   48394   48395   48395       0
   48397   48398   48399   48398   48399   48399       0   48401   48402   48403
   48402   48403   48403       0   48405   48406   48407   48406   48407   48407
       0   48409   48410   48411   48410   48411   48411       0   48413   48414
   48415   48414   48415   48415       0   48417   48418   48419   48418   48419
   48419       0   48421   48422   48423   48422   48423   48423       0   48425
   48426   48427   48426   48427   48427       0   48429   48430   48431   48430
   48431   48431       0   48433   48434   48435   48434   48435   48435       0
   48437   48438   48439   48438   48439   48439       0   48441   48442   48443
   48442   48443   48443       0   48445   48446   48447   48446   48447   48447
       0   48449   48450   48451   48450   48451   48451       0   48453   48454
   48455   48454   48455   48455       0   48457   48458   48459   48458   48459
   48459       0   48461   48462   48463   48462   48463   48463       0   48465
   48466   48467   48466   48467   48467       0   48469   48470   48471   48470
   48471   48471       0   48473   48474   48475   48474   48475   48475       0
   48477   48478   48479   48478   48479   48479       0   48481   48482   48483
   48482   48483   48483       0   48485   48486   48487   48486   48487   48487
       0   48489   48490   48491   48490   48491   48491       0   48493   48494
   48495   48494   48495   48495       0   48497   48498   48499   48498   48499
   48499       0   48501   48502   48503   48502   48503   48503       0   48505
   48506   48507   48506   48507   48507       0   48509   48510   48511   48510
   48511   48511       0   48513   48514   48515   48514   48515   48515       0
   48517   48518   48519   48518   48519   48519       0   48521   48522   48523
   48522   48523   48523       0   48525   48526   48527   48526   48527   48527
       0   48529   48530   48531   48530   48531   48531       0   48533   48534
   48535   48534   48535   48535       0   48537   48538   48539   48538   48539
   48539       0   48541   48542   48543   48542   48543   48543       0   48545
   48546   48547   48546   48547   48547       0   48549   48550   48551   48550
   48551   48551       0   48553   48554   48555   48554   48555   48555       0
   48557   48558   48559   48558   48559   48559       0   48561   48562   48563
   48562   48563   48563       0   48565   48566   48567   48566   48567   48567
       0   48569   48570   48571   48570   48571   48571       0   48573   48574
   48575   48574   48575   48575       0   48577   48578   48579   48578   48579
   48579       0   48581   48582   48583   48582   48583   48583       0   48585
   48586   48587   48586   48587   48587       0   48589   48590   48591   48590
   48591   48591       0   48593   48594   48595   48594   48595   48595       0
   48597   48598   48599   48598   48599   48599       0   48601   48602   48603
   48602   48603   48603       0   48605   48606   48607   48606   48607   48607
       0   48609   48610   48611   48610   48611   48611       0   48613   48614
   48615   48614   48615   48615       0   48617   48618   48619   48618   48619
   48619       0   48621   48622   48623   48622   48623   48623       0   48625
   48626   48627   48626   48627   48627       0   48629   48630   48631   48630
   48631   48631       0   48633   48634   48635   48634   48635   48635       0
   48637   48638   48639   48638   48639   48639       0   48641   48642   48643
   48642   48643   48643       0   48645   48646   48647   48646   48647   48647
       0   48649   48650   48651   48650   48651   48651       0   48653   48654
   48655   48654   48655   48655       0   48657   48658   48659   48658   48659
   48659       0   48661   48662   48663   48662   48663   48663       0   48665
   48666   48667   48666   48667   48667       0   48669   48670   48671   48670
   48671   48671       0   48673   48674   48675   48674   48675   48675       0
   48677   48678   48679   48678   48679   48679       0   48681   48682   48683
   48682   48683   48683       0   48685   48686   48687   48686   48687   48687
       0   48689   48690   48691   48690   48691   48691       0   48693   48694
   48695   48694   48695   48695       0   48697   48698   48699   48698   48699
   48699       0   48701   48702   48703   48702   48703   48703       0   48705
   48706   48707   48706   48707   48707       0   48709   48710   48711   48710
   48711   48711       0   48713   48714   48715   48714   48715   48715       0
   48717   48718   48719   48718   48719   48719       0   48721   48722   48723
   48722   48723   48723       0   48725   48726   48727   48726   48727   48727
       0   48729   48730   48731   48730   48731   48731       0   48733   48734
   48735   48734   48735   48735       0   48737   48738   48739   48738   48739
   48739       0   48741   48742   48743   48742   48743   48743       0   48745
   48746   48747   48746   48747   48747       0   48749   48750   48751   48750
   48751   48751       0   48753   48754   48755   48754   48755   48755       0
   48757   48758   48759   48758   48759   48759       0   48761   48762   48763
   48762   48763   48763       0   48765   48766   48767   48766   48767   48767
       0   48769   48770   48771   48770   48771   48771       0   48773   48774
   48775   48774   48775   48775       0   48777   48778   48779   48778   48779
   48779       0   48781   48782   48783   48782   48783   48783       0   48785
   48786   48787   48786   48787   48787       0   48789   48790   48791   48790
   48791   48791       0   48793   48794   48795   48794   48795   48795       0
   48797   48798   48799   48798   48799   48799       0   48801   48802   48803
   48802   48803   48803       0   48805   48806   48807   48806   48807   48807
       0   48809   48810   48811   48810   48811   48811       0   48813   48814
   48815   48814   48815   48815       0   48817   48818   48819   48818   48819
   48819       0   48821   48822   48823   48822   48823   48823       0   48825
   48826   48827   48826   48827   48827       0   48829   48830   48831   48830
   48831   48831       0   48833   48834   48835   48834   48835   48835       0
   48837   48838   48839   48838   48839   48839       0   48841   48842   48843
   48842   48843   48843       0   48845   48846   48847   48846   48847   48847
       0   48849   48850   48851   48850   48851   48851       0   48853   48854
   48855   48854   48855   48855       0   48857   48858   48859   48858   48859
   48859       0   48861   48862   48863   48862   48863   48863       0   48865
   48866   48867   48866   48867   48867       0   48869   48870   48871   48870
   48871   48871       0   48873   48874   48875   48874   48875   48875       0
   48877   48878   48879   48878   48879   48879       0   48881   48882   48883
   48882   48883   48883       0   48885   48886   48887   48886   48887   48887
       0   48889   48890   48891   48890   48891   48891       0   48893   48894
   48895   48894   48895   48895       0   48897   48898   48899   48898   48899
   48899       0   48901   48902   48903   48902   48903   48903       0   48905
   48906   48907   48906   48907   48907       0   48909   48910   48911   48910
   48911   48911       0   48913   48914   48915   48914   48915   48915       0
   48917   48918   48919   48918   48919   48919       0   48921   48922   48923
   48922   48923   48923       0   48925   48926   48927   48926   48927   48927
       0   48929   48930   48931   48930   48931   48931       0   48933   48934
   48935   48934   48935   48935       0   48937   48938   48939   48938   48939
   48939       0   48941   48942   48943   48942   48943   48943       0   48945
   48946   48947   48946   48947   48947       0   48949   48950   48951   48950
   48951   48951       0   48953   48954   48955   48954   48955   48955       0
   48957   48958   48959   48958   48959   48959       0   48961   48962   48963
   48962   48963   48963       0   48965   48966   48967   48966   48967   48967
       0   48969   48970   48971   48970   48971   48971       0   48973   48974
   48975   48974   48975   48975       0   48977   48978   48979   48978   48979
   48979       0   48981   48982   48983   48982   48983   48983       0   48985
   48986   48987   48986   48987   48987       0   48989   48990   48991   48990
   48991   48991       0   48993   48994   48995   48994   48995   48995       0
   48997   48998   48999   48998   48999   48999       0   49001   49002   49003
   49002   49003   49003       0   49005   49006   49007   49006   49007   49007
       0   49009   49010   49011   49010   49011   49011       0   49013   49014
   49015   49014   49015   49015       0   49017   49018   49019   49018   49019
   49019       0   49021   49022   49023   49022   49023   49023       0   49025
   49026   49027   49026   49027   49027       0   49029   49030   49031   49030
   49031   49031       0   49033   49034   49035   49034   49035   49035       0
   49037   49038   49039   49038   49039   49039       0   49041   49042   49043
   49042   49043   49043       0   49045   49046   49047   49046   49047   49047
       0   49049   49050   49051   49050   49051   49051       0   49053   49054
   49055   49054   49055   49055       0   49057   49058   49059   49058   49059
   49059       0   49061   49062   49063   49062   49063   49063       0   49065
   49066   49067   49066   49067   49067       0   49069   49070   49071   49070
   49071   49071       0   49073   49074   49075   49074   49075   49075       0
   49077   49078   49079   49078   49079   49079       0   49081   49082   49083
   49082   49083   49083       0   49085   49086   49087   49086   49087   49087
       0   49089   49090   49091   49090   49091   49091       0   49093   49094
   49095   49094   49095   49095       0   49097   49098   49099   49098   49099
   49099       0   49101   49102   49103   49102   49103   49103       0   49105
   49106   49107   49106   49107   49107       0   49109   49110   49111   49110
   49111   49111       0   49113   49114   49115   49114   49115   49115       0
   49117   49118   49119   49118   49119   49119       0   49121   49122   49123
   49122   49123   49123       0   49125   49126   49127   49126   49127   49127
       0   49129   49130   49131   49130   49131   49131       0   49133   49134
   49135   49134   49135   49135       0   49137   49138   49139   49138   49139
   49139       0   49141   49142   49143   49142   49143   49143       0   49145
   49146   49147   49146   49147   49147       0   49149   49150   49151   49150
   49151   49151       0   49153   49154   49155   49154   49155   49155       0
   49157   49158   49159   49158   49159   49159       0   49161   49162   49163
   49162   49163   49163       0   49165   49166   49167   49166   49167   49167
       0   49169   49170   49171   49170   49171   49171       0   49173   49174
   49175   49174   49175   49175       0   49177   49178   49179   49178   49179
   49179       0   49181   49182   49183   49182   49183   49183       0   49185
   49186   49187   49186   49187   49187       0   49189   49190   49191   49190
   49191   49191       0   49193   49194   49195   49194   49195   49195       0
   49197   49198   49199   49198   49199   49199       0   49201   49202   49203
   49202   49203   49203       0   49205   49206   49207   49206   49207   49207
       0   49209   49210   49211   49210   49211   49211       0   49213   49214
   49215   49214   49215   49215       0   49217   49218   49219   49218   49219
   49219       0   49221   49222   49223   49222   49223   49223       0   49225
   49226   49227   49226   49227   49227       0   49229   49230   49231   49230
   49231   49231       0   49233   49234   49235   49234   49235   49235       0
   49237   49238   49239   49238   49239   49239       0   49241   49242   49243
   49242   49243   49243       0   49245   49246   49247   49246   49247   49247
       0   49249   49250   49251   49250   49251   49251       0   49253   49254
   49255   49254   49255   49255       0   49257   49258   49259   49258   49259
   49259       0   49261   49262   49263   49262   49263   49263       0   49265
   49266   49267   49266   49267   49267       0   49269   49270   49271   49270
   49271   49271       0   49273   49274   49275   49274   49275   49275       0
   49277   49278   49279   49278   49279   49279       0   49281   49282   49283
   49282   49283   49283       0   49285   49286   49287   49286   49287   49287
       0   49289   49290   49291   49290   49291   49291       0   49293   49294
   49295   49294   49295   49295       0   49297   49298   49299   49298   49299
   49299       0   49301   49302   49303   49302   49303   49303       0   49305
   49306   49307   49306   49307   49307       0   49309   49310   49311   49310
   49311   49311       0   49313   49314   49315   49314   49315   49315       0
   49317   49318   49319   49318   49319   49319       0   49321   49322   49323
   49322   49323   49323       0   49325   49326   49327   49326   49327   49327
       0   49329   49330   49331   49330   49331   49331       0   49333   49334
   49335   49334   49335   49335       0   49337   49338   49339   49338   49339
   49339       0   49341   49342   49343   49342   49343   49343       0   49345
   49346   49347   49346   49347   49347       0   49349   49350   49351   49350
   49351   49351       0   49353   49354   49355   49354   49355   49355       0
   49357   49358   49359   49358   49359   49359       0   49361   49362   49363
   49362   49363   49363       0   49365   49366   49367   49366   49367   49367
       0   49369   49370   49371   49370   49371   49371       0   49373   49374
   49375   49374   49375   49375       0   49377   49378   49379   49378   49379
   49379       0   49381   49382   49383   49382   49383   49383       0   49385
   49386   49387   49386   49387   49387       0   49389   49390   49391   49390
   49391   49391       0   49393   49394   49395   49394   49395   49395       0
   49397   49398   49399   49398   49399   49399       0   49401   49402   49403
   49402   49403   49403       0   49405   49406   49407   49406   49407   49407
       0   49409   49410   49411   49410   49411   49411       0   49413   49414
   49415   49414   49415   49415       0   49417   49418   49419   49418   49419
   49419       0   49421   49422   49423   49422   49423   49423       0   49425
   49426   49427   49426   49427   49427       0   49429   49430   49431   49430
   49431   49431       0   49433   49434   49435   49434   49435   49435       0
   49437   49438   49439   49438   49439   49439       0   49441   49442   49443
   49442   49443   49443       0   49445   49446   49447   49446   49447   49447
       0   49449   49450   49451   49450   49451   49451       0   49453   49454
   49455   49454   49455   49455       0   49457   49458   49459   49458   49459
   49459       0   49461   49462   49463   49462   49463   49463       0   49465
   49466   49467   49466   49467   49467       0   49469   49470   49471   49470
   49471   49471       0   49473   49474   49475   49474   49475   49475       0
   49477   49478   49479   49478   49479   49479       0   49481   49482   49483
   49482   49483   49483       0   49485   49486   49487   49486   49487   49487
       0   49489   49490   49491   49490   49491   49491       0   49493   49494
   49495   49494   49495   49495       0   49497   49498   49499   49498   49499
   49499       0   49501   49502   49503   49502   49503   49503       0   49505
   49506   49507   49506   49507   49507       0   49509   49510   49511   49510
   49511   49511       0   49513   49514   49515   49514   49515   49515       0
   49517   49518   49519   49518   49519   49519       0   49521   49522   49523
   49522   49523   49523       0   49525   49526   49527   49526   49527   49527
       0   49529   49530   49531   49530   49531   49531       0   49533   49534
   49535   49534   49535   49535       0   49537   49538   49539   49538   49539
   49539       0   49541   49542   49543   49542   49543   49543       0   49545
   49546   49547   49546   49547   49547       0   49549   49550   49551   49550
   49551   49551       0   49553   49554   49555   49554   49555   49555       0
   49557   49558   49559   49558   49559   49559       0   49561   49562   49563
   49562   49563   49563       0   49565   49566   49567   49566   49567   49567
       0   49569   49570   49571   49570   49571   49571       0   49573   49574
   49575   49574   49575   49575       0   49577   49578   49579   49578   49579
   49579       0   49581   49582   49583   49582   49583   49583       0   49585
   49586   49587   49586   49587   49587       0   49589   49590   49591   49590
   49591   49591       0   49593   49594   49595   49594   49595   49595       0
   49597   49598   49599   49598   49599   49599       0   49601   49602   49603
   49602   49603   49603       0   49605   49606   49607   49606   49607   49607
       0   49609   49610   49611   49610   49611   49611       0   49613   49614
   49615   49614   49615   49615       0   49617   49618   49619   49618   49619
   49619       0   49621   49622   49623   49622   49623   49623       0   49625
   49626   49627   49626   49627   49627       0   49629   49630   49631   49630
   49631   49631       0   49633   49634   49635   49634   49635   49635       0
   49637   49638   49639   49638   49639   49639       0   49641   49642   49643
   49642   49643   49643       0   49645   49646   49647   49646   49647   49647
       0   49649   49650   49651   49650   49651   49651       0   49653   49654
   49655   49654   49655   49655       0   49657   49658   49659   49658   49659
   49659       0   49661   49662   49663   49662   49663   49663       0   49665
   49666   49667   49666   49667   49667       0   49669   49670   49671   49670
   49671   49671       0   49673   49674   49675   49674   49675   49675       0
   49677   49678   49679   49678   49679   49679       0   49681   49682   49683
   49682   49683   49683       0   49685   49686   49687   49686   49687   49687
       0   49689   49690   49691   49690   49691   49691       0   49693   49694
   49695   49694   49695   49695       0   49697   49698   49699   49698   49699
   49699       0   49701   49702   49703   49702   49703   49703       0   49705
   49706   49707   49706   49707   49707       0   49709   49710   49711   49710
   49711   49711       0   49713   49714   49715   49714   49715   49715       0
   49717   49718   49719   49718   49719   49719       0   49721   49722   49723
   49722   49723   49723       0   49725   49726   49727   49726   49727   49727
       0   49729   49730   49731   49730   49731   49731       0   49733   49734
   49735   49734   49735   49735       0   49737   49738   49739   49738   49739
   49739       0   49741   49742   49743   49742   49743   49743       0   49745
   49746   49747   49746   49747   49747       0   49749   49750   49751   49750
   49751   49751       0   49753   49754   49755   49754   49755   49755       0
   49757   49758   49759   49758   49759   49759       0   49761   49762   49763
   49762   49763   49763       0   49765   49766   49767   49766   49767   49767
       0   49769   49770   49771   49770   49771   49771       0   49773   49774
   49775   49774   49775   49775       0   49777   49778   49779   49778   49779
   49779       0   49781   49782   49783   49782   49783   49783       0   49785
   49786   49787   49786   49787   49787       0   49789   49790   49791   49790
   49791   49791       0   49793   49794   49795   49794   49795   49795       0
   49797   49798   49799   49798   49799   49799       0   49801   49802   49803
   49802   49803   49803       0   49805   49806   49807   49806   49807   49807
       0   49809   49810   49811   49810   49811   49811       0   49813   49814
   49815   49814   49815   49815       0   49817   49818   49819   49818   49819
   49819       0   49821   49822   49823   49822   49823   49823       0   49825
   49826   49827   49826   49827   49827       0   49829   49830   49831   49830
   49831   49831       0   49833   49834   49835   49834   49835   49835       0
   49837   49838   49839   49838   49839   49839       0   49841   49842   49843
   49842   49843   49843       0   49845   49846   49847   49846   49847   49847
       0   49849   49850   49851   49850   49851   49851       0   49853   49854
   49855   49854   49855   49855       0   49857   49858   49859   49858   49859
   49859       0   49861   49862   49863   49862   49863   49863       0   49865
   49866   49867   49866   49867   49867       0   49869   49870   49871   49870
   49871   49871       0   49873   49874   49875   49874   49875   49875       0
   49877   49878   49879   49878   49879   49879       0   49881   49882   49883
   49882   49883   49883       0   49885   49886   49887   49886   49887   49887
       0   49889   49890   49891   49890   49891   49891       0   49893   49894
   49895   49894   49895   49895       0   49897   49898   49899   49898   49899
   49899       0   49901   49902   49903   49902   49903   49903       0   49905
   49906   49907   49906   49907   49907       0   49909   49910   49911   49910
   49911   49911       0   49913   49914   49915   49914   49915   49915       0
   49917   49918   49919   49918   49919   49919       0   49921   49922   49923
   49922   49923   49923       0   49925   49926   49927   49926   49927   49927
       0   49929   49930   49931   49930   49931   49931       0   49933   49934
   49935   49934   49935   49935       0   49937   49938   49939   49938   49939
   49939       0   49941   49942   49943   49942   49943   49943       0   49945
   49946   49947   49946   49947   49947       0   49949   49950   49951   49950
   49951   49951       0   49953   49954   49955   49954   49955   49955       0
   49957   49958   49959   49958   49959   49959       0   49961   49962   49963
   49962   49963   49963       0   49965   49966   49967   49966   49967   49967
       0   49969   49970   49971   49970   49971   49971       0   49973   49974
   49975   49974   49975   49975       0   49977   49978   49979   49978   49979
   49979       0   49981   49982   49983   49982   49983   49983       0   49985
   49986   49987   49986   49987   49987       0   49989   49990   49991   49990
   49991   49991       0   49993   49994   49995   49994   49995   49995       0
   49997   49998   49999   49998   49999   49999       0   50001   50002   50003
   50002   50003   50003       0   50005   50006   50007   50006   50007   50007
       0   50009   50010   50011   50010   50011   50011       0   50013   50014
   50015   50014   50015   50015       0   50017   50018   50019   50018   50019
   50019       0   50021   50022   50023   50022   50023   50023       0   50025
   50026   50027   50026   50027   50027       0   50029   50030   50031   50030
   50031   50031       0   50033   50034   50035   50034   50035   50035       0
   50037   50038   50039   50038   50039   50039       0   50041   50042   50043
   50042   50043   50043       0   50045   50046   50047   50046   50047   50047
       0   50049   50050   50051   50050   50051   50051       0   50053   50054
   50055   50054   50055   50055       0   50057   50058   50059   50058   50059
   50059       0   50061   50062   50063   50062   50063   50063       0   50065
   50066   50067   50066   50067   50067       0   50069   50070   50071   50070
   50071   50071       0   50073   50074   50075   50074   50075   50075       0
   50077   50078   50079   50078   50079   50079       0   50081   50082   50083
   50082   50083   50083       0   50085   50086   50087   50086   50087   50087
       0   50089   50090   50091   50090   50091   50091       0   50093   50094
   50095   50094   50095   50095       0   50097   50098   50099   50098   50099
   50099       0   50101   50102   50103   50102   50103   50103       0   50105
   50106   50107   50106   50107   50107       0   50109   50110   50111   50110
   50111   50111       0   50113   50114   50115   50114   50115   50115       0
   50117   50118   50119   50118   50119   50119       0   50121   50122   50123
   50122   50123   50123       0   50125   50126   50127   50126   50127   50127
       0   50129   50130   50131   50130   50131   50131       0   50133   50134
   50135   50134   50135   50135       0   50137   50138   50139   50138   50139
   50139       0   50141   50142   50143   50142   50143   50143       0   50145
   50146   50147   50146   50147   50147       0   50149   50150   50151   50150
   50151   50151       0   50153   50154   50155   50154   50155   50155       0
   50157   50158   50159   50158   50159   50159       0   50161   50162   50163
   50162   50163   50163       0   50165   50166   50167   50166   50167   50167
       0   50169   50170   50171   50170   50171   50171       0   50173   50174
   50175   50174   50175   50175       0   50177   50178   50179   50178   50179
   50179       0   50181   50182   50183   50182   50183   50183       0   50185
   50186   50187   50186   50187   50187       0   50189   50190   50191   50190
   50191   50191       0   50193   50194   50195   50194   50195   50195       0
   50197   50198   50199   50198   50199   50199       0   50201   50202   50203
   50202   50203   50203       0   50205   50206   50207   50206   50207   50207
       0   50209   50210   50211   50210   50211   50211       0   50213   50214
   50215   50214   50215   50215       0   50217   50218   50219   50218   50219
   50219       0   50221   50222   50223   50222   50223   50223       0   50225
   50226   50227   50226   50227   50227       0   50229   50230   50231   50230
   50231   50231       0   50233   50234   50235   50234   50235   50235       0
   50237   50238   50239   50238   50239   50239       0   50241   50242   50243
   50242   50243   50243       0   50245   50246   50247   50246   50247   50247
       0   50249   50250   50251   50250   50251   50251       0   50253   50254
   50255   50254   50255   50255       0   50257   50258   50259   50258   50259
   50259       0   50261   50262   50263   50262   50263   50263       0   50265
   50266   50267   50266   50267   50267       0   50269   50270   50271   50270
   50271   50271       0   50273   50274   50275   50274   50275   50275       0
   50277   50278   50279   50278   50279   50279       0   50281   50282   50283
   50282   50283   50283       0   50285   50286   50287   50286   50287   50287
       0   50289   50290   50291   50290   50291   50291       0   50293   50294
   50295   50294   50295   50295       0   50297   50298   50299   50298   50299
   50299       0   50301   50302   50303   50302   50303   50303       0   50305
   50306   50307   50306   50307   50307       0   50309   50310   50311   50310
   50311   50311       0   50313   50314   50315   50314   50315   50315       0
   50317   50318   50319   50318   50319   50319       0   50321   50322   50323
   50322   50323   50323       0   50325   50326   50327   50326   50327   50327
       0   50329   50330   50331   50330   50331   50331       0   50333   50334
   50335   50334   50335   50335       0   50337   50338   50339   50338   50339
   50339       0   50341   50342   50343   50342   50343   50343       0   50345
   50346   50347   50346   50347   50347       0   50349   50350   50351   50350
   50351   50351       0   50353   50354   50355   50354   50355   50355       0
   50357   50358   50359   50358   50359   50359       0   50361   50362   50363
   50362   50363   50363       0   50365   50366   50367   50366   50367   50367
       0   50369   50370   50371   50370   50371   50371       0   50373   50374
   50375   50374   50375   50375       0   50377   50378   50379   50378   50379
   50379       0   50381   50382   50383   50382   50383   50383       0   50385
   50386   50387   50386   50387   50387       0   50389   50390   50391   50390
   50391   50391       0   50393   50394   50395   50394   50395   50395       0
   50397   50398   50399   50398   50399   50399       0   50401   50402   50403
   50402   50403   50403       0   50405   50406   50407   50406   50407   50407
       0   50409   50410   50411   50410   50411   50411       0   50413   50414
   50415   50414   50415   50415       0   50417   50418   50419   50418   50419
   50419       0   50421   50422   50423   50422   50423   50423       0   50425
   50426   50427   50426   50427   50427       0   50429   50430   50431   50430
   50431   50431       0   50433   50434   50435   50434   50435   50435       0
   50437   50438   50439   50438   50439   50439       0   50441   50442   50443
   50442   50443   50443       0   50445   50446   50447   50446   50447   50447
       0   50449   50450   50451   50450   50451   50451       0   50453   50454
   50455   50454   50455   50455       0   50457   50458   50459   50458   50459
   50459       0   50461   50462   50463   50462   50463   50463       0   50465
   50466   50467   50466   50467   50467       0   50469   50470   50471   50470
   50471   50471       0   50473   50474   50475   50474   50475   50475       0
   50477   50478   50479   50478   50479   50479       0   50481   50482   50483
   50482   50483   50483       0   50485   50486   50487   50486   50487   50487
       0   50489   50490   50491   50490   50491   50491       0   50493   50494
   50495   50494   50495   50495       0   50497   50498   50499   50498   50499
   50499       0   50501   50502   50503   50502   50503   50503       0   50505
   50506   50507   50506   50507   50507       0   50509   50510   50511   50510
   50511   50511       0   50513   50514   50515   50514   50515   50515       0
   50517   50518   50519   50518   50519   50519       0   50521   50522   50523
   50522   50523   50523       0   50525   50526   50527   50526   50527   50527
       0   50529   50530   50531   50530   50531   50531       0   50533   50534
   50535   50534   50535   50535       0   50537   50538   50539   50538   50539
   50539       0   50541   50542   50543   50542   50543   50543       0   50545
   50546   50547   50546   50547   50547       0   50549   50550   50551   50550
   50551   50551       0   50553   50554   50555   50554   50555   50555       0
   50557   50558   50559   50558   50559   50559       0   50561   50562   50563
   50562   50563   50563       0   50565   50566   50567   50566   50567   50567
       0   50569   50570   50571   50570   50571   50571       0   50573   50574
   50575   50574   50575   50575       0   50577   50578   50579   50578   50579
   50579       0   50581   50582   50583   50582   50583   50583       0   50585
   50586   50587   50586   50587   50587       0   50589   50590   50591   50590
   50591   50591       0   50593   50594   50595   50594   50595   50595       0
   50597   50598   50599   50598   50599   50599       0   50601   50602   50603
   50602   50603   50603       0   50605   50606   50607   50606   50607   50607
       0   50609   50610   50611   50610   50611   50611       0   50613   50614
   50615   50614   50615   50615       0   50617   50618   50619   50618   50619
   50619       0   50621   50622   50623   50622   50623   50623       0   50625
   50626   50627   50626   50627   50627       0   50629   50630   50631   50630
   50631   50631       0   50633   50634   50635   50634   50635   50635       0
   50637   50638   50639   50638   50639   50639       0   50641   50642   50643
   50642   50643   50643       0   50645   50646   50647   50646   50647   50647
       0   50649   50650   50651   50650   50651   50651       0   50653   50654
   50655   50654   50655   50655       0   50657   50658   50659   50658   50659
   50659       0   50661   50662   50663   50662   50663   50663       0   50665
   50666   50667   50666   50667   50667       0   50669   50670   50671   50670
   50671   50671       0   50673   50674   50675   50674   50675   50675       0
   50677   50678   50679   50678   50679   50679       0   50681   50682   50683
   50682   50683   50683       0   50685   50686   50687   50686   50687   50687
       0   50689   50690   50691   50690   50691   50691       0   50693   50694
   50695   50694   50695   50695       0   50697   50698   50699   50698   50699
   50699       0   50701   50702   50703   50702   50703   50703       0   50705
   50706   50707   50706   50707   50707       0   50709   50710   50711   50710
   50711   50711       0   50713   50714   50715   50714   50715   50715       0
   50717   50718   50719   50718   50719   50719       0   50721   50722   50723
   50722   50723   50723       0   50725   50726   50727   50726   50727   50727
       0   50729   50730   50731   50730   50731   50731       0   50733   50734
   50735   50734   50735   50735       0   50737   50738   50739   50738   50739
   50739       0   50741   50742   50743   50742   50743   50743       0   50745
   50746   50747   50746   50747   50747       0   50749   50750   50751   50750
   50751   50751       0   50753   50754   50755   50754   50755   50755       0
   50757   50758   50759   50758   50759   50759       0   50761   50762   50763
   50762   50763   50763       0   50765   50766   50767   50766   50767   50767
       0   50769   50770   50771   50770   50771   50771       0   50773   50774
   50775   50774   50775   50775       0   50777   50778   50779   50778   50779
   50779       0   50781   50782   50783   50782   50783   50783       0   50785
   50786   50787   50786   50787   50787       0   50789   50790   50791   50790
   50791   50791       0   50793   50794   50795   50794   50795   50795       0
   50797   50798   50799   50798   50799   50799       0   50801   50802   50803
   50802   50803   50803       0   50805   50806   50807   50806   50807   50807
       0   50809   50810   50811   50810   50811   50811       0   50813   50814
   50815   50814   50815   50815       0   50817   50818   50819   50818   50819
   50819       0   50821   50822   50823   50822   50823   50823       0   50825
   50826   50827   50826   50827   50827       0   50829   50830   50831   50830
   50831   50831       0   50833   50834   50835   50834   50835   50835       0
   50837   50838   50839   50838   50839   50839       0   50841   50842   50843
   50842   50843   50843       0   50845   50846   50847   50846   50847   50847
       0   50849   50850   50851   50850   50851   50851       0   50853   50854
   50855   50854   50855   50855       0   50857   50858   50859   50858   50859
   50859       0   50861   50862   50863   50862   50863   50863       0   50865
   50866   50867   50866   50867   50867       0   50869   50870   50871   50870
   50871   50871       0   50873   50874   50875   50874   50875   50875       0
   50877   50878   50879   50878   50879   50879       0   50881   50882   50883
   50882   50883   50883       0   50885   50886   50887   50886   50887   50887
       0   50889   50890   50891   50890   50891   50891       0   50893   50894
   50895   50894   50895   50895       0   50897   50898   50899   50898   50899
   50899       0   50901   50902   50903   50902   50903   50903       0   50905
   50906   50907   50906   50907   50907       0   50909   50910   50911   50910
   50911   50911       0   50913   50914   50915   50914   50915   50915       0
   50917   50918   50919   50918   50919   50919       0   50921   50922   50923
   50922   50923   50923       0   50925   50926   50927   50926   50927   50927
       0   50929   50930   50931   50930   50931   50931       0   50933   50934
   50935   50934   50935   50935       0   50937   50938   50939   50938   50939
   50939       0   50941   50942   50943   50942   50943   50943       0   50945
   50946   50947   50946   50947   50947       0   50949   50950   50951   50950
   50951   50951       0   50953   50954   50955   50954   50955   50955       0
   50957   50958   50959   50958   50959   50959       0   50961   50962   50963
   50962   50963   50963       0   50965   50966   50967   50966   50967   50967
       0   50969   50970   50971   50970   50971   50971       0   50973   50974
   50975   50974   50975   50975       0   50977   50978   50979   50978   50979
   50979       0   50981   50982   50983   50982   50983   50983       0   50985
   50986   50987   50986   50987   50987       0   50989   50990   50991   50990
   50991   50991       0   50993   50994   50995   50994   50995   50995       0
   50997   50998   50999   50998   50999   50999       0   51001   51002   51003
   51002   51003   51003       0   51005   51006   51007   51006   51007   51007
       0   51009   51010   51011   51010   51011   51011       0   51013   51014
   51015   51014   51015   51015       0   51017   51018   51019   51018   51019
   51019       0   51021   51022   51023   51022   51023   51023       0   51025
   51026   51027   51026   51027   51027       0   51029   51030   51031   51030
   51031   51031       0   51033   51034   51035   51034   51035   51035       0
   51037   51038   51039   51038   51039   51039       0   51041   51042   51043
   51042   51043   51043       0   51045   51046   51047   51046   51047   51047
       0   51049   51050   51051   51050   51051   51051       0   51053   51054
   51055   51054   51055   51055       0   51057   51058   51059   51058   51059
   51059       0   51061   51062   51063   51062   51063   51063       0   51065
   51066   51067   51066   51067   51067       0   51069   51070   51071   51070
   51071   51071       0   51073   51074   51075   51074   51075   51075       0
   51077   51078   51079   51078   51079   51079       0   51081   51082   51083
   51082   51083   51083       0   51085   51086   51087   51086   51087   51087
       0   51089   51090   51091   51090   51091   51091       0   51093   51094
   51095   51094   51095   51095       0   51097   51098   51099   51098   51099
   51099       0   51101   51102   51103   51102   51103   51103       0   51105
   51106   51107   51106   51107   51107       0   51109   51110   51111   51110
   51111   51111       0   51113   51114   51115   51114   51115   51115       0
   51117   51118   51119   51118   51119   51119       0   51121   51122   51123
   51122   51123   51123       0   51125   51126   51127   51126   51127   51127
       0   51129   51130   51131   51130   51131   51131       0   51133   51134
   51135   51134   51135   51135       0   51137   51138   51139   51138   51139
   51139       0   51141   51142   51143   51142   51143   51143       0   51145
   51146   51147   51146   51147   51147       0   51149   51150   51151   51150
   51151   51151       0   51153   51154   51155   51154   51155   51155       0
   51157   51158   51159   51158   51159   51159       0   51161   51162   51163
   51162   51163   51163       0   51165   51166   51167   51166   51167   51167
       0   51169   51170   51171   51170   51171   51171       0   51173   51174
   51175   51174   51175   51175       0   51177   51178   51179   51178   51179
   51179       0   51181   51182   51183   51182   51183   51183       0   51185
   51186   51187   51186   51187   51187       0   51189   51190   51191   51190
   51191   51191       0   51193   51194   51195   51194   51195   51195       0
   51197   51198   51199   51198   51199   51199       0   51201   51202   51203
   51202   51203   51203       0   51205   51206   51207   51206   51207   51207
       0   51209   51210   51211   51210   51211   51211       0   51213   51214
   51215   51214   51215   51215       0   51217   51218   51219   51218   51219
   51219       0   51221   51222   51223   51222   51223   51223       0   51225
   51226   51227   51226   51227   51227       0   51229   51230   51231   51230
   51231   51231       0   51233   51234   51235   51234   51235   51235       0
   51237   51238   51239   51238   51239   51239       0   51241   51242   51243
   51242   51243   51243       0   51245   51246   51247   51246   51247   51247
       0   51249   51250   51251   51250   51251   51251       0   51253   51254
   51255   51254   51255   51255       0   51257   51258   51259   51258   51259
   51259       0   51261   51262   51263   51262   51263   51263       0   51265
   51266   51267   51266   51267   51267       0   51269   51270   51271   51270
   51271   51271       0   51273   51274   51275   51274   51275   51275       0
   51277   51278   51279   51278   51279   51279       0   51281   51282   51283
   51282   51283   51283       0   51285   51286   51287   51286   51287   51287
       0   51289   51290   51291   51290   51291   51291       0   51293   51294
   51295   51294   51295   51295       0   51297   51298   51299   51298   51299
   51299       0   51301   51302   51303   51302   51303   51303       0   51305
   51306   51307   51306   51307   51307       0   51309   51310   51311   51310
   51311   51311       0   51313   51314   51315   51314   51315   51315       0
   51317   51318   51319   51318   51319   51319       0   51321   51322   51323
   51322   51323   51323       0   51325   51326   51327   51326   51327   51327
       0   51329   51330   51331   51330   51331   51331       0   51333   51334
   51335   51334   51335   51335       0   51337   51338   51339   51338   51339
   51339       0   51341   51342   51343   51342   51343   51343       0   51345
   51346   51347   51346   51347   51347       0   51349   51350   51351   51350
   51351   51351       0   51353   51354   51355   51354   51355   51355       0
   51357   51358   51359   51358   51359   51359       0   51361   51362   51363
   51362   51363   51363       0   51365   51366   51367   51366   51367   51367
       0   51369   51370   51371   51370   51371   51371       0   51373   51374
   51375   51374   51375   51375       0   51377   51378   51379   51378   51379
   51379       0   51381   51382   51383   51382   51383   51383       0   51385
   51386   51387   51386   51387   51387       0   51389   51390   51391   51390
   51391   51391       0   51393   51394   51395   51394   51395   51395       0
   51397   51398   51399   51398   51399   51399       0   51401   51402   51403
   51402   51403   51403       0   51405   51406   51407   51406   51407   51407
       0   51409   51410   51411   51410   51411   51411       0   51413   51414
   51415   51414   51415   51415       0   51417   51418   51419   51418   51419
   51419       0   51421   51422   51423   51422   51423   51423       0   51425
   51426   51427   51426   51427   51427       0   51429   51430   51431   51430
   51431   51431       0   51433   51434   51435   51434   51435   51435       0
   51437   51438   51439   51438   51439   51439       0   51441   51442   51443
   51442   51443   51443       0   51445   51446   51447   51446   51447   51447
       0   51449   51450   51451   51450   51451   51451       0   51453   51454
   51455   51454   51455   51455       0   51457   51458   51459   51458   51459
   51459       0   51461   51462   51463   51462   51463   51463       0   51465
   51466   51467   51466   51467   51467       0   51469   51470   51471   51470
   51471   51471       0   51473   51474   51475   51474   51475   51475       0
   51477   51478   51479   51478   51479   51479       0   51481   51482   51483
   51482   51483   51483       0   51485   51486   51487   51486   51487   51487
       0   51489   51490   51491   51490   51491   51491       0   51493   51494
   51495   51494   51495   51495       0   51497   51498   51499   51498   51499
   51499       0   51501   51502   51503   51502   51503   51503       0   51505
   51506   51507   51506   51507   51507       0   51509   51510   51511   51510
   51511   51511       0   51513   51514   51515   51514   51515   51515       0
   51517   51518   51519   51518   51519   51519       0   51521   51522   51523
   51522   51523   51523       0   51525   51526   51527   51526   51527   51527
       0   51529   51530   51531   51530   51531   51531       0   51533   51534
   51535   51534   51535   51535       0   51537   51538   51539   51538   51539
   51539       0   51541   51542   51543   51542   51543   51543       0   51545
   51546   51547   51546   51547   51547       0   51549   51550   51551   51550
   51551   51551       0   51553   51554   51555   51554   51555   51555       0
   51557   51558   51559   51558   51559   51559       0   51561   51562   51563
   51562   51563   51563       0   51565   51566   51567   51566   51567   51567
       0   51569   51570   51571   51570   51571   51571       0   51573   51574
   51575   51574   51575   51575       0   51577   51578   51579   51578   51579
   51579       0   51581   51582   51583   51582   51583   51583       0   51585
   51586   51587   51586   51587   51587       0   51589   51590   51591   51590
   51591   51591       0   51593   51594   51595   51594   51595   51595       0
   51597   51598   51599   51598   51599   51599       0   51601   51602   51603
   51602   51603   51603       0   51605   51606   51607   51606   51607   51607
       0   51609   51610   51611   51610   51611   51611       0   51613   51614
   51615   51614   51615   51615       0   51617   51618   51619   51618   51619
   51619       0   51621   51622   51623   51622   51623   51623       0   51625
   51626   51627   51626   51627   51627       0   51629   51630   51631   51630
   51631   51631       0   51633   51634   51635   51634   51635   51635       0
   51637   51638   51639   51638   51639   51639       0   51641   51642   51643
   51642   51643   51643       0   51645   51646   51647   51646   51647   51647
       0   51649   51650   51651   51650   51651   51651       0   51653   51654
   51655   51654   51655   51655       0   51657   51658   51659   51658   51659
   51659       0   51661   51662   51663   51662   51663   51663       0   51665
   51666   51667   51666   51667   51667       0   51669   51670   51671   51670
   51671   51671       0   51673   51674   51675   51674   51675   51675       0
   51677   51678   51679   51678   51679   51679       0   51681   51682   51683
   51682   51683   51683       0   51685   51686   51687   51686   51687   51687
       0   51689   51690   51691   51690   51691   51691       0   51693   51694
   51695   51694   51695   51695       0   51697   51698   51699   51698   51699
   51699       0   51701   51702   51703   51702   51703   51703       0   51705
   51706   51707   51706   51707   51707       0   51709   51710   51711   51710
   51711   51711       0   51713   51714   51715   51714   51715   51715       0
   51717   51718   51719   51718   51719   51719       0   51721   51722   51723
   51722   51723   51723       0   51725   51726   51727   51726   51727   51727
       0   51729   51730   51731   51730   51731   51731       0   51733   51734
   51735   51734   51735   51735       0   51737   51738   51739   51738   51739
   51739       0   51741   51742   51743   51742   51743   51743       0   51745
   51746   51747   51746   51747   51747       0   51749   51750   51751   51750
   51751   51751       0   51753   51754   51755   51754   51755   51755       0
   51757   51758   51759   51758   51759   51759       0   51761   51762   51763
   51762   51763   51763       0   51765   51766   51767   51766   51767   51767
       0   51769   51770   51771   51770   51771   51771       0   51773   51774
   51775   51774   51775   51775       0   51777   51778   51779   51778   51779
   51779       0   51781   51782   51783   51782   51783   51783       0   51785
   51786   51787   51786   51787   51787       0   51789   51790   51791   51790
   51791   51791       0   51793   51794   51795   51794   51795   51795       0
   51797   51798   51799   51798   51799   51799       0   51801   51802   51803
   51802   51803   51803       0   51805   51806   51807   51806   51807   51807
       0   51809   51810   51811   51810   51811   51811       0   51813   51814
   51815   51814   51815   51815       0   51817   51818   51819   51818   51819
   51819       0   51821   51822   51823   51822   51823   51823       0   51825
   51826   51827   51826   51827   51827       0   51829   51830   51831   51830
   51831   51831       0   51833   51834   51835   51834   51835   51835       0
   51837   51838   51839   51838   51839   51839       0   51841   51842   51843
   51842   51843   51843       0   51845   51846   51847   51846   51847   51847
       0   51849   51850   51851   51850   51851   51851       0   51853   51854
   51855   51854   51855   51855       0   51857   51858   51859   51858   51859
   51859       0   51861   51862   51863   51862   51863   51863       0   51865
   51866   51867   51866   51867   51867       0   51869   51870   51871   51870
   51871   51871       0   51873   51874   51875   51874   51875   51875       0
   51877   51878   51879   51878   51879   51879       0   51881   51882   51883
   51882   51883   51883       0   51885   51886   51887   51886   51887   51887
       0   51889   51890   51891   51890   51891   51891       0   51893   51894
   51895   51894   51895   51895       0   51897   51898   51899   51898   51899
   51899       0   51901   51902   51903   51902   51903   51903       0   51905
   51906   51907   51906   51907   51907       0   51909   51910   51911   51910
   51911   51911       0   51913   51914   51915   51914   51915   51915       0
   51917   51918   51919   51918   51919   51919       0   51921   51922   51923
   51922   51923   51923       0   51925   51926   51927   51926   51927   51927
       0   51929   51930   51931   51930   51931   51931       0   51933   51934
   51935   51934   51935   51935       0   51937   51938   51939   51938   51939
   51939       0   51941   51942   51943   51942   51943   51943       0   51945
   51946   51947   51946   51947   51947       0   51949   51950   51951   51950
   51951   51951       0   51953   51954   51955   51954   51955   51955       0
   51957   51958   51959   51958   51959   51959       0   51961   51962   51963
   51962   51963   51963       0   51965   51966   51967   51966   51967   51967
       0   51969   51970   51971   51970   51971   51971       0   51973   51974
   51975   51974   51975   51975       0   51977   51978   51979   51978   51979
   51979       0   51981   51982   51983   51982   51983   51983       0   51985
   51986   51987   51986   51987   51987       0   51989   51990   51991   51990
   51991   51991       0   51993   51994   51995   51994   51995   51995       0
   51997   51998   51999   51998   51999   51999       0   52001   52002   52003
   52002   52003   52003       0   52005   52006   52007   52006   52007   52007
       0   52009   52010   52011   52010   52011   52011       0   52013   52014
   52015   52014   52015   52015       0   52017   52018   52019   52018   52019
   52019       0   52021   52022   52023   52022   52023   52023       0   52025
   52026   52027   52026   52027   52027       0   52029   52030   52031   52030
   52031   52031       0   52033   52034   52035   52034   52035   52035       0
   52037   52038   52039   52038   52039   52039       0   52041   52042   52043
   52042   52043   52043       0   52045   52046   52047   52046   52047   52047
       0   52049   52050   52051   52050   52051   52051       0   52053   52054
   52055   52054   52055   52055       0   52057   52058   52059   52058   52059
   52059       0   52061   52062   52063   52062   52063   52063       0   52065
   52066   52067   52066   52067   52067       0   52069   52070   52071   52070
   52071   52071       0   52073   52074   52075   52074   52075   52075       0
   52077   52078   52079   52078   52079   52079       0   52081   52082   52083
   52082   52083   52083       0   52085   52086   52087   52086   52087   52087
       0   52089   52090   52091   52090   52091   52091       0   52093   52094
   52095   52094   52095   52095       0   52097   52098   52099   52098   52099
   52099       0   52101   52102   52103   52102   52103   52103       0   52105
   52106   52107   52106   52107   52107       0   52109   52110   52111   52110
   52111   52111       0   52113   52114   52115   52114   52115   52115       0
   52117   52118   52119   52118   52119   52119       0   52121   52122   52123
   52122   52123   52123       0   52125   52126   52127   52126   52127   52127
       0   52129   52130   52131   52130   52131   52131       0   52133   52134
   52135   52134   52135   52135       0   52137   52138   52139   52138   52139
   52139       0   52141   52142   52143   52142   52143   52143       0   52145
   52146   52147   52146   52147   52147       0   52149   52150   52151   52150
   52151   52151       0   52153   52154   52155   52154   52155   52155       0
   52157   52158   52159   52158   52159   52159       0   52161   52162   52163
   52162   52163   52163       0   52165   52166   52167   52166   52167   52167
       0   52169   52170   52171   52170   52171   52171       0   52173   52174
   52175   52174   52175   52175       0   52177   52178   52179   52178   52179
   52179       0   52181   52182   52183   52182   52183   52183       0   52185
   52186   52187   52186   52187   52187       0   52189   52190   52191   52190
   52191   52191       0   52193   52194   52195   52194   52195   52195       0
   52197   52198   52199   52198   52199   52199       0   52201   52202   52203
   52202   52203   52203       0   52205   52206   52207   52206   52207   52207
       0   52209   52210   52211   52210   52211   52211       0   52213   52214
   52215   52214   52215   52215       0   52217   52218   52219   52218   52219
   52219       0   52221   52222   52223   52222   52223   52223       0   52225
   52226   52227   52226   52227   52227       0   52229   52230   52231   52230
   52231   52231       0   52233   52234   52235   52234   52235   52235       0
   52237   52238   52239   52238   52239   52239       0   52241   52242   52243
   52242   52243   52243       0   52245   52246   52247   52246   52247   52247
       0   52249   52250   52251   52250   52251   52251       0   52253   52254
   52255   52254   52255   52255       0   52257   52258   52259   52258   52259
   52259       0   52261   52262   52263   52262   52263   52263       0   52265
   52266   52267   52266   52267   52267       0   52269   52270   52271   52270
   52271   52271       0   52273   52274   52275   52274   52275   52275       0
   52277   52278   52279   52278   52279   52279       0   52281   52282   52283
   52282   52283   52283       0   52285   52286   52287   52286   52287   52287
       0   52289   52290   52291   52290   52291   52291       0   52293   52294
   52295   52294   52295   52295       0   52297   52298   52299   52298   52299
   52299       0   52301   52302   52303   52302   52303   52303       0   52305
   52306   52307   52306   52307   52307       0   52309   52310   52311   52310
   52311   52311       0   52313   52314   52315   52314   52315   52315       0
   52317   52318   52319   52318   52319   52319       0   52321   52322   52323
   52322   52323   52323       0   52325   52326   52327   52326   52327   52327
       0   52329   52330   52331   52330   52331   52331       0   52333   52334
   52335   52334   52335   52335       0   52337   52338   52339   52338   52339
   52339       0   52341   52342   52343   52342   52343   52343       0   52345
   52346   52347   52346   52347   52347       0   52349   52350   52351   52350
   52351   52351       0   52353   52354   52355   52354   52355   52355       0
   52357   52358   52359   52358   52359   52359       0   52361   52362   52363
   52362   52363   52363       0   52365   52366   52367   52366   52367   52367
       0   52369   52370   52371   52370   52371   52371       0   52373   52374
   52375   52374   52375   52375       0   52377   52378   52379   52378   52379
   52379       0   52381   52382   52383   52382   52383   52383       0   52385
   52386   52387   52386   52387   52387       0   52389   52390   52391   52390
   52391   52391       0   52393   52394   52395   52394   52395   52395       0
   52397   52398   52399   52398   52399   52399       0   52401   52402   52403
   52402   52403   52403       0   52405   52406   52407   52406   52407   52407
       0   52409   52410   52411   52410   52411   52411       0   52413   52414
   52415   52414   52415   52415       0   52417   52418   52419   52418   52419
   52419       0   52421   52422   52423   52422   52423   52423       0   52425
   52426   52427   52426   52427   52427       0   52429   52430   52431   52430
   52431   52431       0   52433   52434   52435   52434   52435   52435       0
   52437   52438   52439   52438   52439   52439       0   52441   52442   52443
   52442   52443   52443       0   52445   52446   52447   52446   52447   52447
       0   52449   52450   52451   52450   52451   52451       0   52453   52454
   52455   52454   52455   52455       0   52457   52458   52459   52458   52459
   52459       0   52461   52462   52463   52462   52463   52463       0   52465
   52466   52467   52466   52467   52467       0   52469   52470   52471   52470
   52471   52471       0   52473   52474   52475   52474   52475   52475       0
   52477   52478   52479   52478   52479   52479       0   52481   52482   52483
   52482   52483   52483       0   52485   52486   52487   52486   52487   52487
       0   52489   52490   52491   52490   52491   52491       0   52493   52494
   52495   52494   52495   52495       0   52497   52498   52499   52498   52499
   52499       0   52501   52502   52503   52502   52503   52503       0   52505
   52506   52507   52506   52507   52507       0   52509   52510   52511   52510
   52511   52511       0   52513   52514   52515   52514   52515   52515       0
   52517   52518   52519   52518   52519   52519       0   52521   52522   52523
   52522   52523   52523       0   52525   52526   52527   52526   52527   52527
       0   52529   52530   52531   52530   52531   52531       0   52533   52534
   52535   52534   52535   52535       0   52537   52538   52539   52538   52539
   52539       0   52541   52542   52543   52542   52543   52543       0   52545
   52546   52547   52546   52547   52547       0   52549   52550   52551   52550
   52551   52551       0   52553   52554   52555   52554   52555   52555       0
   52557   52558   52559   52558   52559   52559       0   52561   52562   52563
   52562   52563   52563       0   52565   52566   52567   52566   52567   52567
       0   52569   52570   52571   52570   52571   52571       0   52573   52574
   52575   52574   52575   52575       0   52577   52578   52579   52578   52579
   52579       0   52581   52582   52583   52582   52583   52583       0   52585
   52586   52587   52586   52587   52587       0   52589   52590   52591   52590
   52591   52591       0   52593   52594   52595   52594   52595   52595       0
   52597   52598   52599   52598   52599   52599       0   52601   52602   52603
   52602   52603   52603       0   52605   52606   52607   52606   52607   52607
       0   52609   52610   52611   52610   52611   52611       0   52613   52614
   52615   52614   52615   52615       0   52617   52618   52619   52618   52619
   52619       0   52621   52622   52623   52622   52623   52623       0   52625
   52626   52627   52626   52627   52627       0   52629   52630   52631   52630
   52631   52631       0   52633   52634   52635   52634   52635   52635       0
   52637   52638   52639   52638   52639   52639       0   52641   52642   52643
   52642   52643   52643       0   52645   52646   52647   52646   52647   52647
       0   52649   52650   52651   52650   52651   52651       0   52653   52654
   52655   52654   52655   52655       0   52657   52658   52659   52658   52659
   52659       0   52661   52662   52663   52662   52663   52663       0   52665
   52666   52667   52666   52667   52667       0   52669   52670   52671   52670
   52671   52671       0   52673   52674   52675   52674   52675   52675       0
   52677   52678   52679   52678   52679   52679       0   52681   52682   52683
   52682   52683   52683       0   52685   52686   52687   52686   52687   52687
       0   52689   52690   52691   52690   52691   52691       0   52693   52694
   52695   52694   52695   52695       0   52697   52698   52699   52698   52699
   52699       0   52701   52702   52703   52702   52703   52703       0   52705
   52706   52707   52706   52707   52707       0   52709   52710   52711   52710
   52711   52711       0   52713   52714   52715   52714   52715   52715       0
   52717   52718   52719   52718   52719   52719       0   52721   52722   52723
   52722   52723   52723       0   52725   52726   52727   52726   52727   52727
       0   52729   52730   52731   52730   52731   52731       0   52733   52734
   52735   52734   52735   52735       0   52737   52738   52739   52738   52739
   52739       0   52741   52742   52743   52742   52743   52743       0   52745
   52746   52747   52746   52747   52747       0   52749   52750   52751   52750
   52751   52751       0   52753   52754   52755   52754   52755   52755       0
   52757   52758   52759   52758   52759   52759       0   52761   52762   52763
   52762   52763   52763       0   52765   52766   52767   52766   52767   52767
       0   52769   52770   52771   52770   52771   52771       0   52773   52774
   52775   52774   52775   52775       0   52777   52778   52779   52778   52779
   52779       0   52781   52782   52783   52782   52783   52783       0   52785
   52786   52787   52786   52787   52787       0   52789   52790   52791   52790
   52791   52791       0   52793   52794   52795   52794   52795   52795       0
   52797   52798   52799   52798   52799   52799       0   52801   52802   52803
   52802   52803   52803       0   52805   52806   52807   52806   52807   52807
       0   52809   52810   52811   52810   52811   52811       0   52813   52814
   52815   52814   52815   52815       0   52817   52818   52819   52818   52819
   52819       0   52821   52822   52823   52822   52823   52823       0   52825
   52826   52827   52826   52827   52827       0   52829   52830   52831   52830
   52831   52831       0   52833   52834   52835   52834   52835   52835       0
   52837   52838   52839   52838   52839   52839       0   52841   52842   52843
   52842   52843   52843       0   52845   52846   52847   52846   52847   52847
       0   52849   52850   52851   52850   52851   52851       0   52853   52854
   52855   52854   52855   52855       0   52857   52858   52859   52858   52859
   52859       0   52861   52862   52863   52862   52863   52863       0   52865
   52866   52867   52866   52867   52867       0   52869   52870   52871   52870
   52871   52871       0   52873   52874   52875   52874   52875   52875       0
   52877   52878   52879   52878   52879   52879       0
%FLAG HBOND_ACOEF                                                               
%FORMAT(5E16.8)                                                                 

%FLAG HBOND_BCOEF                                                               
%FORMAT(5E16.8)                                                                 

%FLAG HBCUT                                                                     
%FORMAT(5E16.8)                                                                 

%FLAG AMBER_ATOM_TYPE                                                           
%FORMAT(20a4)                                                                   
HO  OH  CI  H1  H1  CT  H1  OS  CT  H2  N*  CP  H5  NB  CB  C   O   NA  H   CA  
N2  H   H   NC  CB  CT  H1  CT  H1  OH  HO  OS  P   O2  O2  OS  CI  H1  H1  CT  
H1  OS  CT  H2  N*  CP  H5  NB  CB  C   O   NA  H   CA  N2  H   H   NC  CB  CT  
H1  CT  H1  OH  HO  OS  P   O2  O2  OS  CI  H1  H1  CT  H1  OS  CT  H2  N*  C5  
H5  NB  CB  CA  N2  H   H   NC  CQ  H5  NC  CB  CT  H1  CT  H1  OH  HO  OS  P   
O2  O2  OS  CI  H1  H1  CT  H1  OS  CT  H2  N*  CS  H4  CS  HA  C   O   NA  H   
C   O   CT  H1  CT  H1  OH  HO  OS  P   O2  O2  OS  CI  H1  H1  CT  H1  OS  CT  
H2  N*  C4  H4  C4  HA  CA  N2  H   H   NC  C   O   CT  H1  CT  H1  OH  HO  OS  
P   O2  O2  OS  CI  H1  H1  CT  H1  OS  CT  H2  N*  C5  H5  NB  CB  CA  N2  H   
H   NC  CQ  H5  NC  CB  CT  H1  CT  H1  OH  HO  OS  P   O2  O2  OS  CI  H1  H1  
CT  H1  OS  CT  H2  N*  CS  H4  CS  HA  C   O   NA  H   C   O   CT  H1  CT  H1  
OH  HO  OS  P   O2  O2  OS  CI  H1  H1  CT  H1  OS  CT  H2  N*  C5  H5  NB  CB  
CA  N2  H   H   NC  CQ  H5  NC  CB  CT  H1  CT  H1  OH  HO  OS  P   O2  O2  OS  
CI  H1  H1  CT  H1  OS  CT  H2  N*  CS  H4  CS  HA  C   O   NA  H   C   O   CT  
H1  CT  H1  OH  HO  OS  P   O2  O2  OS  CI  H1  H1  CT  H1  OS  CT  H2  N*  C5  
H5  NB  CB  CA  N2  H   H   NC  CQ  H5  NC  CB  CT  H1  CT  H1  OH  HO  OS  P   
O2  O2  OS  CI  H1  H1  CT  H1  OS  CT  H2  N*  C5  H5  NB  CB  CA  N2  H   H   
NC  CQ  H5  NC  CB  CT  H1  CT  H1  OH  HO  OS  P   O2  O2  OS  CI  H1  H1  CT  
H1  OS  CT  H2  N*  CS  H4  CS  HA  C   O   NA  H   C   O   CT  H1  CT  H1  OH  
HO  OS  P   O2  O2  OS  CI  H1  H1  CT  H1  OS  CT  H2  N*  C4  H4  C4  HA  CA  
N2  H   H   NC  C   O   CT  H1  CT  H1  OH  HO  OS  P   O2  O2  OS  CI  H1  H1  
CT  H1  OS  CT  H2  N*  CP  H5  NB  CB  C   O   NA  H   CA  N2  H   H   NC  CB  
CT  H1  CT  H1  OH  HO  OS  P   O2  O2  OS  CI  H1  H1  CT  H1  OS  CT  H2  N*  
C4  H4  C4  HA  CA  N2  H   H   NC  C   O   CT  H1  CT  H1  OH  HO  OS  P   O2  
O2  OS  CI  H1  H1  CT  H1  OS  CT  H2  N*  CP  H5  NB  CB  C   O   NA  H   CA  
N2  H   H   NC  CB  CT  H1  CT  H1  OH  HO  OS  P   O2  O2  OS  CI  H1  H1  CT  
H1  OS  CT  H2  N*  CS  H4  CS  HA  C   O   NA  H   C   O   CT  H1  CT  H1  OH  
HO  OS  P   O2  O2  OS  CI  H1  H1  CT  H1  OS  CT  H2  N*  CP  H5  NB  CB  C   
O   NA  H   CA  N2  H   H   NC  CB  CT  H1  CT  H1  OH  HO  OS  P   O2  O2  OS  
CI  H1  H1  CT  H1  OS  CT  H2  N*  CP  H5  NB  CB  C   O   NA  H   CA  N2  H   
H   NC  CB  CT  H1  CT  H1  OH  HO  OS  P   O2  O2  OS  CI  H1  H1  CT  H1  OS  
CT  H2  N*  C5  H5  NB  CB  CA  N2  H   H   NC  CQ  H5  NC  CB  CT  H1  CT  H1  
OH  HO  OS  P   O2  O2  OS  CI  H1  H1  CT  H1  OS  CT  H2  N*  CS  H4  CS  HA  
C   O   NA  H   C   O   CT  H1  CT  H1  OH  HO  OS  P   O2  O2  OS  CI  H1  H1  
CT  H1  OS  CT  H2  N*  C5  H5  NB  CB  CA  N2  H   H   NC  CQ  H5  NC  CB  CT  
H1  CT  H1  OH  HO  OS  P   O2  O2  OS  CI  H1  H1  CT  H1  OS  CT  H2  N*  CS  
H4  CS  HA  C   O   NA  H   C   O   CT  H1  CT  H1  OH  HO  OS  P   O2  O2  OS  
CI  H1  H1  CT  H1  OS  CT  H2  N*  CP  H5  NB  CB  C   O   NA  H   CA  N2  H   
H   NC  CB  CT  H1  CT  H1  OH  HO  OS  P   O2  O2  OS  CI  H1  H1  CT  H1  OS  
CT  H2  N*  CP  H5  NB  CB  C   O   NA  H   CA  N2  H   H   NC  CB  CT  H1  CT  
H1  OH  HO  OS  P   O2  O2  OS  CI  H1  H1  CT  H1  OS  CT  H2  N*  C4  H4  C4  
HA  CA  N2  H   H   NC  C   O   CT  H1  CT  H1  OH  HO  OS  P   O2  O2  OS  CI  
H1  H1  CT  H1  OS  CT  H2  N*  C5  H5  NB  CB  CA  N2  H   H   NC  CQ  H5  NC  
CB  CT  H1  CT  H1  OH  HO  OS  P   O2  O2  OS  CI  H1  H1  CT  H1  OS  CT  H2  
N*  C4  H4  C4  HA  CA  N2  H   H   NC  C   O   CT  H1  CT  H1  OH  HO  OS  P   
O2  O2  OS  CI  H1  H1  CT  H1  OS  CT  H2  N*  CP  H5  NB  CB  C   O   NA  H   
CA  N2  H   H   NC  CB  CT  H1  CT  H1  OH  HO  OS  P   O2  O2  OS  CI  H1  H1  
CT  H1  OS  CT  H2  N*  C4  H4  C4  HA  CA  N2  H   H   NC  C   O   CT  H1  CT  
H1  OH  HO  OS  P   O2  O2  OS  CI  H1  H1  CT  H1  OS  CT  H2  N*  C5  H5  NB  
CB  CA  N2  H   H   NC  CQ  H5  NC  CB  CT  H1  CT  H1  OH  HO  OS  P   O2  O2  
OS  CI  H1  H1  CT  H1  OS  CT  H2  N*  C5  H5  NB  CB  CA  N2  H   H   NC  CQ  
H5  NC  CB  CT  H1  CT  H1  OH  HO  OS  P   O2  O2  OS  CI  H1  H1  CT  H1  OS  
CT  H2  N*  CP  H5  NB  CB  C   O   NA  H   CA  N2  H   H   NC  CB  CT  H1  CT  
H1  OH  HO  OS  P   O2  O2  OS  CI  H1  H1  CT  H1  OS  CT  H2  N*  CS  H4  CS  
HA  C   O   NA  H   C   O   CT  H1  CT  H1  OH  HO  OS  P   O2  O2  OS  CI  H1  
H1  CT  H1  OS  CT  H2  N*  CS  H4  CS  HA  C   O   NA  H   C   O   CT  H1  CT  
H1  OH  HO  OS  P   O2  O2  OS  CI  H1  H1  CT  H1  OS  CT  H2  N*  CS  H4  CS  
HA  C   O   NA  H   C   O   CT  H1  CT  H1  OH  HO  OS  P   O2  O2  OS  CI  H1  
H1  CT  H1  OS  CT  H2  N*  C4  H4  C4  HA  CA  N2  H   H   NC  C   O   CT  H1  
CT  H1  OH  HO  OS  P   O2  O2  OS  CI  H1  H1  CT  H1  OS  CT  H2  N*  CS  H4  
CS  HA  C   O   NA  H   C   O   CT  H1  CT  H1  OH  HO  OS  P   O2  O2  OS  CI  
H1  H1  CT  H1  OS  CT  H2  N*  C5  H5  NB  CB  CA  N2  H   H   NC  CQ  H5  NC  
CB  CT  H1  CT  H1  OH  HO  OS  P   O2  O2  OS  CI  H1  H1  CT  H1  OS  CT  H2  
N*  C4  H4  C4  HA  CA  N2  H   H   NC  C   O   CT  H1  CT  H1  OH  HO  OS  P   
O2  O2  OS  CI  H1  H1  CT  H1  OS  CT  H2  N*  C4  H4  C4  HA  CA  N2  H   H   
NC  C   O   CT  H1  CT  H1  OH  HO  OS  P   O2  O2  OS  CI  H1  H1  CT  H1  OS  
CT  H2  N*  CP  H5  NB  CB  C   O   NA  H   CA  N2  H   H   NC  CB  CT  H1  CT  
H1  OH  HO  OS  P   O2  O2  OS  CI  H1  H1  CT  H1  OS  CT  H2  N*  CP  H5  NB  
CB  C   O   NA  H   CA  N2  H   H   NC  CB  CT  H1  CT  H1  OH  HO  OS  P   O2  
O2  OS  CI  H1  H1  CT  H1  OS  CT  H2  N*  CP  H5  NB  CB  C   O   NA  H   CA  
N2  H   H   NC  CB  CT  H1  CT  H1  OH  HO  OS  P   O2  O2  OS  CI  H1  H1  CT  
H1  OS  CT  H2  N*  C4  H4  C4  HA  CA  N2  H   H   NC  C   O   CT  H1  CT  H1  
OH  HO  OS  P   O2  O2  OS  CI  H1  H1  CT  H1  OS  CT  H2  N*  C5  H5  NB  CB  
CA  N2  H   H   NC  CQ  H5  NC  CB  CT  H1  CT  H1  OH  HO  OS  P   O2  O2  OS  
CI  H1  H1  CT  H1  OS  CT  H2  N*  C4  H4  C4  HA  CA  N2  H   H   NC  C   O   
CT  H1  CT  H1  OH  HO  OS  P   O2  O2  OS  CI  H1  H1  CT  H1  OS  CT  H2  N*  
C4  H4  C4  HA  CA  N2  H   H   NC  C   O   CT  H1  CT  H1  OH  HO  OS  P   O2  
O2  OS  CI  H1  H1  CT  H1  OS  CT  H2  N*  CP  H5  NB  CB  C   O   NA  H   CA  
N2  H   H   NC  CB  CT  H1  CT  H1  OH  HO  OS  P   O2  O2  OS  CI  H1  H1  CT  
H1  OS  CT  H2  N*  CS  H4  CS  HA  C   O   NA  H   C   O   CT  H1  CT  H1  OH  
HO  OS  P   O2  O2  OS  CI  H1  H1  CT  H1  OS  CT  H2  N*  C5  H5  NB  CB  CA  
N2  H   H   NC  CQ  H5  NC  CB  CT  H1  CT  H1  OH  HO  OS  P   O2  O2  OS  CI  
H1  H1  CT  H1  OS  CT  H2  N*  C5  H5  NB  CB  CA  N2  H   H   NC  CQ  H5  NC  
CB  CT  H1  CT  H1  OH  HO  OS  P   O2  O2  OS  CI  H1  H1  CT  H1  OS  CT  H2  
N*  C5  H5  NB  CB  CA  N2  H   H   NC  CQ  H5  NC  CB  CT  H1  CT  H1  OH  HO  
OS  P   O2  O2  OS  CI  H1  H1  CT  H1  OS  CT  H2  N*  CS  H4  CS  HA  C   O   
NA  H   C   O   CT  H1  CT  H1  OH  HO  OS  P   O2  O2  OS  CI  H1  H1  CT  H1  
OS  CT  H2  N*  CP  H5  NB  CB  C   O   NA  H   CA  N2  H   H   NC  CB  CT  H1  
CT  H1  OH  HO  OS  P   O2  O2  OS  CI  H1  H1  CT  H1  OS  CT  H2  N*  CS  H4  
CS  HA  C   O   NA  H   C   O   CT  H1  CT  H1  OH  HO  OS  P   O2  O2  OS  CI  
H1  H1  CT  H1  OS  CT  H2  N*  C4  H4  C4  HA  CA  N2  H   H   NC  C   O   CT  
H1  CT  H1  OH  HO  OS  P   O2  O2  OS  CI  H1  H1  CT  H1  OS  CT  H2  N*  C4  
H4  C4  HA  CA  N2  H   H   NC  C   O   CT  H1  CT  H1  OH  HO  OS  P   O2  O2  
OS  CI  H1  H1  CT  H1  OS  CT  H2  N*  CP  H5  NB  CB  C   O   NA  H   CA  N2  
H   H   NC  CB  CT  H1  CT  H1  OH  HO  OS  P   O2  O2  OS  CI  H1  H1  CT  H1  
OS  CT  H2  N*  C5  H5  NB  CB  CA  N2  H   H   NC  CQ  H5  NC  CB  CT  H1  CT  
H1  OH  HO  OS  P   O2  O2  OS  CI  H1  H1  CT  H1  OS  CT  H2  N*  C4  H4  C4  
HA  CA  N2  H   H   NC  C   O   CT  H1  CT  H1  OH  HO  OS  P   O2  O2  OS  CI  
H1  H1  CT  H1  OS  CT  H2  N*  CS  H4  CS  HA  C   O   NA  H   C   O   CT  H1  
CT  H1  OH  HO  OS  P   O2  O2  OS  CI  H1  H1  CT  H1  OS  CT  H2  N*  C5  H5  
NB  CB  CA  N2  H   H   NC  CQ  H5  NC  CB  CT  H1  CT  H1  OH  HO  OS  P   O2  
O2  OS  CI  H1  H1  CT  H1  OS  CT  H2  N*  CS  H4  CS  HA  C   O   NA  H   C   
O   CT  H1  CT  H1  OH  HO  OS  P   O2  O2  OS  CI  H1  H1  CT  H1  OS  CT  H2  
N*  CP  H5  NB  CB  C   O   NA  H   CA  N2  H   H   NC  CB  CT  H1  CT  H1  OH  
HO  OS  P   O2  O2  OS  CI  H1  H1  CT  H1  OS  CT  H2  N*  CP  H5  NB  CB  C   
O   NA  H   CA  N2  H   H   NC  CB  CT  H1  CT  H1  OH  HO  OS  P   O2  O2  OS  
CI  H1  H1  CT  H1  OS  CT  H2  N*  CS  H4  CS  HA  C   O   NA  H   C   O   CT  
H1  CT  H1  OH  HO  OS  P   O2  O2  OS  CI  H1  H1  CT  H1  OS  CT  H2  N*  C4  
H4  C4  HA  CA  N2  H   H   NC  C   O   CT  H1  CT  H1  OH  HO  OH  HO  Na+ Na+ 
Na+ Na+ Na+ Na+ Na+ Na+ Na+ Na+ Na+ Na+ Na+ Na+ Na+ Na+ Na+ Na+ Na+ Na+ Na+ Na+ 
Na+ Na+ Na+ Na+ Na+ Na+ Na+ Na+ Na+ Na+ Na+ Na+ Na+ Na+ Na+ Na+ Na+ Na+ Na+ Na+ 
Na+ Na+ Na+ Na+ Na+ Na+ Na+ Na+ Na+ Na+ Na+ Na+ Na+ Na+ Na+ Na+ Na+ Na+ Na+ Na+ 
Na+ Na+ Na+ Na+ Na+ Na+ Cl- Na+ Cl- Na+ Cl- Na+ Cl- Na+ Cl- Na+ Cl- Na+ Cl- Na+ 
Cl- Na+ Cl- Na+ Cl- Na+ Cl- Na+ Cl- Na+ Cl- Na+ Cl- Na+ Cl- Na+ Cl- Na+ Cl- Na+ 
Cl- Na+ Cl- Na+ Cl- Na+ Cl- Na+ Cl- Na+ Cl- Na+ Cl- Na+ Cl- Na+ Cl- Na+ Cl- Na+ 
Cl- Na+ Cl- Na+ Cl- Na+ Cl- Na+ Cl- o   c   ns  cc  nu  os  c3  ca  ca  ca  ca  
ca  ca  nd  cd  cc  nc  cd  na  hn  hn  h1  h1  ha  ha  ha  ha  ha  h5  hn  OW  
HW  HW  EP  OW  HW  HW  EP  OW  HW  HW  EP  OW  HW  HW  EP  OW  HW  HW  EP  OW  
HW  HW  EP  OW  HW  HW  EP  OW  HW  HW  EP  OW  HW  HW  EP  OW  HW  HW  EP  OW  
HW  HW  EP  OW  HW  HW  EP  OW  HW  HW  EP  OW  HW  HW  EP  OW  HW  HW  EP  OW  
HW  HW  EP  OW  HW  HW  EP  OW  HW  HW  EP  OW  HW  HW  EP  OW  HW  HW  EP  OW  
HW  HW  EP  OW  HW  HW  EP  OW  HW  HW  EP  OW  HW  HW  EP  OW  HW  HW  EP  OW  
HW  HW  EP  OW  HW  HW  EP  OW  HW  HW  EP  OW  HW  HW  EP  OW  HW  HW  EP  OW  
HW  HW  EP  OW  HW  HW  EP  OW  HW  HW  EP  OW  HW  HW  EP  OW  HW  HW  EP  OW  
HW  HW  EP  OW  HW  HW  EP  OW  HW  HW  EP  OW  HW  HW  EP  OW  HW  HW  EP  OW  
HW  HW  EP  OW  HW  HW  EP  OW  HW  HW  EP  OW  HW  HW  EP  OW  HW  HW  EP  OW  
HW  HW  EP  OW  HW  HW  EP  OW  HW  HW  EP  OW  HW  HW  EP  OW  HW  HW  EP  OW  
HW  HW  EP  OW  HW  HW  EP  OW  HW  HW  EP  OW  HW  HW  EP  OW  HW  HW  EP  OW  
HW  HW  EP  OW  HW  HW  EP  OW  HW  HW  EP  OW  HW  HW  EP  OW  HW  HW  EP  OW  
HW  HW  EP  OW  HW  HW  EP  OW  HW  HW  EP  OW  HW  HW  EP  OW  HW  HW  EP  OW  
HW  HW  EP  OW  HW  HW  EP  OW  HW  HW  EP  OW  HW  HW  EP  OW  HW  HW  EP  OW  
HW  HW  EP  OW  HW  HW  EP  OW  HW  HW  EP  OW  HW  HW  EP  OW  HW  HW  EP  OW  
HW  HW  EP  OW  HW  HW  EP  OW  HW  HW  EP  OW  HW  HW  EP  OW  HW  HW  EP  OW  
HW  HW  EP  OW  HW  HW  EP  OW  HW  HW  EP  OW  HW  HW  EP  OW  HW  HW  EP  OW  
HW  HW  EP  OW  HW  HW  EP  OW  HW  HW  EP  OW  HW  HW  EP  OW  HW  HW  EP  OW  
HW  HW  EP  OW  HW  HW  EP  OW  HW  HW  EP  OW  HW  HW  EP  OW  HW  HW  EP  OW  
HW  HW  EP  OW  HW  HW  EP  OW  HW  HW  EP  OW  HW  HW  EP  OW  HW  HW  EP  OW  
HW  HW  EP  OW  HW  HW  EP  OW  HW  HW  EP  OW  HW  HW  EP  OW  HW  HW  EP  OW  
HW  HW  EP  OW  HW  HW  EP  OW  HW  HW  EP  OW  HW  HW  EP  OW  HW  HW  EP  OW  
HW  HW  EP  OW  HW  HW  EP  OW  HW  HW  EP  OW  HW  HW  EP  OW  HW  HW  EP  OW  
HW  HW  EP  OW  HW  HW  EP  OW  HW  HW  EP  OW  HW  HW  EP  OW  HW  HW  EP  OW  
HW  HW  EP  OW  HW  HW  EP  OW  HW  HW  EP  OW  HW  HW  EP  OW  HW  HW  EP  OW  
HW  HW  EP  OW  HW  HW  EP  OW  HW  HW  EP  OW  HW  HW  EP  OW  HW  HW  EP  OW  
HW  HW  EP  OW  HW  HW  EP  OW  HW  HW  EP  OW  HW  HW  EP  OW  HW  HW  EP  OW  
HW  HW  EP  OW  HW  HW  EP  OW  HW  HW  EP  OW  HW  HW  EP  OW  HW  HW  EP  OW  
HW  HW  EP  OW  HW  HW  EP  OW  HW  HW  EP  OW  HW  HW  EP  OW  HW  HW  EP  OW  
HW  HW  EP  OW  HW  HW  EP  OW  HW  HW  EP  OW  HW  HW  EP  OW  HW  HW  EP  OW  
HW  HW  EP  OW  HW  HW  EP  OW  HW  HW  EP  OW  HW  HW  EP  OW  HW  HW  EP  OW  
HW  HW  EP  OW  HW  HW  EP  OW  HW  HW  EP  OW  HW  HW  EP  OW  HW  HW  EP  OW  
HW  HW  EP  OW  HW  HW  EP  OW  HW  HW  EP  OW  HW  HW  EP  OW  HW  HW  EP  OW  
HW  HW  EP  OW  HW  HW  EP  OW  HW  HW  EP  OW  HW  HW  EP  OW  HW  HW  EP  OW  
HW  HW  EP  OW  HW  HW  EP  OW  HW  HW  EP  OW  HW  HW  EP  OW  HW  HW  EP  OW  
HW  HW  EP  OW  HW  HW  EP  OW  HW  HW  EP  OW  HW  HW  EP  OW  HW  HW  EP  OW  
HW  HW  EP  OW  HW  HW  EP  OW  HW  HW  EP  OW  HW  HW  EP  OW  HW  HW  EP  OW  
HW  HW  EP  OW  HW  HW  EP  OW  HW  HW  EP  OW  HW  HW  EP  OW  HW  HW  EP  OW  
HW  HW  EP  OW  HW  HW  EP  OW  HW  HW  EP  OW  HW  HW  EP  OW  HW  HW  EP  OW  
HW  HW  EP  OW  HW  HW  EP  OW  HW  HW  EP  OW  HW  HW  EP  OW  HW  HW  EP  OW  
HW  HW  EP  OW  HW  HW  EP  OW  HW  HW  EP  OW  HW  HW  EP  OW  HW  HW  EP  OW  
HW  HW  EP  OW  HW  HW  EP  OW  HW  HW  EP  OW  HW  HW  EP  OW  HW  HW  EP  OW  
HW  HW  EP  OW  HW  HW  EP  OW  HW  HW  EP  OW  HW  HW  EP  OW  HW  HW  EP  OW  
HW  HW  EP  OW  HW  HW  EP  OW  HW  HW  EP  OW  HW  HW  EP  OW  HW  HW  EP  OW  
HW  HW  EP  OW  HW  HW  EP  OW  HW  HW  EP  OW  HW  HW  EP  OW  HW  HW  EP  OW  
HW  HW  EP  OW  HW  HW  EP  OW  HW  HW  EP  OW  HW  HW  EP  OW  HW  HW  EP  OW  
HW  HW  EP  OW  HW  HW  EP  OW  HW  HW  EP  OW  HW  HW  EP  OW  HW  HW  EP  OW  
HW  HW  EP  OW  HW  HW  EP  OW  HW  HW  EP  OW  HW  HW  EP  OW  HW  HW  EP  OW  
HW  HW  EP  OW  HW  HW  EP  OW  HW  HW  EP  OW  HW  HW  EP  OW  HW  HW  EP  OW  
HW  HW  EP  OW  HW  HW  EP  OW  HW  HW  EP  OW  HW  HW  EP  OW  HW  HW  EP  OW  
HW  HW  EP  OW  HW  HW  EP  OW  HW  HW  EP  OW  HW  HW  EP  OW  HW  HW  EP  OW  
HW  HW  EP  OW  HW  HW  EP  OW  HW  HW  EP  OW  HW  HW  EP  OW  HW  HW  EP  OW  
HW  HW  EP  OW  HW  HW  EP  OW  HW  HW  EP  OW  HW  HW  EP  OW  HW  HW  EP  OW  
HW  HW  EP  OW  HW  HW  EP  OW  HW  HW  EP  OW  HW  HW  EP  OW  HW  HW  EP  OW  
HW  HW  EP  OW  HW  HW  EP  OW  HW  HW  EP  OW  HW  HW  EP  OW  HW  HW  EP  OW  
HW  HW  EP  OW  HW  HW  EP  OW  HW  HW  EP  OW  HW  HW  EP  OW  HW  HW  EP  OW  
HW  HW  EP  OW  HW  HW  EP  OW  HW  HW  EP  OW  HW  HW  EP  OW  HW  HW  EP  OW  
HW  HW  EP  OW  HW  HW  EP  OW  HW  HW  EP  OW  HW  HW  EP  OW  HW  HW  EP  OW  
HW  HW  EP  OW  HW  HW  EP  OW  HW  HW  EP  OW  HW  HW  EP  OW  HW  HW  EP  OW  
HW  HW  EP  OW  HW  HW  EP  OW  HW  HW  EP  OW  HW  HW  EP  OW  HW  HW  EP  OW  
HW  HW  EP  OW  HW  HW  EP  OW  HW  HW  EP  OW  HW  HW  EP  OW  HW  HW  EP  OW  
HW  HW  EP  OW  HW  HW  EP  OW  HW  HW  EP  OW  HW  HW  EP  OW  HW  HW  EP  OW  
HW  HW  EP  OW  HW  HW  EP  OW  HW  HW  EP  OW  HW  HW  EP  OW  HW  HW  EP  OW  
HW  HW  EP  OW  HW  HW  EP  OW  HW  HW  EP  OW  HW  HW  EP  OW  HW  HW  EP  OW  
HW  HW  EP  OW  HW  HW  EP  OW  HW  HW  EP  OW  HW  HW  EP  OW  HW  HW  EP  OW  
HW  HW  EP  OW  HW  HW  EP  OW  HW  HW  EP  OW  HW  HW  EP  OW  HW  HW  EP  OW  
HW  HW  EP  OW  HW  HW  EP  OW  HW  HW  EP  OW  HW  HW  EP  OW  HW  HW  EP  OW  
HW  HW  EP  OW  HW  HW  EP  OW  HW  HW  EP  OW  HW  HW  EP  OW  HW  HW  EP  OW  
HW  HW  EP  OW  HW  HW  EP  OW  HW  HW  EP  OW  HW  HW  EP  OW  HW  HW  EP  OW  
HW  HW  EP  OW  HW  HW  EP  OW  HW  HW  EP  OW  HW  HW  EP  OW  HW  HW  EP  OW  
HW  HW  EP  OW  HW  HW  EP  OW  HW  HW  EP  OW  HW  HW  EP  OW  HW  HW  EP  OW  
HW  HW  EP  OW  HW  HW  EP  OW  HW  HW  EP  OW  HW  HW  EP  OW  HW  HW  EP  OW  
HW  HW  EP  OW  HW  HW  EP  OW  HW  HW  EP  OW  HW  HW  EP  OW  HW  HW  EP  OW  
HW  HW  EP  OW  HW  HW  EP  OW  HW  HW  EP  OW  HW  HW  EP  OW  HW  HW  EP  OW  
HW  HW  EP  OW  HW  HW  EP  OW  HW  HW  EP  OW  HW  HW  EP  OW  HW  HW  EP  OW  
HW  HW  EP  OW  HW  HW  EP  OW  HW  HW  EP  OW  HW  HW  EP  OW  HW  HW  EP  OW  
HW  HW  EP  OW  HW  HW  EP  OW  HW  HW  EP  OW  HW  HW  EP  OW  HW  HW  EP  OW  
HW  HW  EP  OW  HW  HW  EP  OW  HW  HW  EP  OW  HW  HW  EP  OW  HW  HW  EP  OW  
HW  HW  EP  OW  HW  HW  EP  OW  HW  HW  EP  OW  HW  HW  EP  OW  HW  HW  EP  OW  
HW  HW  EP  OW  HW  HW  EP  OW  HW  HW  EP  OW  HW  HW  EP  OW  HW  HW  EP  OW  
HW  HW  EP  OW  HW  HW  EP  OW  HW  HW  EP  OW  HW  HW  EP  OW  HW  HW  EP  OW  
HW  HW  EP  OW  HW  HW  EP  OW  HW  HW  EP  OW  HW  HW  EP  OW  HW  HW  EP  OW  
HW  HW  EP  OW  HW  HW  EP  OW  HW  HW  EP  OW  HW  HW  EP  OW  HW  HW  EP  OW  
HW  HW  EP  OW  HW  HW  EP  OW  HW  HW  EP  OW  HW  HW  EP  OW  HW  HW  EP  OW  
HW  HW  EP  OW  HW  HW  EP  OW  HW  HW  EP  OW  HW  HW  EP  OW  HW  HW  EP  OW  
HW  HW  EP  OW  HW  HW  EP  OW  HW  HW  EP  OW  HW  HW  EP  OW  HW  HW  EP  OW  
HW  HW  EP  OW  HW  HW  EP  OW  HW  HW  EP  OW  HW  HW  EP  OW  HW  HW  EP  OW  
HW  HW  EP  OW  HW  HW  EP  OW  HW  HW  EP  OW  HW  HW  EP  OW  HW  HW  EP  OW  
HW  HW  EP  OW  HW  HW  EP  OW  HW  HW  EP  OW  HW  HW  EP  OW  HW  HW  EP  OW  
HW  HW  EP  OW  HW  HW  EP  OW  HW  HW  EP  OW  HW  HW  EP  OW  HW  HW  EP  OW  
HW  HW  EP  OW  HW  HW  EP  OW  HW  HW  EP  OW  HW  HW  EP  OW  HW  HW  EP  OW  
HW  HW  EP  OW  HW  HW  EP  OW  HW  HW  EP  OW  HW  HW  EP  OW  HW  HW  EP  OW  
HW  HW  EP  OW  HW  HW  EP  OW  HW  HW  EP  OW  HW  HW  EP  OW  HW  HW  EP  OW  
HW  HW  EP  OW  HW  HW  EP  OW  HW  HW  EP  OW  HW  HW  EP  OW  HW  HW  EP  OW  
HW  HW  EP  OW  HW  HW  EP  OW  HW  HW  EP  OW  HW  HW  EP  OW  HW  HW  EP  OW  
HW  HW  EP  OW  HW  HW  EP  OW  HW  HW  EP  OW  HW  HW  EP  OW  HW  HW  EP  OW  
HW  HW  EP  OW  HW  HW  EP  OW  HW  HW  EP  OW  HW  HW  EP  OW  HW  HW  EP  OW  
HW  HW  EP  OW  HW  HW  EP  OW  HW  HW  EP  OW  HW  HW  EP  OW  HW  HW  EP  OW  
HW  HW  EP  OW  HW  HW  EP  OW  HW  HW  EP  OW  HW  HW  EP  OW  HW  HW  EP  OW  
HW  HW  EP  OW  HW  HW  EP  OW  HW  HW  EP  OW  HW  HW  EP  OW  HW  HW  EP  OW  
HW  HW  EP  OW  HW  HW  EP  OW  HW  HW  EP  OW  HW  HW  EP  OW  HW  HW  EP  OW  
HW  HW  EP  OW  HW  HW  EP  OW  HW  HW  EP  OW  HW  HW  EP  OW  HW  HW  EP  OW  
HW  HW  EP  OW  HW  HW  EP  OW  HW  HW  EP  OW  HW  HW  EP  OW  HW  HW  EP  OW  
HW  HW  EP  OW  HW  HW  EP  OW  HW  HW  EP  OW  HW  HW  EP  OW  HW  HW  EP  OW  
HW  HW  EP  OW  HW  HW  EP  OW  HW  HW  EP  OW  HW  HW  EP  OW  HW  HW  EP  OW  
HW  HW  EP  OW  HW  HW  EP  OW  HW  HW  EP  OW  HW  HW  EP  OW  HW  HW  EP  OW  
HW  HW  EP  OW  HW  HW  EP  OW  HW  HW  EP  OW  HW  HW  EP  OW  HW  HW  EP  OW  
HW  HW  EP  OW  HW  HW  EP  OW  HW  HW  EP  OW  HW  HW  EP  OW  HW  HW  EP  OW  
HW  HW  EP  OW  HW  HW  EP  OW  HW  HW  EP  OW  HW  HW  EP  OW  HW  HW  EP  OW  
HW  HW  EP  OW  HW  HW  EP  OW  HW  HW  EP  OW  HW  HW  EP  OW  HW  HW  EP  OW  
HW  HW  EP  OW  HW  HW  EP  OW  HW  HW  EP  OW  HW  HW  EP  OW  HW  HW  EP  OW  
HW  HW  EP  OW  HW  HW  EP  OW  HW  HW  EP  OW  HW  HW  EP  OW  HW  HW  EP  OW  
HW  HW  EP  OW  HW  HW  EP  OW  HW  HW  EP  OW  HW  HW  EP  OW  HW  HW  EP  OW  
HW  HW  EP  OW  HW  HW  EP  OW  HW  HW  EP  OW  HW  HW  EP  OW  HW  HW  EP  OW  
HW  HW  EP  OW  HW  HW  EP  OW  HW  HW  EP  OW  HW  HW  EP  OW  HW  HW  EP  OW  
HW  HW  EP  OW  HW  HW  EP  OW  HW  HW  EP  OW  HW  HW  EP  OW  HW  HW  EP  OW  
HW  HW  EP  OW  HW  HW  EP  OW  HW  HW  EP  OW  HW  HW  EP  OW  HW  HW  EP  OW  
HW  HW  EP  OW  HW  HW  EP  OW  HW  HW  EP  OW  HW  HW  EP  OW  HW  HW  EP  OW  
HW  HW  EP  OW  HW  HW  EP  OW  HW  HW  EP  OW  HW  HW  EP  OW  HW  HW  EP  OW  
HW  HW  EP  OW  HW  HW  EP  OW  HW  HW  EP  OW  HW  HW  EP  OW  HW  HW  EP  OW  
HW  HW  EP  OW  HW  HW  EP  OW  HW  HW  EP  OW  HW  HW  EP  OW  HW  HW  EP  OW  
HW  HW  EP  OW  HW  HW  EP  OW  HW  HW  EP  OW  HW  HW  EP  OW  HW  HW  EP  OW  
HW  HW  EP  OW  HW  HW  EP  OW  HW  HW  EP  OW  HW  HW  EP  OW  HW  HW  EP  OW  
HW  HW  EP  OW  HW  HW  EP  OW  HW  HW  EP  OW  HW  HW  EP  OW  HW  HW  EP  OW  
HW  HW  EP  OW  HW  HW  EP  OW  HW  HW  EP  OW  HW  HW  EP  OW  HW  HW  EP  OW  
HW  HW  EP  OW  HW  HW  EP  OW  HW  HW  EP  OW  HW  HW  EP  OW  HW  HW  EP  OW  
HW  HW  EP  OW  HW  HW  EP  OW  HW  HW  EP  OW  HW  HW  EP  OW  HW  HW  EP  OW  
HW  HW  EP  OW  HW  HW  EP  OW  HW  HW  EP  OW  HW  HW  EP  OW  HW  HW  EP  OW  
HW  HW  EP  OW  HW  HW  EP  OW  HW  HW  EP  OW  HW  HW  EP  OW  HW  HW  EP  OW  
HW  HW  EP  OW  HW  HW  EP  OW  HW  HW  EP  OW  HW  HW  EP  OW  HW  HW  EP  OW  
HW  HW  EP  OW  HW  HW  EP  OW  HW  HW  EP  OW  HW  HW  EP  OW  HW  HW  EP  OW  
HW  HW  EP  OW  HW  HW  EP  OW  HW  HW  EP  OW  HW  HW  EP  OW  HW  HW  EP  OW  
HW  HW  EP  OW  HW  HW  EP  OW  HW  HW  EP  OW  HW  HW  EP  OW  HW  HW  EP  OW  
HW  HW  EP  OW  HW  HW  EP  OW  HW  HW  EP  OW  HW  HW  EP  OW  HW  HW  EP  OW  
HW  HW  EP  OW  HW  HW  EP  OW  HW  HW  EP  OW  HW  HW  EP  OW  HW  HW  EP  OW  
HW  HW  EP  OW  HW  HW  EP  OW  HW  HW  EP  OW  HW  HW  EP  OW  HW  HW  EP  OW  
HW  HW  EP  OW  HW  HW  EP  OW  HW  HW  EP  OW  HW  HW  EP  OW  HW  HW  EP  OW  
HW  HW  EP  OW  HW  HW  EP  OW  HW  HW  EP  OW  HW  HW  EP  OW  HW  HW  EP  OW  
HW  HW  EP  OW  HW  HW  EP  OW  HW  HW  EP  OW  HW  HW  EP  OW  HW  HW  EP  OW  
HW  HW  EP  OW  HW  HW  EP  OW  HW  HW  EP  OW  HW  HW  EP  OW  HW  HW  EP  OW  
HW  HW  EP  OW  HW  HW  EP  OW  HW  HW  EP  OW  HW  HW  EP  OW  HW  HW  EP  OW  
HW  HW  EP  OW  HW  HW  EP  OW  HW  HW  EP  OW  HW  HW  EP  OW  HW  HW  EP  OW  
HW  HW  EP  OW  HW  HW  EP  OW  HW  HW  EP  OW  HW  HW  EP  OW  HW  HW  EP  OW  
HW  HW  EP  OW  HW  HW  EP  OW  HW  HW  EP  OW  HW  HW  EP  OW  HW  HW  EP  OW  
HW  HW  EP  OW  HW  HW  EP  OW  HW  HW  EP  OW  HW  HW  EP  OW  HW  HW  EP  OW  
HW  HW  EP  OW  HW  HW  EP  OW  HW  HW  EP  OW  HW  HW  EP  OW  HW  HW  EP  OW  
HW  HW  EP  OW  HW  HW  EP  OW  HW  HW  EP  OW  HW  HW  EP  OW  HW  HW  EP  OW  
HW  HW  EP  OW  HW  HW  EP  OW  HW  HW  EP  OW  HW  HW  EP  OW  HW  HW  EP  OW  
HW  HW  EP  OW  HW  HW  EP  OW  HW  HW  EP  OW  HW  HW  EP  OW  HW  HW  EP  OW  
HW  HW  EP  OW  HW  HW  EP  OW  HW  HW  EP  OW  HW  HW  EP  OW  HW  HW  EP  OW  
HW  HW  EP  OW  HW  HW  EP  OW  HW  HW  EP  OW  HW  HW  EP  OW  HW  HW  EP  OW  
HW  HW  EP  OW  HW  HW  EP  OW  HW  HW  EP  OW  HW  HW  EP  OW  HW  HW  EP  OW  
HW  HW  EP  OW  HW  HW  EP  OW  HW  HW  EP  OW  HW  HW  EP  OW  HW  HW  EP  OW  
HW  HW  EP  OW  HW  HW  EP  OW  HW  HW  EP  OW  HW  HW  EP  OW  HW  HW  EP  OW  
HW  HW  EP  OW  HW  HW  EP  OW  HW  HW  EP  OW  HW  HW  EP  OW  HW  HW  EP  OW  
HW  HW  EP  OW  HW  HW  EP  OW  HW  HW  EP  OW  HW  HW  EP  OW  HW  HW  EP  OW  
HW  HW  EP  OW  HW  HW  EP  OW  HW  HW  EP  OW  HW  HW  EP  OW  HW  HW  EP  OW  
HW  HW  EP  OW  HW  HW  EP  OW  HW  HW  EP  OW  HW  HW  EP  OW  HW  HW  EP  OW  
HW  HW  EP  OW  HW  HW  EP  OW  HW  HW  EP  OW  HW  HW  EP  OW  HW  HW  EP  OW  
HW  HW  EP  OW  HW  HW  EP  OW  HW  HW  EP  OW  HW  HW  EP  OW  HW  HW  EP  OW  
HW  HW  EP  OW  HW  HW  EP  OW  HW  HW  EP  OW  HW  HW  EP  OW  HW  HW  EP  OW  
HW  HW  EP  OW  HW  HW  EP  OW  HW  HW  EP  OW  HW  HW  EP  OW  HW  HW  EP  OW  
HW  HW  EP  OW  HW  HW  EP  OW  HW  HW  EP  OW  HW  HW  EP  OW  HW  HW  EP  OW  
HW  HW  EP  OW  HW  HW  EP  OW  HW  HW  EP  OW  HW  HW  EP  OW  HW  HW  EP  OW  
HW  HW  EP  OW  HW  HW  EP  OW  HW  HW  EP  OW  HW  HW  EP  OW  HW  HW  EP  OW  
HW  HW  EP  OW  HW  HW  EP  OW  HW  HW  EP  OW  HW  HW  EP  OW  HW  HW  EP  OW  
HW  HW  EP  OW  HW  HW  EP  OW  HW  HW  EP  OW  HW  HW  EP  OW  HW  HW  EP  OW  
HW  HW  EP  OW  HW  HW  EP  OW  HW  HW  EP  OW  HW  HW  EP  OW  HW  HW  EP  OW  
HW  HW  EP  OW  HW  HW  EP  OW  HW  HW  EP  OW  HW  HW  EP  OW  HW  HW  EP  OW  
HW  HW  EP  OW  HW  HW  EP  OW  HW  HW  EP  OW  HW  HW  EP  OW  HW  HW  EP  OW  
HW  HW  EP  OW  HW  HW  EP  OW  HW  HW  EP  OW  HW  HW  EP  OW  HW  HW  EP  OW  
HW  HW  EP  OW  HW  HW  EP  OW  HW  HW  EP  OW  HW  HW  EP  OW  HW  HW  EP  OW  
HW  HW  EP  OW  HW  HW  EP  OW  HW  HW  EP  OW  HW  HW  EP  OW  HW  HW  EP  OW  
HW  HW  EP  OW  HW  HW  EP  OW  HW  HW  EP  OW  HW  HW  EP  OW  HW  HW  EP  OW  
HW  HW  EP  OW  HW  HW  EP  OW  HW  HW  EP  OW  HW  HW  EP  OW  HW  HW  EP  OW  
HW  HW  EP  OW  HW  HW  EP  OW  HW  HW  EP  OW  HW  HW  EP  OW  HW  HW  EP  OW  
HW  HW  EP  OW  HW  HW  EP  OW  HW  HW  EP  OW  HW  HW  EP  OW  HW  HW  EP  OW  
HW  HW  EP  OW  HW  HW  EP  OW  HW  HW  EP  OW  HW  HW  EP  OW  HW  HW  EP  OW  
HW  HW  EP  OW  HW  HW  EP  OW  HW  HW  EP  OW  HW  HW  EP  OW  HW  HW  EP  OW  
HW  HW  EP  OW  HW  HW  EP  OW  HW  HW  EP  OW  HW  HW  EP  OW  HW  HW  EP  OW  
HW  HW  EP  OW  HW  HW  EP  OW  HW  HW  EP  OW  HW  HW  EP  OW  HW  HW  EP  OW  
HW  HW  EP  OW  HW  HW  EP  OW  HW  HW  EP  OW  HW  HW  EP  OW  HW  HW  EP  OW  
HW  HW  EP  OW  HW  HW  EP  OW  HW  HW  EP  OW  HW  HW  EP  OW  HW  HW  EP  OW  
HW  HW  EP  OW  HW  HW  EP  OW  HW  HW  EP  OW  HW  HW  EP  OW  HW  HW  EP  OW  
HW  HW  EP  OW  HW  HW  EP  OW  HW  HW  EP  OW  HW  HW  EP  OW  HW  HW  EP  OW  
HW  HW  EP  OW  HW  HW  EP  OW  HW  HW  EP  OW  HW  HW  EP  OW  HW  HW  EP  OW  
HW  HW  EP  OW  HW  HW  EP  OW  HW  HW  EP  OW  HW  HW  EP  OW  HW  HW  EP  OW  
HW  HW  EP  OW  HW  HW  EP  OW  HW  HW  EP  OW  HW  HW  EP  OW  HW  HW  EP  OW  
HW  HW  EP  OW  HW  HW  EP  OW  HW  HW  EP  OW  HW  HW  EP  OW  HW  HW  EP  OW  
HW  HW  EP  OW  HW  HW  EP  OW  HW  HW  EP  OW  HW  HW  EP  OW  HW  HW  EP  OW  
HW  HW  EP  OW  HW  HW  EP  OW  HW  HW  EP  OW  HW  HW  EP  OW  HW  HW  EP  OW  
HW  HW  EP  OW  HW  HW  EP  OW  HW  HW  EP  OW  HW  HW  EP  OW  HW  HW  EP  OW  
HW  HW  EP  OW  HW  HW  EP  OW  HW  HW  EP  OW  HW  HW  EP  OW  HW  HW  EP  OW  
HW  HW  EP  OW  HW  HW  EP  OW  HW  HW  EP  OW  HW  HW  EP  OW  HW  HW  EP  OW  
HW  HW  EP  OW  HW  HW  EP  OW  HW  HW  EP  OW  HW  HW  EP  OW  HW  HW  EP  OW  
HW  HW  EP  OW  HW  HW  EP  OW  HW  HW  EP  OW  HW  HW  EP  OW  HW  HW  EP  OW  
HW  HW  EP  OW  HW  HW  EP  OW  HW  HW  EP  OW  HW  HW  EP  OW  HW  HW  EP  OW  
HW  HW  EP  OW  HW  HW  EP  OW  HW  HW  EP  OW  HW  HW  EP  OW  HW  HW  EP  OW  
HW  HW  EP  OW  HW  HW  EP  OW  HW  HW  EP  OW  HW  HW  EP  OW  HW  HW  EP  OW  
HW  HW  EP  OW  HW  HW  EP  OW  HW  HW  EP  OW  HW  HW  EP  OW  HW  HW  EP  OW  
HW  HW  EP  OW  HW  HW  EP  OW  HW  HW  EP  OW  HW  HW  EP  OW  HW  HW  EP  OW  
HW  HW  EP  OW  HW  HW  EP  OW  HW  HW  EP  OW  HW  HW  EP  OW  HW  HW  EP  OW  
HW  HW  EP  OW  HW  HW  EP  OW  HW  HW  EP  OW  HW  HW  EP  OW  HW  HW  EP  OW  
HW  HW  EP  OW  HW  HW  EP  OW  HW  HW  EP  OW  HW  HW  EP  OW  HW  HW  EP  OW  
HW  HW  EP  OW  HW  HW  EP  OW  HW  HW  EP  OW  HW  HW  EP  OW  HW  HW  EP  OW  
HW  HW  EP  OW  HW  HW  EP  OW  HW  HW  EP  OW  HW  HW  EP  OW  HW  HW  EP  OW  
HW  HW  EP  OW  HW  HW  EP  OW  HW  HW  EP  OW  HW  HW  EP  OW  HW  HW  EP  OW  
HW  HW  EP  OW  HW  HW  EP  OW  HW  HW  EP  OW  HW  HW  EP  OW  HW  HW  EP  OW  
HW  HW  EP  OW  HW  HW  EP  OW  HW  HW  EP  OW  HW  HW  EP  OW  HW  HW  EP  OW  
HW  HW  EP  OW  HW  HW  EP  OW  HW  HW  EP  OW  HW  HW  EP  OW  HW  HW  EP  OW  
HW  HW  EP  OW  HW  HW  EP  OW  HW  HW  EP  OW  HW  HW  EP  OW  HW  HW  EP  OW  
HW  HW  EP  OW  HW  HW  EP  OW  HW  HW  EP  OW  HW  HW  EP  OW  HW  HW  EP  OW  
HW  HW  EP  OW  HW  HW  EP  OW  HW  HW  EP  OW  HW  HW  EP  OW  HW  HW  EP  OW  
HW  HW  EP  OW  HW  HW  EP  OW  HW  HW  EP  OW  HW  HW  EP  OW  HW  HW  EP  OW  
HW  HW  EP  OW  HW  HW  EP  OW  HW  HW  EP  OW  HW  HW  EP  OW  HW  HW  EP  OW  
HW  HW  EP  OW  HW  HW  EP  OW  HW  HW  EP  OW  HW  HW  EP  OW  HW  HW  EP  OW  
HW  HW  EP  OW  HW  HW  EP  OW  HW  HW  EP  OW  HW  HW  EP  OW  HW  HW  EP  OW  
HW  HW  EP  OW  HW  HW  EP  OW  HW  HW  EP  OW  HW  HW  EP  OW  HW  HW  EP  OW  
HW  HW  EP  OW  HW  HW  EP  OW  HW  HW  EP  OW  HW  HW  EP  OW  HW  HW  EP  OW  
HW  HW  EP  OW  HW  HW  EP  OW  HW  HW  EP  OW  HW  HW  EP  OW  HW  HW  EP  OW  
HW  HW  EP  OW  HW  HW  EP  OW  HW  HW  EP  OW  HW  HW  EP  OW  HW  HW  EP  OW  
HW  HW  EP  OW  HW  HW  EP  OW  HW  HW  EP  OW  HW  HW  EP  OW  HW  HW  EP  OW  
HW  HW  EP  OW  HW  HW  EP  OW  HW  HW  EP  OW  HW  HW  EP  OW  HW  HW  EP  OW  
HW  HW  EP  OW  HW  HW  EP  OW  HW  HW  EP  OW  HW  HW  EP  OW  HW  HW  EP  OW  
HW  HW  EP  OW  HW  HW  EP  OW  HW  HW  EP  OW  HW  HW  EP  OW  HW  HW  EP  OW  
HW  HW  EP  OW  HW  HW  EP  OW  HW  HW  EP  OW  HW  HW  EP  OW  HW  HW  EP  OW  
HW  HW  EP  OW  HW  HW  EP  OW  HW  HW  EP  OW  HW  HW  EP  OW  HW  HW  EP  OW  
HW  HW  EP  OW  HW  HW  EP  OW  HW  HW  EP  OW  HW  HW  EP  OW  HW  HW  EP  OW  
HW  HW  EP  OW  HW  HW  EP  OW  HW  HW  EP  OW  HW  HW  EP  OW  HW  HW  EP  OW  
HW  HW  EP  OW  HW  HW  EP  OW  HW  HW  EP  OW  HW  HW  EP  OW  HW  HW  EP  OW  
HW  HW  EP  OW  HW  HW  EP  OW  HW  HW  EP  OW  HW  HW  EP  OW  HW  HW  EP  OW  
HW  HW  EP  OW  HW  HW  EP  OW  HW  HW  EP  OW  HW  HW  EP  OW  HW  HW  EP  OW  
HW  HW  EP  OW  HW  HW  EP  OW  HW  HW  EP  OW  HW  HW  EP  OW  HW  HW  EP  OW  
HW  HW  EP  OW  HW  HW  EP  OW  HW  HW  EP  OW  HW  HW  EP  OW  HW  HW  EP  OW  
HW  HW  EP  OW  HW  HW  EP  OW  HW  HW  EP  OW  HW  HW  EP  OW  HW  HW  EP  OW  
HW  HW  EP  OW  HW  HW  EP  OW  HW  HW  EP  OW  HW  HW  EP  OW  HW  HW  EP  OW  
HW  HW  EP  OW  HW  HW  EP  OW  HW  HW  EP  OW  HW  HW  EP  OW  HW  HW  EP  OW  
HW  HW  EP  OW  HW  HW  EP  OW  HW  HW  EP  OW  HW  HW  EP  OW  HW  HW  EP  OW  
HW  HW  EP  OW  HW  HW  EP  OW  HW  HW  EP  OW  HW  HW  EP  OW  HW  HW  EP  OW  
HW  HW  EP  OW  HW  HW  EP  OW  HW  HW  EP  OW  HW  HW  EP  OW  HW  HW  EP  OW  
HW  HW  EP  OW  HW  HW  EP  OW  HW  HW  EP  OW  HW  HW  EP  OW  HW  HW  EP  OW  
HW  HW  EP  OW  HW  HW  EP  OW  HW  HW  EP  OW  HW  HW  EP  OW  HW  HW  EP  OW  
HW  HW  EP  OW  HW  HW  EP  OW  HW  HW  EP  OW  HW  HW  EP  OW  HW  HW  EP  OW  
HW  HW  EP  OW  HW  HW  EP  OW  HW  HW  EP  OW  HW  HW  EP  OW  HW  HW  EP  OW  
HW  HW  EP  OW  HW  HW  EP  OW  HW  HW  EP  OW  HW  HW  EP  OW  HW  HW  EP  OW  
HW  HW  EP  OW  HW  HW  EP  OW  HW  HW  EP  OW  HW  HW  EP  OW  HW  HW  EP  OW  
HW  HW  EP  OW  HW  HW  EP  OW  HW  HW  EP  OW  HW  HW  EP  OW  HW  HW  EP  OW  
HW  HW  EP  OW  HW  HW  EP  OW  HW  HW  EP  OW  HW  HW  EP  OW  HW  HW  EP  OW  
HW  HW  EP  OW  HW  HW  EP  OW  HW  HW  EP  OW  HW  HW  EP  OW  HW  HW  EP  OW  
HW  HW  EP  OW  HW  HW  EP  OW  HW  HW  EP  OW  HW  HW  EP  OW  HW  HW  EP  OW  
HW  HW  EP  OW  HW  HW  EP  OW  HW  HW  EP  OW  HW  HW  EP  OW  HW  HW  EP  OW  
HW  HW  EP  OW  HW  HW  EP  OW  HW  HW  EP  OW  HW  HW  EP  OW  HW  HW  EP  OW  
HW  HW  EP  OW  HW  HW  EP  OW  HW  HW  EP  OW  HW  HW  EP  OW  HW  HW  EP  OW  
HW  HW  EP  OW  HW  HW  EP  OW  HW  HW  EP  OW  HW  HW  EP  OW  HW  HW  EP  OW  
HW  HW  EP  OW  HW  HW  EP  OW  HW  HW  EP  OW  HW  HW  EP  OW  HW  HW  EP  OW  
HW  HW  EP  OW  HW  HW  EP  OW  HW  HW  EP  OW  HW  HW  EP  OW  HW  HW  EP  OW  
HW  HW  EP  OW  HW  HW  EP  OW  HW  HW  EP  OW  HW  HW  EP  OW  HW  HW  EP  OW  
HW  HW  EP  OW  HW  HW  EP  OW  HW  HW  EP  OW  HW  HW  EP  OW  HW  HW  EP  OW  
HW  HW  EP  OW  HW  HW  EP  OW  HW  HW  EP  OW  HW  HW  EP  OW  HW  HW  EP  OW  
HW  HW  EP  OW  HW  HW  EP  OW  HW  HW  EP  OW  HW  HW  EP  OW  HW  HW  EP  OW  
HW  HW  EP  OW  HW  HW  EP  OW  HW  HW  EP  OW  HW  HW  EP  OW  HW  HW  EP  OW  
HW  HW  EP  OW  HW  HW  EP  OW  HW  HW  EP  OW  HW  HW  EP  OW  HW  HW  EP  OW  
HW  HW  EP  OW  HW  HW  EP  OW  HW  HW  EP  OW  HW  HW  EP  OW  HW  HW  EP  OW  
HW  HW  EP  OW  HW  HW  EP  OW  HW  HW  EP  OW  HW  HW  EP  OW  HW  HW  EP  OW  
HW  HW  EP  OW  HW  HW  EP  OW  HW  HW  EP  OW  HW  HW  EP  OW  HW  HW  EP  OW  
HW  HW  EP  OW  HW  HW  EP  OW  HW  HW  EP  OW  HW  HW  EP  OW  HW  HW  EP  OW  
HW  HW  EP  OW  HW  HW  EP  OW  HW  HW  EP  OW  HW  HW  EP  OW  HW  HW  EP  OW  
HW  HW  EP  OW  HW  HW  EP  OW  HW  HW  EP  OW  HW  HW  EP  OW  HW  HW  EP  OW  
HW  HW  EP  OW  HW  HW  EP  OW  HW  HW  EP  OW  HW  HW  EP  OW  HW  HW  EP  OW  
HW  HW  EP  OW  HW  HW  EP  OW  HW  HW  EP  OW  HW  HW  EP  OW  HW  HW  EP  OW  
HW  HW  EP  OW  HW  HW  EP  OW  HW  HW  EP  OW  HW  HW  EP  OW  HW  HW  EP  OW  
HW  HW  EP  OW  HW  HW  EP  OW  HW  HW  EP  OW  HW  HW  EP  OW  HW  HW  EP  OW  
HW  HW  EP  OW  HW  HW  EP  OW  HW  HW  EP  OW  HW  HW  EP  OW  HW  HW  EP  OW  
HW  HW  EP  OW  HW  HW  EP  OW  HW  HW  EP  OW  HW  HW  EP  OW  HW  HW  EP  OW  
HW  HW  EP  OW  HW  HW  EP  OW  HW  HW  EP  OW  HW  HW  EP  OW  HW  HW  EP  OW  
HW  HW  EP  OW  HW  HW  EP  OW  HW  HW  EP  OW  HW  HW  EP  OW  HW  HW  EP  OW  
HW  HW  EP  OW  HW  HW  EP  OW  HW  HW  EP  OW  HW  HW  EP  OW  HW  HW  EP  OW  
HW  HW  EP  OW  HW  HW  EP  OW  HW  HW  EP  OW  HW  HW  EP  OW  HW  HW  EP  OW  
HW  HW  EP  OW  HW  HW  EP  OW  HW  HW  EP  OW  HW  HW  EP  OW  HW  HW  EP  OW  
HW  HW  EP  OW  HW  HW  EP  OW  HW  HW  EP  OW  HW  HW  EP  OW  HW  HW  EP  OW  
HW  HW  EP  OW  HW  HW  EP  OW  HW  HW  EP  OW  HW  HW  EP  OW  HW  HW  EP  OW  
HW  HW  EP  OW  HW  HW  EP  OW  HW  HW  EP  OW  HW  HW  EP  OW  HW  HW  EP  OW  
HW  HW  EP  OW  HW  HW  EP  OW  HW  HW  EP  OW  HW  HW  EP  OW  HW  HW  EP  OW  
HW  HW  EP  OW  HW  HW  EP  OW  HW  HW  EP  OW  HW  HW  EP  OW  HW  HW  EP  OW  
HW  HW  EP  OW  HW  HW  EP  OW  HW  HW  EP  OW  HW  HW  EP  OW  HW  HW  EP  OW  
HW  HW  EP  OW  HW  HW  EP  OW  HW  HW  EP  OW  HW  HW  EP  OW  HW  HW  EP  OW  
HW  HW  EP  OW  HW  HW  EP  OW  HW  HW  EP  OW  HW  HW  EP  OW  HW  HW  EP  OW  
HW  HW  EP  OW  HW  HW  EP  OW  HW  HW  EP  OW  HW  HW  EP  OW  HW  HW  EP  OW  
HW  HW  EP  OW  HW  HW  EP  OW  HW  HW  EP  OW  HW  HW  EP  OW  HW  HW  EP  OW  
HW  HW  EP  OW  HW  HW  EP  OW  HW  HW  EP  OW  HW  HW  EP  OW  HW  HW  EP  OW  
HW  HW  EP  OW  HW  HW  EP  OW  HW  HW  EP  OW  HW  HW  EP  OW  HW  HW  EP  OW  
HW  HW  EP  OW  HW  HW  EP  OW  HW  HW  EP  OW  HW  HW  EP  OW  HW  HW  EP  OW  
HW  HW  EP  OW  HW  HW  EP  OW  HW  HW  EP  OW  HW  HW  EP  OW  HW  HW  EP  OW  
HW  HW  EP  OW  HW  HW  EP  OW  HW  HW  EP  OW  HW  HW  EP  OW  HW  HW  EP  OW  
HW  HW  EP  OW  HW  HW  EP  OW  HW  HW  EP  OW  HW  HW  EP  OW  HW  HW  EP  OW  
HW  HW  EP  OW  HW  HW  EP  OW  HW  HW  EP  OW  HW  HW  EP  OW  HW  HW  EP  OW  
HW  HW  EP  OW  HW  HW  EP  OW  HW  HW  EP  OW  HW  HW  EP  OW  HW  HW  EP  OW  
HW  HW  EP  OW  HW  HW  EP  OW  HW  HW  EP  OW  HW  HW  EP  OW  HW  HW  EP  OW  
HW  HW  EP  OW  HW  HW  EP  OW  HW  HW  EP  OW  HW  HW  EP  OW  HW  HW  EP  OW  
HW  HW  EP  OW  HW  HW  EP  OW  HW  HW  EP  OW  HW  HW  EP  OW  HW  HW  EP  OW  
HW  HW  EP  OW  HW  HW  EP  OW  HW  HW  EP  OW  HW  HW  EP  OW  HW  HW  EP  OW  
HW  HW  EP  OW  HW  HW  EP  OW  HW  HW  EP  OW  HW  HW  EP  OW  HW  HW  EP  OW  
HW  HW  EP  OW  HW  HW  EP  OW  HW  HW  EP  OW  HW  HW  EP  OW  HW  HW  EP  OW  
HW  HW  EP  OW  HW  HW  EP  OW  HW  HW  EP  OW  HW  HW  EP  OW  HW  HW  EP  OW  
HW  HW  EP  OW  HW  HW  EP  OW  HW  HW  EP  OW  HW  HW  EP  OW  HW  HW  EP  OW  
HW  HW  EP  OW  HW  HW  EP  OW  HW  HW  EP  OW  HW  HW  EP  OW  HW  HW  EP  OW  
HW  HW  EP  OW  HW  HW  EP  OW  HW  HW  EP  OW  HW  HW  EP  OW  HW  HW  EP  OW  
HW  HW  EP  OW  HW  HW  EP  OW  HW  HW  EP  OW  HW  HW  EP  OW  HW  HW  EP  OW  
HW  HW  EP  OW  HW  HW  EP  OW  HW  HW  EP  OW  HW  HW  EP  OW  HW  HW  EP  OW  
HW  HW  EP  OW  HW  HW  EP  OW  HW  HW  EP  OW  HW  HW  EP  OW  HW  HW  EP  OW  
HW  HW  EP  OW  HW  HW  EP  OW  HW  HW  EP  OW  HW  HW  EP  OW  HW  HW  EP  OW  
HW  HW  EP  OW  HW  HW  EP  OW  HW  HW  EP  OW  HW  HW  EP  OW  HW  HW  EP  OW  
HW  HW  EP  OW  HW  HW  EP  OW  HW  HW  EP  OW  HW  HW  EP  OW  HW  HW  EP  OW  
HW  HW  EP  OW  HW  HW  EP  OW  HW  HW  EP  OW  HW  HW  EP  OW  HW  HW  EP  OW  
HW  HW  EP  OW  HW  HW  EP  OW  HW  HW  EP  OW  HW  HW  EP  OW  HW  HW  EP  OW  
HW  HW  EP  OW  HW  HW  EP  OW  HW  HW  EP  OW  HW  HW  EP  OW  HW  HW  EP  OW  
HW  HW  EP  OW  HW  HW  EP  OW  HW  HW  EP  OW  HW  HW  EP  OW  HW  HW  EP  OW  
HW  HW  EP  OW  HW  HW  EP  OW  HW  HW  EP  OW  HW  HW  EP  OW  HW  HW  EP  OW  
HW  HW  EP  OW  HW  HW  EP  OW  HW  HW  EP  OW  HW  HW  EP  OW  HW  HW  EP  OW  
HW  HW  EP  OW  HW  HW  EP  OW  HW  HW  EP  OW  HW  HW  EP  OW  HW  HW  EP  OW  
HW  HW  EP  OW  HW  HW  EP  OW  HW  HW  EP  OW  HW  HW  EP  OW  HW  HW  EP  OW  
HW  HW  EP  OW  HW  HW  EP  OW  HW  HW  EP  OW  HW  HW  EP  OW  HW  HW  EP  OW  
HW  HW  EP  OW  HW  HW  EP  OW  HW  HW  EP  OW  HW  HW  EP  OW  HW  HW  EP  OW  
HW  HW  EP  OW  HW  HW  EP  OW  HW  HW  EP  OW  HW  HW  EP  OW  HW  HW  EP  OW  
HW  HW  EP  OW  HW  HW  EP  OW  HW  HW  EP  OW  HW  HW  EP  OW  HW  HW  EP  OW  
HW  HW  EP  OW  HW  HW  EP  OW  HW  HW  EP  OW  HW  HW  EP  OW  HW  HW  EP  OW  
HW  HW  EP  OW  HW  HW  EP  OW  HW  HW  EP  OW  HW  HW  EP  OW  HW  HW  EP  OW  
HW  HW  EP  OW  HW  HW  EP  OW  HW  HW  EP  OW  HW  HW  EP  OW  HW  HW  EP  OW  
HW  HW  EP  OW  HW  HW  EP  OW  HW  HW  EP  OW  HW  HW  EP  OW  HW  HW  EP  OW  
HW  HW  EP  OW  HW  HW  EP  OW  HW  HW  EP  OW  HW  HW  EP  OW  HW  HW  EP  OW  
HW  HW  EP  OW  HW  HW  EP  OW  HW  HW  EP  OW  HW  HW  EP  OW  HW  HW  EP  OW  
HW  HW  EP  OW  HW  HW  EP  OW  HW  HW  EP  OW  HW  HW  EP  OW  HW  HW  EP  OW  
HW  HW  EP  OW  HW  HW  EP  OW  HW  HW  EP  OW  HW  HW  EP  OW  HW  HW  EP  OW  
HW  HW  EP  OW  HW  HW  EP  OW  HW  HW  EP  OW  HW  HW  EP  OW  HW  HW  EP  OW  
HW  HW  EP  OW  HW  HW  EP  OW  HW  HW  EP  OW  HW  HW  EP  OW  HW  HW  EP  OW  
HW  HW  EP  OW  HW  HW  EP  OW  HW  HW  EP  OW  HW  HW  EP  OW  HW  HW  EP  OW  
HW  HW  EP  OW  HW  HW  EP  OW  HW  HW  EP  OW  HW  HW  EP  OW  HW  HW  EP  OW  
HW  HW  EP  OW  HW  HW  EP  OW  HW  HW  EP  OW  HW  HW  EP  OW  HW  HW  EP  OW  
HW  HW  EP  OW  HW  HW  EP  OW  HW  HW  EP  OW  HW  HW  EP  OW  HW  HW  EP  OW  
HW  HW  EP  OW  HW  HW  EP  OW  HW  HW  EP  OW  HW  HW  EP  OW  HW  HW  EP  OW  
HW  HW  EP  OW  HW  HW  EP  OW  HW  HW  EP  OW  HW  HW  EP  OW  HW  HW  EP  OW  
HW  HW  EP  OW  HW  HW  EP  OW  HW  HW  EP  OW  HW  HW  EP  OW  HW  HW  EP  OW  
HW  HW  EP  OW  HW  HW  EP  OW  HW  HW  EP  OW  HW  HW  EP  OW  HW  HW  EP  OW  
HW  HW  EP  OW  HW  HW  EP  OW  HW  HW  EP  OW  HW  HW  EP  OW  HW  HW  EP  OW  
HW  HW  EP  OW  HW  HW  EP  OW  HW  HW  EP  OW  HW  HW  EP  OW  HW  HW  EP  OW  
HW  HW  EP  OW  HW  HW  EP  OW  HW  HW  EP  OW  HW  HW  EP  OW  HW  HW  EP  OW  
HW  HW  EP  OW  HW  HW  EP  OW  HW  HW  EP  OW  HW  HW  EP  OW  HW  HW  EP  OW  
HW  HW  EP  OW  HW  HW  EP  OW  HW  HW  EP  OW  HW  HW  EP  OW  HW  HW  EP  OW  
HW  HW  EP  OW  HW  HW  EP  OW  HW  HW  EP  OW  HW  HW  EP  OW  HW  HW  EP  OW  
HW  HW  EP  OW  HW  HW  EP  OW  HW  HW  EP  OW  HW  HW  EP  OW  HW  HW  EP  OW  
HW  HW  EP  OW  HW  HW  EP  OW  HW  HW  EP  OW  HW  HW  EP  OW  HW  HW  EP  OW  
HW  HW  EP  OW  HW  HW  EP  OW  HW  HW  EP  OW  HW  HW  EP  OW  HW  HW  EP  OW  
HW  HW  EP  OW  HW  HW  EP  OW  HW  HW  EP  OW  HW  HW  EP  OW  HW  HW  EP  OW  
HW  HW  EP  OW  HW  HW  EP  OW  HW  HW  EP  OW  HW  HW  EP  OW  HW  HW  EP  OW  
HW  HW  EP  OW  HW  HW  EP  OW  HW  HW  EP  OW  HW  HW  EP  OW  HW  HW  EP  OW  
HW  HW  EP  OW  HW  HW  EP  OW  HW  HW  EP  OW  HW  HW  EP  OW  HW  HW  EP  OW  
HW  HW  EP  OW  HW  HW  EP  OW  HW  HW  EP  OW  HW  HW  EP  OW  HW  HW  EP  OW  
HW  HW  EP  OW  HW  HW  EP  OW  HW  HW  EP  OW  HW  HW  EP  OW  HW  HW  EP  OW  
HW  HW  EP  OW  HW  HW  EP  OW  HW  HW  EP  OW  HW  HW  EP  OW  HW  HW  EP  OW  
HW  HW  EP  OW  HW  HW  EP  OW  HW  HW  EP  OW  HW  HW  EP  OW  HW  HW  EP  OW  
HW  HW  EP  OW  HW  HW  EP  OW  HW  HW  EP  OW  HW  HW  EP  OW  HW  HW  EP  OW  
HW  HW  EP  OW  HW  HW  EP  OW  HW  HW  EP  OW  HW  HW  EP  OW  HW  HW  EP  OW  
HW  HW  EP  OW  HW  HW  EP  OW  HW  HW  EP  OW  HW  HW  EP  OW  HW  HW  EP  OW  
HW  HW  EP  OW  HW  HW  EP  OW  HW  HW  EP  OW  HW  HW  EP  OW  HW  HW  EP  OW  
HW  HW  EP  OW  HW  HW  EP  OW  HW  HW  EP  OW  HW  HW  EP  OW  HW  HW  EP  OW  
HW  HW  EP  OW  HW  HW  EP  OW  HW  HW  EP  OW  HW  HW  EP  OW  HW  HW  EP  OW  
HW  HW  EP  OW  HW  HW  EP  OW  HW  HW  EP  OW  HW  HW  EP  OW  HW  HW  EP  OW  
HW  HW  EP  OW  HW  HW  EP  OW  HW  HW  EP  OW  HW  HW  EP  OW  HW  HW  EP  OW  
HW  HW  EP  OW  HW  HW  EP  OW  HW  HW  EP  OW  HW  HW  EP  OW  HW  HW  EP  OW  
HW  HW  EP  OW  HW  HW  EP  OW  HW  HW  EP  OW  HW  HW  EP  OW  HW  HW  EP  OW  
HW  HW  EP  OW  HW  HW  EP  OW  HW  HW  EP  OW  HW  HW  EP  OW  HW  HW  EP  OW  
HW  HW  EP  OW  HW  HW  EP  OW  HW  HW  EP  OW  HW  HW  EP  OW  HW  HW  EP  OW  
HW  HW  EP  OW  HW  HW  EP  OW  HW  HW  EP  OW  HW  HW  EP  OW  HW  HW  EP  OW  
HW  HW  EP  OW  HW  HW  EP  OW  HW  HW  EP  OW  HW  HW  EP  OW  HW  HW  EP  OW  
HW  HW  EP  OW  HW  HW  EP  OW  HW  HW  EP  OW  HW  HW  EP  OW  HW  HW  EP  OW  
HW  HW  EP  OW  HW  HW  EP  OW  HW  HW  EP  OW  HW  HW  EP  OW  HW  HW  EP  OW  
HW  HW  EP  OW  HW  HW  EP  OW  HW  HW  EP  OW  HW  HW  EP  OW  HW  HW  EP  OW  
HW  HW  EP  OW  HW  HW  EP  OW  HW  HW  EP  OW  HW  HW  EP  OW  HW  HW  EP  OW  
HW  HW  EP  OW  HW  HW  EP  OW  HW  HW  EP  OW  HW  HW  EP  OW  HW  HW  EP  OW  
HW  HW  EP  OW  HW  HW  EP  OW  HW  HW  EP  OW  HW  HW  EP  OW  HW  HW  EP  OW  
HW  HW  EP  OW  HW  HW  EP  OW  HW  HW  EP  OW  HW  HW  EP  OW  HW  HW  EP  OW  
HW  HW  EP  OW  HW  HW  EP  OW  HW  HW  EP  OW  HW  HW  EP  OW  HW  HW  EP  OW  
HW  HW  EP  OW  HW  HW  EP  OW  HW  HW  EP  OW  HW  HW  EP  OW  HW  HW  EP  OW  
HW  HW  EP  OW  HW  HW  EP  OW  HW  HW  EP  OW  HW  HW  EP  OW  HW  HW  EP  OW  
HW  HW  EP  OW  HW  HW  EP  OW  HW  HW  EP  OW  HW  HW  EP  OW  HW  HW  EP  OW  
HW  HW  EP  OW  HW  HW  EP  OW  HW  HW  EP  OW  HW  HW  EP  OW  HW  HW  EP  OW  
HW  HW  EP  OW  HW  HW  EP  OW  HW  HW  EP  OW  HW  HW  EP  OW  HW  HW  EP  OW  
HW  HW  EP  OW  HW  HW  EP  OW  HW  HW  EP  OW  HW  HW  EP  OW  HW  HW  EP  OW  
HW  HW  EP  OW  HW  HW  EP  OW  HW  HW  EP  OW  HW  HW  EP  OW  HW  HW  EP  OW  
HW  HW  EP  OW  HW  HW  EP  OW  HW  HW  EP  OW  HW  HW  EP  OW  HW  HW  EP  OW  
HW  HW  EP  OW  HW  HW  EP  OW  HW  HW  EP  OW  HW  HW  EP  OW  HW  HW  EP  OW  
HW  HW  EP  OW  HW  HW  EP  OW  HW  HW  EP  OW  HW  HW  EP  OW  HW  HW  EP  OW  
HW  HW  EP  OW  HW  HW  EP  OW  HW  HW  EP  OW  HW  HW  EP  OW  HW  HW  EP  OW  
HW  HW  EP  OW  HW  HW  EP  OW  HW  HW  EP  OW  HW  HW  EP  OW  HW  HW  EP  OW  
HW  HW  EP  OW  HW  HW  EP  OW  HW  HW  EP  OW  HW  HW  EP  OW  HW  HW  EP  OW  
HW  HW  EP  OW  HW  HW  EP  OW  HW  HW  EP  OW  HW  HW  EP  OW  HW  HW  EP  OW  
HW  HW  EP  OW  HW  HW  EP  OW  HW  HW  EP  OW  HW  HW  EP  OW  HW  HW  EP  OW  
HW  HW  EP  OW  HW  HW  EP  OW  HW  HW  EP  OW  HW  HW  EP  OW  HW  HW  EP  OW  
HW  HW  EP  OW  HW  HW  EP  OW  HW  HW  EP  OW  HW  HW  EP  OW  HW  HW  EP  OW  
HW  HW  EP  OW  HW  HW  EP  OW  HW  HW  EP  OW  HW  HW  EP  OW  HW  HW  EP  OW  
HW  HW  EP  OW  HW  HW  EP  OW  HW  HW  EP  OW  HW  HW  EP  OW  HW  HW  EP  OW  
HW  HW  EP  OW  HW  HW  EP  OW  HW  HW  EP  OW  HW  HW  EP  OW  HW  HW  EP  OW  
HW  HW  EP  OW  HW  HW  EP  OW  HW  HW  EP  OW  HW  HW  EP  OW  HW  HW  EP  OW  
HW  HW  EP  OW  HW  HW  EP  OW  HW  HW  EP  OW  HW  HW  EP  OW  HW  HW  EP  OW  
HW  HW  EP  OW  HW  HW  EP  OW  HW  HW  EP  OW  HW  HW  EP  OW  HW  HW  EP  OW  
HW  HW  EP  OW  HW  HW  EP  OW  HW  HW  EP  OW  HW  HW  EP  OW  HW  HW  EP  OW  
HW  HW  EP  OW  HW  HW  EP  OW  HW  HW  EP  OW  HW  HW  EP  OW  HW  HW  EP  OW  
HW  HW  EP  OW  HW  HW  EP  OW  HW  HW  EP  OW  HW  HW  EP  OW  HW  HW  EP  OW  
HW  HW  EP  OW  HW  HW  EP  OW  HW  HW  EP  OW  HW  HW  EP  OW  HW  HW  EP  OW  
HW  HW  EP  OW  HW  HW  EP  OW  HW  HW  EP  OW  HW  HW  EP  OW  HW  HW  EP  OW  
HW  HW  EP  OW  HW  HW  EP  OW  HW  HW  EP  OW  HW  HW  EP  OW  HW  HW  EP  OW  
HW  HW  EP  OW  HW  HW  EP  OW  HW  HW  EP  OW  HW  HW  EP  OW  HW  HW  EP  OW  
HW  HW  EP  OW  HW  HW  EP  OW  HW  HW  EP  OW  HW  HW  EP  OW  HW  HW  EP  OW  
HW  HW  EP  OW  HW  HW  EP  OW  HW  HW  EP  OW  HW  HW  EP  OW  HW  HW  EP  OW  
HW  HW  EP  OW  HW  HW  EP  OW  HW  HW  EP  OW  HW  HW  EP  OW  HW  HW  EP  OW  
HW  HW  EP  OW  HW  HW  EP  OW  HW  HW  EP  OW  HW  HW  EP  OW  HW  HW  EP  OW  
HW  HW  EP  OW  HW  HW  EP  OW  HW  HW  EP  OW  HW  HW  EP  OW  HW  HW  EP  OW  
HW  HW  EP  OW  HW  HW  EP  OW  HW  HW  EP  OW  HW  HW  EP  OW  HW  HW  EP  OW  
HW  HW  EP  OW  HW  HW  EP  OW  HW  HW  EP  OW  HW  HW  EP  OW  HW  HW  EP  OW  
HW  HW  EP  OW  HW  HW  EP  OW  HW  HW  EP  OW  HW  HW  EP  OW  HW  HW  EP  OW  
HW  HW  EP  OW  HW  HW  EP  OW  HW  HW  EP  OW  HW  HW  EP  OW  HW  HW  EP  OW  
HW  HW  EP  OW  HW  HW  EP  OW  HW  HW  EP  OW  HW  HW  EP  OW  HW  HW  EP  OW  
HW  HW  EP  OW  HW  HW  EP  OW  HW  HW  EP  OW  HW  HW  EP  OW  HW  HW  EP  OW  
HW  HW  EP  OW  HW  HW  EP  OW  HW  HW  EP  OW  HW  HW  EP  OW  HW  HW  EP  OW  
HW  HW  EP  OW  HW  HW  EP  OW  HW  HW  EP  OW  HW  HW  EP  OW  HW  HW  EP  OW  
HW  HW  EP  OW  HW  HW  EP  OW  HW  HW  EP  OW  HW  HW  EP  OW  HW  HW  EP  OW  
HW  HW  EP  OW  HW  HW  EP  OW  HW  HW  EP  OW  HW  HW  EP  OW  HW  HW  EP  OW  
HW  HW  EP  OW  HW  HW  EP  OW  HW  HW  EP  OW  HW  HW  EP  OW  HW  HW  EP  OW  
HW  HW  EP  OW  HW  HW  EP  OW  HW  HW  EP  OW  HW  HW  EP  OW  HW  HW  EP  OW  
HW  HW  EP  OW  HW  HW  EP  OW  HW  HW  EP  OW  HW  HW  EP  OW  HW  HW  EP  OW  
HW  HW  EP  OW  HW  HW  EP  OW  HW  HW  EP  OW  HW  HW  EP  OW  HW  HW  EP  OW  
HW  HW  EP  OW  HW  HW  EP  OW  HW  HW  EP  OW  HW  HW  EP  OW  HW  HW  EP  OW  
HW  HW  EP  OW  HW  HW  EP  OW  HW  HW  EP  OW  HW  HW  EP  OW  HW  HW  EP  OW  
HW  HW  EP  OW  HW  HW  EP  OW  HW  HW  EP  OW  HW  HW  EP  OW  HW  HW  EP  OW  
HW  HW  EP  OW  HW  HW  EP  OW  HW  HW  EP  OW  HW  HW  EP  OW  HW  HW  EP  OW  
HW  HW  EP  OW  HW  HW  EP  OW  HW  HW  EP  OW  HW  HW  EP  OW  HW  HW  EP  OW  
HW  HW  EP  OW  HW  HW  EP  OW  HW  HW  EP  OW  HW  HW  EP  OW  HW  HW  EP  OW  
HW  HW  EP  OW  HW  HW  EP  OW  HW  HW  EP  OW  HW  HW  EP  OW  HW  HW  EP  OW  
HW  HW  EP  OW  HW  HW  EP  OW  HW  HW  EP  OW  HW  HW  EP  OW  HW  HW  EP  OW  
HW  HW  EP  OW  HW  HW  EP  OW  HW  HW  EP  OW  HW  HW  EP  OW  HW  HW  EP  OW  
HW  HW  EP  OW  HW  HW  EP  OW  HW  HW  EP  OW  HW  HW  EP  OW  HW  HW  EP  OW  
HW  HW  EP  OW  HW  HW  EP  OW  HW  HW  EP  OW  HW  HW  EP  OW  HW  HW  EP  OW  
HW  HW  EP  OW  HW  HW  EP  OW  HW  HW  EP  OW  HW  HW  EP  OW  HW  HW  EP  OW  
HW  HW  EP  OW  HW  HW  EP  OW  HW  HW  EP  OW  HW  HW  EP  OW  HW  HW  EP  OW  
HW  HW  EP  OW  HW  HW  EP  OW  HW  HW  EP  OW  HW  HW  EP  OW  HW  HW  EP  OW  
HW  HW  EP  OW  HW  HW  EP  OW  HW  HW  EP  OW  HW  HW  EP  OW  HW  HW  EP  OW  
HW  HW  EP  OW  HW  HW  EP  OW  HW  HW  EP  OW  HW  HW  EP  OW  HW  HW  EP  OW  
HW  HW  EP  OW  HW  HW  EP  OW  HW  HW  EP  OW  HW  HW  EP  OW  HW  HW  EP  OW  
HW  HW  EP  OW  HW  HW  EP  OW  HW  HW  EP  OW  HW  HW  EP  OW  HW  HW  EP  OW  
HW  HW  EP  OW  HW  HW  EP  OW  HW  HW  EP  OW  HW  HW  EP  OW  HW  HW  EP  OW  
HW  HW  EP  OW  HW  HW  EP  OW  HW  HW  EP  OW  HW  HW  EP  OW  HW  HW  EP  OW  
HW  HW  EP  OW  HW  HW  EP  OW  HW  HW  EP  OW  HW  HW  EP  OW  HW  HW  EP  OW  
HW  HW  EP  OW  HW  HW  EP  OW  HW  HW  EP  OW  HW  HW  EP  OW  HW  HW  EP  OW  
HW  HW  EP  OW  HW  HW  EP  OW  HW  HW  EP  OW  HW  HW  EP  OW  HW  HW  EP  OW  
HW  HW  EP  OW  HW  HW  EP  OW  HW  HW  EP  OW  HW  HW  EP  OW  HW  HW  EP  OW  
HW  HW  EP  OW  HW  HW  EP  OW  HW  HW  EP  OW  HW  HW  EP  OW  HW  HW  EP  OW  
HW  HW  EP  OW  HW  HW  EP  OW  HW  HW  EP  OW  HW  HW  EP  OW  HW  HW  EP  OW  
HW  HW  EP  OW  HW  HW  EP  OW  HW  HW  EP  OW  HW  HW  EP  OW  HW  HW  EP  OW  
HW  HW  EP  OW  HW  HW  EP  OW  HW  HW  EP  OW  HW  HW  EP  OW  HW  HW  EP  OW  
HW  HW  EP  OW  HW  HW  EP  OW  HW  HW  EP  OW  HW  HW  EP  OW  HW  HW  EP  OW  
HW  HW  EP  OW  HW  HW  EP  OW  HW  HW  EP  OW  HW  HW  EP  OW  HW  HW  EP  OW  
HW  HW  EP  OW  HW  HW  EP  OW  HW  HW  EP  OW  HW  HW  EP  OW  HW  HW  EP  OW  
HW  HW  EP  OW  HW  HW  EP  OW  HW  HW  EP  OW  HW  HW  EP  OW  HW  HW  EP  OW  
HW  HW  EP  OW  HW  HW  EP  OW  HW  HW  EP  OW  HW  HW  EP  OW  HW  HW  EP  OW  
HW  HW  EP  OW  HW  HW  EP  OW  HW  HW  EP  OW  HW  HW  EP  OW  HW  HW  EP  OW  
HW  HW  EP  OW  HW  HW  EP  OW  HW  HW  EP  OW  HW  HW  EP  OW  HW  HW  EP  OW  
HW  HW  EP  OW  HW  HW  EP  OW  HW  HW  EP  OW  HW  HW  EP  OW  HW  HW  EP  OW  
HW  HW  EP  OW  HW  HW  EP  OW  HW  HW  EP  OW  HW  HW  EP  OW  HW  HW  EP  OW  
HW  HW  EP  OW  HW  HW  EP  OW  HW  HW  EP  OW  HW  HW  EP  OW  HW  HW  EP  OW  
HW  HW  EP  OW  HW  HW  EP  OW  HW  HW  EP  OW  HW  HW  EP  OW  HW  HW  EP  OW  
HW  HW  EP  OW  HW  HW  EP  OW  HW  HW  EP  OW  HW  HW  EP  OW  HW  HW  EP  OW  
HW  HW  EP  OW  HW  HW  EP  OW  HW  HW  EP  OW  HW  HW  EP  OW  HW  HW  EP  OW  
HW  HW  EP  OW  HW  HW  EP  OW  HW  HW  EP  OW  HW  HW  EP  OW  HW  HW  EP  OW  
HW  HW  EP  OW  HW  HW  EP  OW  HW  HW  EP  OW  HW  HW  EP  OW  HW  HW  EP  OW  
HW  HW  EP  OW  HW  HW  EP  OW  HW  HW  EP  OW  HW  HW  EP  OW  HW  HW  EP  OW  
HW  HW  EP  OW  HW  HW  EP  OW  HW  HW  EP  OW  HW  HW  EP  OW  HW  HW  EP  OW  
HW  HW  EP  OW  HW  HW  EP  OW  HW  HW  EP  OW  HW  HW  EP  OW  HW  HW  EP  OW  
HW  HW  EP  OW  HW  HW  EP  OW  HW  HW  EP  OW  HW  HW  EP  OW  HW  HW  EP  OW  
HW  HW  EP  OW  HW  HW  EP  OW  HW  HW  EP  OW  HW  HW  EP  OW  HW  HW  EP  OW  
HW  HW  EP  OW  HW  HW  EP  OW  HW  HW  EP  OW  HW  HW  EP  OW  HW  HW  EP  OW  
HW  HW  EP  OW  HW  HW  EP  OW  HW  HW  EP  OW  HW  HW  EP  OW  HW  HW  EP  OW  
HW  HW  EP  OW  HW  HW  EP  OW  HW  HW  EP  OW  HW  HW  EP  OW  HW  HW  EP  OW  
HW  HW  EP  OW  HW  HW  EP  OW  HW  HW  EP  OW  HW  HW  EP  OW  HW  HW  EP  OW  
HW  HW  EP  OW  HW  HW  EP  OW  HW  HW  EP  OW  HW  HW  EP  OW  HW  HW  EP  OW  
HW  HW  EP  OW  HW  HW  EP  OW  HW  HW  EP  OW  HW  HW  EP  OW  HW  HW  EP  OW  
HW  HW  EP  OW  HW  HW  EP  OW  HW  HW  EP  OW  HW  HW  EP  OW  HW  HW  EP  OW  
HW  HW  EP  OW  HW  HW  EP  OW  HW  HW  EP  OW  HW  HW  EP  OW  HW  HW  EP  OW  
HW  HW  EP  OW  HW  HW  EP  OW  HW  HW  EP  OW  HW  HW  EP  OW  HW  HW  EP  OW  
HW  HW  EP  OW  HW  HW  EP  OW  HW  HW  EP  OW  HW  HW  EP  OW  HW  HW  EP  OW  
HW  HW  EP  OW  HW  HW  EP  OW  HW  HW  EP  OW  HW  HW  EP  OW  HW  HW  EP  OW  
HW  HW  EP  OW  HW  HW  EP  OW  HW  HW  EP  OW  HW  HW  EP  OW  HW  HW  EP  OW  
HW  HW  EP  OW  HW  HW  EP  OW  HW  HW  EP  OW  HW  HW  EP  OW  HW  HW  EP  OW  
HW  HW  EP  OW  HW  HW  EP  OW  HW  HW  EP  OW  HW  HW  EP  OW  HW  HW  EP  OW  
HW  HW  EP  OW  HW  HW  EP  OW  HW  HW  EP  OW  HW  HW  EP  OW  HW  HW  EP  OW  
HW  HW  EP  OW  HW  HW  EP  OW  HW  HW  EP  OW  HW  HW  EP  OW  HW  HW  EP  OW  
HW  HW  EP  OW  HW  HW  EP  OW  HW  HW  EP  OW  HW  HW  EP  OW  HW  HW  EP  OW  
HW  HW  EP  OW  HW  HW  EP  OW  HW  HW  EP  OW  HW  HW  EP  OW  HW  HW  EP  OW  
HW  HW  EP  OW  HW  HW  EP  OW  HW  HW  EP  OW  HW  HW  EP  OW  HW  HW  EP  OW  
HW  HW  EP  OW  HW  HW  EP  OW  HW  HW  EP  OW  HW  HW  EP  OW  HW  HW  EP  OW  
HW  HW  EP  OW  HW  HW  EP  OW  HW  HW  EP  OW  HW  HW  EP  OW  HW  HW  EP  OW  
HW  HW  EP  OW  HW  HW  EP  OW  HW  HW  EP  OW  HW  HW  EP  OW  HW  HW  EP  OW  
HW  HW  EP  OW  HW  HW  EP  OW  HW  HW  EP  OW  HW  HW  EP  OW  HW  HW  EP  OW  
HW  HW  EP  OW  HW  HW  EP  OW  HW  HW  EP  OW  HW  HW  EP  OW  HW  HW  EP  OW  
HW  HW  EP  OW  HW  HW  EP  OW  HW  HW  EP  OW  HW  HW  EP  OW  HW  HW  EP  OW  
HW  HW  EP  OW  HW  HW  EP  OW  HW  HW  EP  OW  HW  HW  EP  OW  HW  HW  EP  OW  
HW  HW  EP  OW  HW  HW  EP  OW  HW  HW  EP  OW  HW  HW  EP  OW  HW  HW  EP  OW  
HW  HW  EP  OW  HW  HW  EP  OW  HW  HW  EP  OW  HW  HW  EP  OW  HW  HW  EP  OW  
HW  HW  EP  OW  HW  HW  EP  OW  HW  HW  EP  OW  HW  HW  EP  OW  HW  HW  EP  OW  
HW  HW  EP  OW  HW  HW  EP  OW  HW  HW  EP  OW  HW  HW  EP  OW  HW  HW  EP  OW  
HW  HW  EP  OW  HW  HW  EP  OW  HW  HW  EP  OW  HW  HW  EP  OW  HW  HW  EP  OW  
HW  HW  EP  OW  HW  HW  EP  OW  HW  HW  EP  OW  HW  HW  EP  OW  HW  HW  EP  OW  
HW  HW  EP  OW  HW  HW  EP  OW  HW  HW  EP  OW  HW  HW  EP  OW  HW  HW  EP  OW  
HW  HW  EP  OW  HW  HW  EP  OW  HW  HW  EP  OW  HW  HW  EP  OW  HW  HW  EP  OW  
HW  HW  EP  OW  HW  HW  EP  OW  HW  HW  EP  OW  HW  HW  EP  OW  HW  HW  EP  OW  
HW  HW  EP  OW  HW  HW  EP  OW  HW  HW  EP  OW  HW  HW  EP  OW  HW  HW  EP  OW  
HW  HW  EP  OW  HW  HW  EP  OW  HW  HW  EP  OW  HW  HW  EP  OW  HW  HW  EP  OW  
HW  HW  EP  OW  HW  HW  EP  OW  HW  HW  EP  OW  HW  HW  EP  OW  HW  HW  EP  OW  
HW  HW  EP  OW  HW  HW  EP  OW  HW  HW  EP  OW  HW  HW  EP  OW  HW  HW  EP  OW  
HW  HW  EP  OW  HW  HW  EP  OW  HW  HW  EP  OW  HW  HW  EP  OW  HW  HW  EP  OW  
HW  HW  EP  OW  HW  HW  EP  OW  HW  HW  EP  OW  HW  HW  EP  OW  HW  HW  EP  OW  
HW  HW  EP  OW  HW  HW  EP  OW  HW  HW  EP  OW  HW  HW  EP  OW  HW  HW  EP  OW  
HW  HW  EP  OW  HW  HW  EP  OW  HW  HW  EP  OW  HW  HW  EP  OW  HW  HW  EP  OW  
HW  HW  EP  OW  HW  HW  EP  OW  HW  HW  EP  OW  HW  HW  EP  OW  HW  HW  EP  OW  
HW  HW  EP  OW  HW  HW  EP  OW  HW  HW  EP  OW  HW  HW  EP  OW  HW  HW  EP  OW  
HW  HW  EP  OW  HW  HW  EP  OW  HW  HW  EP  OW  HW  HW  EP  OW  HW  HW  EP  OW  
HW  HW  EP  OW  HW  HW  EP  OW  HW  HW  EP  OW  HW  HW  EP  OW  HW  HW  EP  OW  
HW  HW  EP  OW  HW  HW  EP  OW  HW  HW  EP  OW  HW  HW  EP  OW  HW  HW  EP  OW  
HW  HW  EP  OW  HW  HW  EP  OW  HW  HW  EP  OW  HW  HW  EP  OW  HW  HW  EP  OW  
HW  HW  EP  OW  HW  HW  EP  OW  HW  HW  EP  OW  HW  HW  EP  OW  HW  HW  EP  OW  
HW  HW  EP  OW  HW  HW  EP  OW  HW  HW  EP  OW  HW  HW  EP  OW  HW  HW  EP  OW  
HW  HW  EP  OW  HW  HW  EP  OW  HW  HW  EP  OW  HW  HW  EP  OW  HW  HW  EP  OW  
HW  HW  EP  OW  HW  HW  EP  OW  HW  HW  EP  OW  HW  HW  EP  OW  HW  HW  EP  OW  
HW  HW  EP  OW  HW  HW  EP  OW  HW  HW  EP  OW  HW  HW  EP  OW  HW  HW  EP  OW  
HW  HW  EP  OW  HW  HW  EP  OW  HW  HW  EP  OW  HW  HW  EP  OW  HW  HW  EP  OW  
HW  HW  EP  OW  HW  HW  EP  OW  HW  HW  EP  OW  HW  HW  EP  OW  HW  HW  EP  OW  
HW  HW  EP  OW  HW  HW  EP  OW  HW  HW  EP  OW  HW  HW  EP  OW  HW  HW  EP  OW  
HW  HW  EP  OW  HW  HW  EP  OW  HW  HW  EP  OW  HW  HW  EP  OW  HW  HW  EP  OW  
HW  HW  EP  OW  HW  HW  EP  OW  HW  HW  EP  OW  HW  HW  EP  OW  HW  HW  EP  OW  
HW  HW  EP  OW  HW  HW  EP  OW  HW  HW  EP  OW  HW  HW  EP  OW  HW  HW  EP  OW  
HW  HW  EP  OW  HW  HW  EP  OW  HW  HW  EP  OW  HW  HW  EP  OW  HW  HW  EP  OW  
HW  HW  EP  OW  HW  HW  EP  OW  HW  HW  EP  OW  HW  HW  EP  OW  HW  HW  EP  OW  
HW  HW  EP  OW  HW  HW  EP  OW  HW  HW  EP  OW  HW  HW  EP  OW  HW  HW  EP  OW  
HW  HW  EP  OW  HW  HW  EP  OW  HW  HW  EP  OW  HW  HW  EP  OW  HW  HW  EP  OW  
HW  HW  EP  OW  HW  HW  EP  OW  HW  HW  EP  OW  HW  HW  EP  OW  HW  HW  EP  OW  
HW  HW  EP  OW  HW  HW  EP  OW  HW  HW  EP  OW  HW  HW  EP  OW  HW  HW  EP  OW  
HW  HW  EP  OW  HW  HW  EP  OW  HW  HW  EP  OW  HW  HW  EP  OW  HW  HW  EP  OW  
HW  HW  EP  OW  HW  HW  EP  OW  HW  HW  EP  OW  HW  HW  EP  OW  HW  HW  EP  OW  
HW  HW  EP  OW  HW  HW  EP  OW  HW  HW  EP  OW  HW  HW  EP  OW  HW  HW  EP  OW  
HW  HW  EP  OW  HW  HW  EP  OW  HW  HW  EP  OW  HW  HW  EP  OW  HW  HW  EP  OW  
HW  HW  EP  OW  HW  HW  EP  OW  HW  HW  EP  OW  HW  HW  EP  OW  HW  HW  EP  OW  
HW  HW  EP  OW  HW  HW  EP  OW  HW  HW  EP  OW  HW  HW  EP  OW  HW  HW  EP  OW  
HW  HW  EP  OW  HW  HW  EP  OW  HW  HW  EP  OW  HW  HW  EP  OW  HW  HW  EP  OW  
HW  HW  EP  OW  HW  HW  EP  OW  HW  HW  EP  OW  HW  HW  EP  OW  HW  HW  EP  OW  
HW  HW  EP  OW  HW  HW  EP  OW  HW  HW  EP  OW  HW  HW  EP  OW  HW  HW  EP  OW  
HW  HW  EP  OW  HW  HW  EP  OW  HW  HW  EP  OW  HW  HW  EP  OW  HW  HW  EP  OW  
HW  HW  EP  OW  HW  HW  EP  OW  HW  HW  EP  OW  HW  HW  EP  OW  HW  HW  EP  OW  
HW  HW  EP  OW  HW  HW  EP  OW  HW  HW  EP  OW  HW  HW  EP  OW  HW  HW  EP  OW  
HW  HW  EP  OW  HW  HW  EP  OW  HW  HW  EP  OW  HW  HW  EP  OW  HW  HW  EP  OW  
HW  HW  EP  OW  HW  HW  EP  OW  HW  HW  EP  OW  HW  HW  EP  OW  HW  HW  EP  OW  
HW  HW  EP  OW  HW  HW  EP  OW  HW  HW  EP  OW  HW  HW  EP  OW  HW  HW  EP  OW  
HW  HW  EP  OW  HW  HW  EP  OW  HW  HW  EP  OW  HW  HW  EP  OW  HW  HW  EP  OW  
HW  HW  EP  OW  HW  HW  EP  OW  HW  HW  EP  OW  HW  HW  EP  OW  HW  HW  EP  OW  
HW  HW  EP  OW  HW  HW  EP  OW  HW  HW  EP  OW  HW  HW  EP  OW  HW  HW  EP  OW  
HW  HW  EP  OW  HW  HW  EP  OW  HW  HW  EP  OW  HW  HW  EP  OW  HW  HW  EP  OW  
HW  HW  EP  OW  HW  HW  EP  OW  HW  HW  EP  OW  HW  HW  EP  OW  HW  HW  EP  OW  
HW  HW  EP  OW  HW  HW  EP  OW  HW  HW  EP  OW  HW  HW  EP  OW  HW  HW  EP  OW  
HW  HW  EP  OW  HW  HW  EP  OW  HW  HW  EP  OW  HW  HW  EP  OW  HW  HW  EP  OW  
HW  HW  EP  OW  HW  HW  EP  OW  HW  HW  EP  OW  HW  HW  EP  OW  HW  HW  EP  OW  
HW  HW  EP  OW  HW  HW  EP  OW  HW  HW  EP  OW  HW  HW  EP  OW  HW  HW  EP  OW  
HW  HW  EP  OW  HW  HW  EP  OW  HW  HW  EP  OW  HW  HW  EP  OW  HW  HW  EP  OW  
HW  HW  EP  OW  HW  HW  EP  OW  HW  HW  EP  OW  HW  HW  EP  OW  HW  HW  EP  OW  
HW  HW  EP  OW  HW  HW  EP  OW  HW  HW  EP  OW  HW  HW  EP  OW  HW  HW  EP  OW  
HW  HW  EP  OW  HW  HW  EP  OW  HW  HW  EP  OW  HW  HW  EP  OW  HW  HW  EP  OW  
HW  HW  EP  OW  HW  HW  EP  OW  HW  HW  EP  OW  HW  HW  EP  OW  HW  HW  EP  OW  
HW  HW  EP  OW  HW  HW  EP  OW  HW  HW  EP  OW  HW  HW  EP  OW  HW  HW  EP  OW  
HW  HW  EP  OW  HW  HW  EP  OW  HW  HW  EP  OW  HW  HW  EP  OW  HW  HW  EP  OW  
HW  HW  EP  OW  HW  HW  EP  OW  HW  HW  EP  OW  HW  HW  EP  OW  HW  HW  EP  OW  
HW  HW  EP  OW  HW  HW  EP  OW  HW  HW  EP  OW  HW  HW  EP  OW  HW  HW  EP  OW  
HW  HW  EP  OW  HW  HW  EP  OW  HW  HW  EP  OW  HW  HW  EP  OW  HW  HW  EP  OW  
HW  HW  EP  OW  HW  HW  EP  OW  HW  HW  EP  OW  HW  HW  EP  OW  HW  HW  EP  OW  
HW  HW  EP  OW  HW  HW  EP  OW  HW  HW  EP  OW  HW  HW  EP  OW  HW  HW  EP  OW  
HW  HW  EP  OW  HW  HW  EP  OW  HW  HW  EP  OW  HW  HW  EP  OW  HW  HW  EP  OW  
HW  HW  EP  OW  HW  HW  EP  OW  HW  HW  EP  OW  HW  HW  EP  OW  HW  HW  EP  OW  
HW  HW  EP  OW  HW  HW  EP  OW  HW  HW  EP  OW  HW  HW  EP  OW  HW  HW  EP  OW  
HW  HW  EP  OW  HW  HW  EP  OW  HW  HW  EP  OW  HW  HW  EP  OW  HW  HW  EP  OW  
HW  HW  EP  OW  HW  HW  EP  OW  HW  HW  EP  OW  HW  HW  EP  OW  HW  HW  EP  OW  
HW  HW  EP  OW  HW  HW  EP  OW  HW  HW  EP  OW  HW  HW  EP  OW  HW  HW  EP  OW  
HW  HW  EP  OW  HW  HW  EP  OW  HW  HW  EP  OW  HW  HW  EP  OW  HW  HW  EP  OW  
HW  HW  EP  OW  HW  HW  EP  OW  HW  HW  EP  OW  HW  HW  EP  OW  HW  HW  EP  OW  
HW  HW  EP  OW  HW  HW  EP  OW  HW  HW  EP  OW  HW  HW  EP  OW  HW  HW  EP  OW  
HW  HW  EP  OW  HW  HW  EP  OW  HW  HW  EP  OW  HW  HW  EP  OW  HW  HW  EP  OW  
HW  HW  EP  OW  HW  HW  EP  OW  HW  HW  EP  OW  HW  HW  EP  OW  HW  HW  EP  OW  
HW  HW  EP  OW  HW  HW  EP  OW  HW  HW  EP  OW  HW  HW  EP  OW  HW  HW  EP  OW  
HW  HW  EP  OW  HW  HW  EP  OW  HW  HW  EP  OW  HW  HW  EP  OW  HW  HW  EP  OW  
HW  HW  EP  OW  HW  HW  EP  OW  HW  HW  EP  OW  HW  HW  EP  OW  HW  HW  EP  OW  
HW  HW  EP  OW  HW  HW  EP  OW  HW  HW  EP  OW  HW  HW  EP  OW  HW  HW  EP  OW  
HW  HW  EP  OW  HW  HW  EP  OW  HW  HW  EP  OW  HW  HW  EP  OW  HW  HW  EP  OW  
HW  HW  EP  OW  HW  HW  EP  OW  HW  HW  EP  OW  HW  HW  EP  OW  HW  HW  EP  OW  
HW  HW  EP  OW  HW  HW  EP  OW  HW  HW  EP  OW  HW  HW  EP  OW  HW  HW  EP  OW  
HW  HW  EP  OW  HW  HW  EP  OW  HW  HW  EP  OW  HW  HW  EP  OW  HW  HW  EP  OW  
HW  HW  EP  OW  HW  HW  EP  OW  HW  HW  EP  OW  HW  HW  EP  OW  HW  HW  EP  OW  
HW  HW  EP  OW  HW  HW  EP  OW  HW  HW  EP  OW  HW  HW  EP  OW  HW  HW  EP  OW  
HW  HW  EP  OW  HW  HW  EP  OW  HW  HW  EP  OW  HW  HW  EP  OW  HW  HW  EP  OW  
HW  HW  EP  OW  HW  HW  EP  OW  HW  HW  EP  OW  HW  HW  EP  OW  HW  HW  EP  OW  
HW  HW  EP  OW  HW  HW  EP  OW  HW  HW  EP  OW  HW  HW  EP  OW  HW  HW  EP  OW  
HW  HW  EP  OW  HW  HW  EP  OW  HW  HW  EP  OW  HW  HW  EP  OW  HW  HW  EP  OW  
HW  HW  EP  OW  HW  HW  EP  OW  HW  HW  EP  OW  HW  HW  EP  OW  HW  HW  EP  OW  
HW  HW  EP  OW  HW  HW  EP  OW  HW  HW  EP  OW  HW  HW  EP  OW  HW  HW  EP  OW  
HW  HW  EP  OW  HW  HW  EP  OW  HW  HW  EP  OW  HW  HW  EP  OW  HW  HW  EP  OW  
HW  HW  EP  OW  HW  HW  EP  OW  HW  HW  EP  OW  HW  HW  EP  OW  HW  HW  EP  OW  
HW  HW  EP  OW  HW  HW  EP  OW  HW  HW  EP  OW  HW  HW  EP  OW  HW  HW  EP  OW  
HW  HW  EP  OW  HW  HW  EP  OW  HW  HW  EP  OW  HW  HW  EP  OW  HW  HW  EP  OW  
HW  HW  EP  OW  HW  HW  EP  OW  HW  HW  EP  OW  HW  HW  EP  OW  HW  HW  EP  OW  
HW  HW  EP  OW  HW  HW  EP  OW  HW  HW  EP  OW  HW  HW  EP  OW  HW  HW  EP  OW  
HW  HW  EP  OW  HW  HW  EP  OW  HW  HW  EP  OW  HW  HW  EP  OW  HW  HW  EP  OW  
HW  HW  EP  OW  HW  HW  EP  OW  HW  HW  EP  OW  HW  HW  EP  OW  HW  HW  EP  OW  
HW  HW  EP  OW  HW  HW  EP  OW  HW  HW  EP  OW  HW  HW  EP  OW  HW  HW  EP  OW  
HW  HW  EP  OW  HW  HW  EP  OW  HW  HW  EP  OW  HW  HW  EP  OW  HW  HW  EP  OW  
HW  HW  EP  OW  HW  HW  EP  OW  HW  HW  EP  OW  HW  HW  EP  OW  HW  HW  EP  OW  
HW  HW  EP  OW  HW  HW  EP  OW  HW  HW  EP  OW  HW  HW  EP  OW  HW  HW  EP  OW  
HW  HW  EP  OW  HW  HW  EP  OW  HW  HW  EP  OW  HW  HW  EP  OW  HW  HW  EP  OW  
HW  HW  EP  OW  HW  HW  EP  OW  HW  HW  EP  OW  HW  HW  EP  OW  HW  HW  EP  OW  
HW  HW  EP  OW  HW  HW  EP  OW  HW  HW  EP  OW  HW  HW  EP  OW  HW  HW  EP  OW  
HW  HW  EP  OW  HW  HW  EP  OW  HW  HW  EP  OW  HW  HW  EP  OW  HW  HW  EP  OW  
HW  HW  EP  OW  HW  HW  EP  OW  HW  HW  EP  OW  HW  HW  EP  OW  HW  HW  EP  OW  
HW  HW  EP  OW  HW  HW  EP  OW  HW  HW  EP  OW  HW  HW  EP  OW  HW  HW  EP  OW  
HW  HW  EP  OW  HW  HW  EP  OW  HW  HW  EP  OW  HW  HW  EP  OW  HW  HW  EP  OW  
HW  HW  EP  OW  HW  HW  EP  OW  HW  HW  EP  OW  HW  HW  EP  OW  HW  HW  EP  OW  
HW  HW  EP  OW  HW  HW  EP  OW  HW  HW  EP  OW  HW  HW  EP  OW  HW  HW  EP  OW  
HW  HW  EP  OW  HW  HW  EP  OW  HW  HW  EP  OW  HW  HW  EP  OW  HW  HW  EP  OW  
HW  HW  EP  OW  HW  HW  EP  OW  HW  HW  EP  OW  HW  HW  EP  OW  HW  HW  EP  OW  
HW  HW  EP  OW  HW  HW  EP  OW  HW  HW  EP  OW  HW  HW  EP  OW  HW  HW  EP  OW  
HW  HW  EP  OW  HW  HW  EP  OW  HW  HW  EP  OW  HW  HW  EP  OW  HW  HW  EP  OW  
HW  HW  EP  OW  HW  HW  EP  OW  HW  HW  EP  OW  HW  HW  EP  OW  HW  HW  EP  OW  
HW  HW  EP  OW  HW  HW  EP  OW  HW  HW  EP  OW  HW  HW  EP  OW  HW  HW  EP  OW  
HW  HW  EP  OW  HW  HW  EP  OW  HW  HW  EP  OW  HW  HW  EP  OW  HW  HW  EP  OW  
HW  HW  EP  OW  HW  HW  EP  OW  HW  HW  EP  OW  HW  HW  EP  OW  HW  HW  EP  OW  
HW  HW  EP  OW  HW  HW  EP  OW  HW  HW  EP  OW  HW  HW  EP  OW  HW  HW  EP  OW  
HW  HW  EP  OW  HW  HW  EP  OW  HW  HW  EP  OW  HW  HW  EP  OW  HW  HW  EP  OW  
HW  HW  EP  OW  HW  HW  EP  OW  HW  HW  EP  OW  HW  HW  EP  OW  HW  HW  EP  OW  
HW  HW  EP  OW  HW  HW  EP  OW  HW  HW  EP  OW  HW  HW  EP  OW  HW  HW  EP  OW  
HW  HW  EP  OW  HW  HW  EP  OW  HW  HW  EP  OW  HW  HW  EP  OW  HW  HW  EP  OW  
HW  HW  EP  OW  HW  HW  EP  OW  HW  HW  EP  OW  HW  HW  EP  OW  HW  HW  EP  OW  
HW  HW  EP  OW  HW  HW  EP  OW  HW  HW  EP  OW  HW  HW  EP  OW  HW  HW  EP  OW  
HW  HW  EP  OW  HW  HW  EP  OW  HW  HW  EP  OW  HW  HW  EP  OW  HW  HW  EP  OW  
HW  HW  EP  OW  HW  HW  EP  OW  HW  HW  EP  OW  HW  HW  EP  OW  HW  HW  EP  OW  
HW  HW  EP  OW  HW  HW  EP  OW  HW  HW  EP  OW  HW  HW  EP  OW  HW  HW  EP  OW  
HW  HW  EP  OW  HW  HW  EP  OW  HW  HW  EP  OW  HW  HW  EP  OW  HW  HW  EP  OW  
HW  HW  EP  OW  HW  HW  EP  OW  HW  HW  EP  OW  HW  HW  EP  OW  HW  HW  EP  OW  
HW  HW  EP  OW  HW  HW  EP  OW  HW  HW  EP  OW  HW  HW  EP  OW  HW  HW  EP  OW  
HW  HW  EP  OW  HW  HW  EP  OW  HW  HW  EP  OW  HW  HW  EP  OW  HW  HW  EP  OW  
HW  HW  EP  OW  HW  HW  EP  OW  HW  HW  EP  OW  HW  HW  EP  OW  HW  HW  EP  OW  
HW  HW  EP  OW  HW  HW  EP  OW  HW  HW  EP  OW  HW  HW  EP  OW  HW  HW  EP  OW  
HW  HW  EP  OW  HW  HW  EP  OW  HW  HW  EP  OW  HW  HW  EP  OW  HW  HW  EP  OW  
HW  HW  EP  OW  HW  HW  EP  OW  HW  HW  EP  OW  HW  HW  EP  OW  HW  HW  EP  OW  
HW  HW  EP  OW  HW  HW  EP  OW  HW  HW  EP  OW  HW  HW  EP  OW  HW  HW  EP  OW  
HW  HW  EP  OW  HW  HW  EP  OW  HW  HW  EP  OW  HW  HW  EP  OW  HW  HW  EP  OW  
HW  HW  EP  OW  HW  HW  EP  OW  HW  HW  EP  OW  HW  HW  EP  OW  HW  HW  EP  OW  
HW  HW  EP  OW  HW  HW  EP  OW  HW  HW  EP  OW  HW  HW  EP  OW  HW  HW  EP  OW  
HW  HW  EP  OW  HW  HW  EP  OW  HW  HW  EP  OW  HW  HW  EP  OW  HW  HW  EP  OW  
HW  HW  EP  OW  HW  HW  EP  OW  HW  HW  EP  OW  HW  HW  EP  OW  HW  HW  EP  OW  
HW  HW  EP  OW  HW  HW  EP  OW  HW  HW  EP  OW  HW  HW  EP  OW  HW  HW  EP  OW  
HW  HW  EP  OW  HW  HW  EP  OW  HW  HW  EP  OW  HW  HW  EP  OW  HW  HW  EP  OW  
HW  HW  EP  OW  HW  HW  EP  OW  HW  HW  EP  OW  HW  HW  EP  OW  HW  HW  EP  OW  
HW  HW  EP  OW  HW  HW  EP  OW  HW  HW  EP  OW  HW  HW  EP  OW  HW  HW  EP  OW  
HW  HW  EP  OW  HW  HW  EP  OW  HW  HW  EP  OW  HW  HW  EP  OW  HW  HW  EP  OW  
HW  HW  EP  OW  HW  HW  EP  OW  HW  HW  EP  OW  HW  HW  EP  OW  HW  HW  EP  OW  
HW  HW  EP  OW  HW  HW  EP  OW  HW  HW  EP  OW  HW  HW  EP  OW  HW  HW  EP  OW  
HW  HW  EP  OW  HW  HW  EP  OW  HW  HW  EP  OW  HW  HW  EP  OW  HW  HW  EP  OW  
HW  HW  EP  OW  HW  HW  EP  OW  HW  HW  EP  OW  HW  HW  EP  OW  HW  HW  EP  OW  
HW  HW  EP  OW  HW  HW  EP  OW  HW  HW  EP  OW  HW  HW  EP  OW  HW  HW  EP  OW  
HW  HW  EP  OW  HW  HW  EP  OW  HW  HW  EP  OW  HW  HW  EP  OW  HW  HW  EP  OW  
HW  HW  EP  OW  HW  HW  EP  OW  HW  HW  EP  OW  HW  HW  EP  OW  HW  HW  EP  OW  
HW  HW  EP  OW  HW  HW  EP  OW  HW  HW  EP  OW  HW  HW  EP  OW  HW  HW  EP  OW  
HW  HW  EP  OW  HW  HW  EP  OW  HW  HW  EP  OW  HW  HW  EP  OW  HW  HW  EP  OW  
HW  HW  EP  OW  HW  HW  EP  OW  HW  HW  EP  OW  HW  HW  EP  OW  HW  HW  EP  OW  
HW  HW  EP  OW  HW  HW  EP  OW  HW  HW  EP  OW  HW  HW  EP  OW  HW  HW  EP  OW  
HW  HW  EP  OW  HW  HW  EP  OW  HW  HW  EP  OW  HW  HW  EP  OW  HW  HW  EP  OW  
HW  HW  EP  OW  HW  HW  EP  OW  HW  HW  EP  OW  HW  HW  EP  OW  HW  HW  EP  OW  
HW  HW  EP  OW  HW  HW  EP  OW  HW  HW  EP  OW  HW  HW  EP  OW  HW  HW  EP  OW  
HW  HW  EP  OW  HW  HW  EP  OW  HW  HW  EP  OW  HW  HW  EP  OW  HW  HW  EP  OW  
HW  HW  EP  OW  HW  HW  EP  OW  HW  HW  EP  OW  HW  HW  EP  OW  HW  HW  EP  OW  
HW  HW  EP  OW  HW  HW  EP  OW  HW  HW  EP  OW  HW  HW  EP  OW  HW  HW  EP  OW  
HW  HW  EP  OW  HW  HW  EP  OW  HW  HW  EP  OW  HW  HW  EP  OW  HW  HW  EP  OW  
HW  HW  EP  OW  HW  HW  EP  OW  HW  HW  EP  OW  HW  HW  EP  OW  HW  HW  EP  OW  
HW  HW  EP  OW  HW  HW  EP  OW  HW  HW  EP  OW  HW  HW  EP  OW  HW  HW  EP  OW  
HW  HW  EP  OW  HW  HW  EP  OW  HW  HW  EP  OW  HW  HW  EP  OW  HW  HW  EP  OW  
HW  HW  EP  OW  HW  HW  EP  OW  HW  HW  EP  OW  HW  HW  EP  OW  HW  HW  EP  OW  
HW  HW  EP  OW  HW  HW  EP  OW  HW  HW  EP  OW  HW  HW  EP  OW  HW  HW  EP  OW  
HW  HW  EP  OW  HW  HW  EP  OW  HW  HW  EP  OW  HW  HW  EP  OW  HW  HW  EP  OW  
HW  HW  EP  OW  HW  HW  EP  OW  HW  HW  EP  OW  HW  HW  EP  OW  HW  HW  EP  OW  
HW  HW  EP  OW  HW  HW  EP  OW  HW  HW  EP  OW  HW  HW  EP  OW  HW  HW  EP  OW  
HW  HW  EP  OW  HW  HW  EP  OW  HW  HW  EP  OW  HW  HW  EP  OW  HW  HW  EP  OW  
HW  HW  EP  OW  HW  HW  EP  OW  HW  HW  EP  OW  HW  HW  EP  OW  HW  HW  EP  OW  
HW  HW  EP  OW  HW  HW  EP  OW  HW  HW  EP  OW  HW  HW  EP  OW  HW  HW  EP  OW  
HW  HW  EP  OW  HW  HW  EP  OW  HW  HW  EP  OW  HW  HW  EP  OW  HW  HW  EP  OW  
HW  HW  EP  OW  HW  HW  EP  OW  HW  HW  EP  OW  HW  HW  EP  OW  HW  HW  EP  OW  
HW  HW  EP  OW  HW  HW  EP  OW  HW  HW  EP  OW  HW  HW  EP  OW  HW  HW  EP  OW  
HW  HW  EP  OW  HW  HW  EP  OW  HW  HW  EP  OW  HW  HW  EP  OW  HW  HW  EP  OW  
HW  HW  EP  OW  HW  HW  EP  OW  HW  HW  EP  OW  HW  HW  EP  OW  HW  HW  EP  OW  
HW  HW  EP  OW  HW  HW  EP  OW  HW  HW  EP  OW  HW  HW  EP  OW  HW  HW  EP  OW  
HW  HW  EP  OW  HW  HW  EP  OW  HW  HW  EP  OW  HW  HW  EP  OW  HW  HW  EP  OW  
HW  HW  EP  OW  HW  HW  EP  OW  HW  HW  EP  OW  HW  HW  EP  OW  HW  HW  EP  OW  
HW  HW  EP  OW  HW  HW  EP  OW  HW  HW  EP  OW  HW  HW  EP  OW  HW  HW  EP  OW  
HW  HW  EP  OW  HW  HW  EP  OW  HW  HW  EP  OW  HW  HW  EP  OW  HW  HW  EP  OW  
HW  HW  EP  OW  HW  HW  EP  OW  HW  HW  EP  OW  HW  HW  EP  OW  HW  HW  EP  OW  
HW  HW  EP  OW  HW  HW  EP  OW  HW  HW  EP  OW  HW  HW  EP  OW  HW  HW  EP  OW  
HW  HW  EP  OW  HW  HW  EP  OW  HW  HW  EP  OW  HW  HW  EP  OW  HW  HW  EP  OW  
HW  HW  EP  OW  HW  HW  EP  OW  HW  HW  EP  OW  HW  HW  EP  OW  HW  HW  EP  OW  
HW  HW  EP  OW  HW  HW  EP  OW  HW  HW  EP  OW  HW  HW  EP  OW  HW  HW  EP  OW  
HW  HW  EP  OW  HW  HW  EP  OW  HW  HW  EP  OW  HW  HW  EP  OW  HW  HW  EP  OW  
HW  HW  EP  OW  HW  HW  EP  OW  HW  HW  EP  OW  HW  HW  EP  OW  HW  HW  EP  OW  
HW  HW  EP  OW  HW  HW  EP  OW  HW  HW  EP  OW  HW  HW  EP  OW  HW  HW  EP  OW  
HW  HW  EP  OW  HW  HW  EP  OW  HW  HW  EP  OW  HW  HW  EP  OW  HW  HW  EP  OW  
HW  HW  EP  OW  HW  HW  EP  OW  HW  HW  EP  OW  HW  HW  EP  OW  HW  HW  EP  OW  
HW  HW  EP  OW  HW  HW  EP  OW  HW  HW  EP  OW  HW  HW  EP  OW  HW  HW  EP  OW  
HW  HW  EP  OW  HW  HW  EP  OW  HW  HW  EP  OW  HW  HW  EP  OW  HW  HW  EP  OW  
HW  HW  EP  OW  HW  HW  EP  OW  HW  HW  EP  OW  HW  HW  EP  OW  HW  HW  EP  OW  
HW  HW  EP  OW  HW  HW  EP  OW  HW  HW  EP  OW  HW  HW  EP  OW  HW  HW  EP  OW  
HW  HW  EP  OW  HW  HW  EP  OW  HW  HW  EP  OW  HW  HW  EP  OW  HW  HW  EP  OW  
HW  HW  EP  OW  HW  HW  EP  OW  HW  HW  EP  OW  HW  HW  EP  OW  HW  HW  EP  OW  
HW  HW  EP  OW  HW  HW  EP  OW  HW  HW  EP  OW  HW  HW  EP  OW  HW  HW  EP  OW  
HW  HW  EP  OW  HW  HW  EP  OW  HW  HW  EP  OW  HW  HW  EP  OW  HW  HW  EP  OW  
HW  HW  EP  OW  HW  HW  EP  OW  HW  HW  EP  OW  HW  HW  EP  OW  HW  HW  EP  OW  
HW  HW  EP  OW  HW  HW  EP  OW  HW  HW  EP  OW  HW  HW  EP  OW  HW  HW  EP  OW  
HW  HW  EP  OW  HW  HW  EP  OW  HW  HW  EP  OW  HW  HW  EP  OW  HW  HW  EP  OW  
HW  HW  EP  OW  HW  HW  EP  OW  HW  HW  EP  OW  HW  HW  EP  OW  HW  HW  EP  OW  
HW  HW  EP  OW  HW  HW  EP  OW  HW  HW  EP  OW  HW  HW  EP  OW  HW  HW  EP  OW  
HW  HW  EP  OW  HW  HW  EP  OW  HW  HW  EP  OW  HW  HW  EP  OW  HW  HW  EP  OW  
HW  HW  EP  OW  HW  HW  EP  OW  HW  HW  EP  OW  HW  HW  EP  OW  HW  HW  EP  OW  
HW  HW  EP  OW  HW  HW  EP  OW  HW  HW  EP  OW  HW  HW  EP  OW  HW  HW  EP  OW  
HW  HW  EP  OW  HW  HW  EP  OW  HW  HW  EP  OW  HW  HW  EP  OW  HW  HW  EP  OW  
HW  HW  EP  OW  HW  HW  EP  OW  HW  HW  EP  OW  HW  HW  EP  OW  HW  HW  EP  OW  
HW  HW  EP  OW  HW  HW  EP  OW  HW  HW  EP  OW  HW  HW  EP  OW  HW  HW  EP  OW  
HW  HW  EP  OW  HW  HW  EP  OW  HW  HW  EP  OW  HW  HW  EP  OW  HW  HW  EP  OW  
HW  HW  EP  OW  HW  HW  EP  OW  HW  HW  EP  OW  HW  HW  EP  OW  HW  HW  EP  OW  
HW  HW  EP  OW  HW  HW  EP  OW  HW  HW  EP  OW  HW  HW  EP  OW  HW  HW  EP  OW  
HW  HW  EP  OW  HW  HW  EP  OW  HW  HW  EP  OW  HW  HW  EP  OW  HW  HW  EP  OW  
HW  HW  EP  OW  HW  HW  EP  OW  HW  HW  EP  OW  HW  HW  EP  OW  HW  HW  EP  OW  
HW  HW  EP  OW  HW  HW  EP  OW  HW  HW  EP  OW  HW  HW  EP  OW  HW  HW  EP  OW  
HW  HW  EP  OW  HW  HW  EP  OW  HW  HW  EP  OW  HW  HW  EP  OW  HW  HW  EP  OW  
HW  HW  EP  OW  HW  HW  EP  OW  HW  HW  EP  OW  HW  HW  EP  OW  HW  HW  EP  OW  
HW  HW  EP  OW  HW  HW  EP  OW  HW  HW  EP  OW  HW  HW  EP  OW  HW  HW  EP  OW  
HW  HW  EP  OW  HW  HW  EP  OW  HW  HW  EP  OW  HW  HW  EP  OW  HW  HW  EP  OW  
HW  HW  EP  OW  HW  HW  EP  OW  HW  HW  EP  OW  HW  HW  EP  OW  HW  HW  EP  OW  
HW  HW  EP  OW  HW  HW  EP  OW  HW  HW  EP  OW  HW  HW  EP  OW  HW  HW  EP  OW  
HW  HW  EP  OW  HW  HW  EP  OW  HW  HW  EP  OW  HW  HW  EP  OW  HW  HW  EP  OW  
HW  HW  EP  OW  HW  HW  EP  OW  HW  HW  EP  OW  HW  HW  EP  OW  HW  HW  EP  OW  
HW  HW  EP  OW  HW  HW  EP  OW  HW  HW  EP  OW  HW  HW  EP  OW  HW  HW  EP  OW  
HW  HW  EP  OW  HW  HW  EP  OW  HW  HW  EP  OW  HW  HW  EP  OW  HW  HW  EP  OW  
HW  HW  EP  OW  HW  HW  EP  OW  HW  HW  EP  OW  HW  HW  EP  OW  HW  HW  EP  OW  
HW  HW  EP  OW  HW  HW  EP  OW  HW  HW  EP  OW  HW  HW  EP  OW  HW  HW  EP  OW  
HW  HW  EP  OW  HW  HW  EP  OW  HW  HW  EP  OW  HW  HW  EP  OW  HW  HW  EP  OW  
HW  HW  EP  OW  HW  HW  EP  OW  HW  HW  EP  OW  HW  HW  EP  OW  HW  HW  EP  OW  
HW  HW  EP  OW  HW  HW  EP  OW  HW  HW  EP  OW  HW  HW  EP  OW  HW  HW  EP  OW  
HW  HW  EP  OW  HW  HW  EP  OW  HW  HW  EP  OW  HW  HW  EP  OW  HW  HW  EP  OW  
HW  HW  EP  OW  HW  HW  EP  OW  HW  HW  EP  OW  HW  HW  EP  OW  HW  HW  EP  OW  
HW  HW  EP  OW  HW  HW  EP  OW  HW  HW  EP  OW  HW  HW  EP  OW  HW  HW  EP  OW  
HW  HW  EP  OW  HW  HW  EP  OW  HW  HW  EP  OW  HW  HW  EP  OW  HW  HW  EP  OW  
HW  HW  EP  OW  HW  HW  EP  OW  HW  HW  EP  OW  HW  HW  EP  OW  HW  HW  EP  OW  
HW  HW  EP  OW  HW  HW  EP  OW  HW  HW  EP  OW  HW  HW  EP  OW  HW  HW  EP  OW  
HW  HW  EP  OW  HW  HW  EP  OW  HW  HW  EP  OW  HW  HW  EP  OW  HW  HW  EP  OW  
HW  HW  EP  OW  HW  HW  EP  OW  HW  HW  EP  OW  HW  HW  EP  OW  HW  HW  EP  OW  
HW  HW  EP  OW  HW  HW  EP  OW  HW  HW  EP  OW  HW  HW  EP  OW  HW  HW  EP  OW  
HW  HW  EP  OW  HW  HW  EP  OW  HW  HW  EP  OW  HW  HW  EP  OW  HW  HW  EP  OW  
HW  HW  EP  OW  HW  HW  EP  OW  HW  HW  EP  OW  HW  HW  EP  OW  HW  HW  EP  OW  
HW  HW  EP  OW  HW  HW  EP  OW  HW  HW  EP  OW  HW  HW  EP  OW  HW  HW  EP  OW  
HW  HW  EP  OW  HW  HW  EP  OW  HW  HW  EP  OW  HW  HW  EP  OW  HW  HW  EP  OW  
HW  HW  EP  OW  HW  HW  EP  OW  HW  HW  EP  OW  HW  HW  EP  OW  HW  HW  EP  OW  
HW  HW  EP  OW  HW  HW  EP  OW  HW  HW  EP  OW  HW  HW  EP  OW  HW  HW  EP  OW  
HW  HW  EP  OW  HW  HW  EP  OW  HW  HW  EP  OW  HW  HW  EP  OW  HW  HW  EP  OW  
HW  HW  EP  OW  HW  HW  EP  OW  HW  HW  EP  OW  HW  HW  EP  OW  HW  HW  EP  OW  
HW  HW  EP  OW  HW  HW  EP  OW  HW  HW  EP  OW  HW  HW  EP  OW  HW  HW  EP  OW  
HW  HW  EP  OW  HW  HW  EP  OW  HW  HW  EP  OW  HW  HW  EP  OW  HW  HW  EP  OW  
HW  HW  EP  OW  HW  HW  EP  OW  HW  HW  EP  OW  HW  HW  EP  OW  HW  HW  EP  OW  
HW  HW  EP  OW  HW  HW  EP  OW  HW  HW  EP  OW  HW  HW  EP  OW  HW  HW  EP  OW  
HW  HW  EP  OW  HW  HW  EP  OW  HW  HW  EP  OW  HW  HW  EP  OW  HW  HW  EP  OW  
HW  HW  EP  OW  HW  HW  EP  OW  HW  HW  EP  OW  HW  HW  EP  OW  HW  HW  EP  OW  
HW  HW  EP  OW  HW  HW  EP  OW  HW  HW  EP  OW  HW  HW  EP  OW  HW  HW  EP  OW  
HW  HW  EP  OW  HW  HW  EP  OW  HW  HW  EP  OW  HW  HW  EP  OW  HW  HW  EP  OW  
HW  HW  EP  OW  HW  HW  EP  OW  HW  HW  EP  OW  HW  HW  EP  OW  HW  HW  EP  OW  
HW  HW  EP  OW  HW  HW  EP  OW  HW  HW  EP  OW  HW  HW  EP  OW  HW  HW  EP  OW  
HW  HW  EP  OW  HW  HW  EP  OW  HW  HW  EP  OW  HW  HW  EP  OW  HW  HW  EP  OW  
HW  HW  EP  OW  HW  HW  EP  OW  HW  HW  EP  OW  HW  HW  EP  OW  HW  HW  EP  OW  
HW  HW  EP  OW  HW  HW  EP  OW  HW  HW  EP  OW  HW  HW  EP  OW  HW  HW  EP  OW  
HW  HW  EP  OW  HW  HW  EP  OW  HW  HW  EP  OW  HW  HW  EP  OW  HW  HW  EP  OW  
HW  HW  EP  OW  HW  HW  EP  OW  HW  HW  EP  OW  HW  HW  EP  OW  HW  HW  EP  OW  
HW  HW  EP  OW  HW  HW  EP  OW  HW  HW  EP  OW  HW  HW  EP  OW  HW  HW  EP  OW  
HW  HW  EP  OW  HW  HW  EP  OW  HW  HW  EP  OW  HW  HW  EP  OW  HW  HW  EP  OW  
HW  HW  EP  OW  HW  HW  EP  OW  HW  HW  EP  OW  HW  HW  EP  OW  HW  HW  EP  OW  
HW  HW  EP  OW  HW  HW  EP  OW  HW  HW  EP  OW  HW  HW  EP  OW  HW  HW  EP  OW  
HW  HW  EP  OW  HW  HW  EP  OW  HW  HW  EP  OW  HW  HW  EP  OW  HW  HW  EP  OW  
HW  HW  EP  OW  HW  HW  EP  OW  HW  HW  EP  OW  HW  HW  EP  OW  HW  HW  EP  OW  
HW  HW  EP  OW  HW  HW  EP  OW  HW  HW  EP  OW  HW  HW  EP  OW  HW  HW  EP  OW  
HW  HW  EP  OW  HW  HW  EP  OW  HW  HW  EP  OW  HW  HW  EP  OW  HW  HW  EP  OW  
HW  HW  EP  OW  HW  HW  EP  OW  HW  HW  EP  OW  HW  HW  EP  OW  HW  HW  EP  OW  
HW  HW  EP  OW  HW  HW  EP  OW  HW  HW  EP  OW  HW  HW  EP  OW  HW  HW  EP  OW  
HW  HW  EP  OW  HW  HW  EP  OW  HW  HW  EP  OW  HW  HW  EP  OW  HW  HW  EP  OW  
HW  HW  EP  OW  HW  HW  EP  OW  HW  HW  EP  OW  HW  HW  EP  OW  HW  HW  EP  OW  
HW  HW  EP  OW  HW  HW  EP  OW  HW  HW  EP  OW  HW  HW  EP  OW  HW  HW  EP  OW  
HW  HW  EP  OW  HW  HW  EP  OW  HW  HW  EP  OW  HW  HW  EP  OW  HW  HW  EP  OW  
HW  HW  EP  OW  HW  HW  EP  OW  HW  HW  EP  OW  HW  HW  EP  OW  HW  HW  EP  OW  
HW  HW  EP  OW  HW  HW  EP  OW  HW  HW  EP  OW  HW  HW  EP  OW  HW  HW  EP  OW  
HW  HW  EP  OW  HW  HW  EP  OW  HW  HW  EP  OW  HW  HW  EP  OW  HW  HW  EP  OW  
HW  HW  EP  OW  HW  HW  EP  OW  HW  HW  EP  OW  HW  HW  EP  OW  HW  HW  EP  OW  
HW  HW  EP  OW  HW  HW  EP  OW  HW  HW  EP  OW  HW  HW  EP  OW  HW  HW  EP  OW  
HW  HW  EP  OW  HW  HW  EP  OW  HW  HW  EP  OW  HW  HW  EP  OW  HW  HW  EP  OW  
HW  HW  EP  OW  HW  HW  EP  OW  HW  HW  EP  OW  HW  HW  EP  OW  HW  HW  EP  OW  
HW  HW  EP  OW  HW  HW  EP  OW  HW  HW  EP  OW  HW  HW  EP  OW  HW  HW  EP  OW  
HW  HW  EP  OW  HW  HW  EP  OW  HW  HW  EP  OW  HW  HW  EP  OW  HW  HW  EP  OW  
HW  HW  EP  OW  HW  HW  EP  OW  HW  HW  EP  OW  HW  HW  EP  OW  HW  HW  EP  OW  
HW  HW  EP  OW  HW  HW  EP  OW  HW  HW  EP  OW  HW  HW  EP  OW  HW  HW  EP  OW  
HW  HW  EP  OW  HW  HW  EP  OW  HW  HW  EP  OW  HW  HW  EP  OW  HW  HW  EP  OW  
HW  HW  EP  OW  HW  HW  EP  OW  HW  HW  EP  OW  HW  HW  EP  OW  HW  HW  EP  OW  
HW  HW  EP  OW  HW  HW  EP  OW  HW  HW  EP  OW  HW  HW  EP  OW  HW  HW  EP  OW  
HW  HW  EP  OW  HW  HW  EP  OW  HW  HW  EP  OW  HW  HW  EP  OW  HW  HW  EP  OW  
HW  HW  EP  OW  HW  HW  EP  OW  HW  HW  EP  OW  HW  HW  EP  OW  HW  HW  EP  OW  
HW  HW  EP  OW  HW  HW  EP  OW  HW  HW  EP  OW  HW  HW  EP  OW  HW  HW  EP  OW  
HW  HW  EP  OW  HW  HW  EP  OW  HW  HW  EP  OW  HW  HW  EP  OW  HW  HW  EP  OW  
HW  HW  EP  OW  HW  HW  EP  OW  HW  HW  EP  OW  HW  HW  EP  OW  HW  HW  EP  OW  
HW  HW  EP  OW  HW  HW  EP  OW  HW  HW  EP  OW  HW  HW  EP  OW  HW  HW  EP  OW  
HW  HW  EP  OW  HW  HW  EP  OW  HW  HW  EP  OW  HW  HW  EP  OW  HW  HW  EP  OW  
HW  HW  EP  OW  HW  HW  EP  OW  HW  HW  EP  OW  HW  HW  EP  OW  HW  HW  EP  OW  
HW  HW  EP  OW  HW  HW  EP  OW  HW  HW  EP  OW  HW  HW  EP  OW  HW  HW  EP  OW  
HW  HW  EP  OW  HW  HW  EP  OW  HW  HW  EP  OW  HW  HW  EP  OW  HW  HW  EP  OW  
HW  HW  EP  OW  HW  HW  EP  OW  HW  HW  EP  OW  HW  HW  EP  OW  HW  HW  EP  OW  
HW  HW  EP  OW  HW  HW  EP  OW  HW  HW  EP  OW  HW  HW  EP  OW  HW  HW  EP  OW  
HW  HW  EP  OW  HW  HW  EP  OW  HW  HW  EP  OW  HW  HW  EP  OW  HW  HW  EP  OW  
HW  HW  EP  OW  HW  HW  EP  OW  HW  HW  EP  OW  HW  HW  EP  OW  HW  HW  EP  OW  
HW  HW  EP  OW  HW  HW  EP  OW  HW  HW  EP  OW  HW  HW  EP  OW  HW  HW  EP  OW  
HW  HW  EP  OW  HW  HW  EP  OW  HW  HW  EP  OW  HW  HW  EP  OW  HW  HW  EP  OW  
HW  HW  EP  OW  HW  HW  EP  OW  HW  HW  EP  OW  HW  HW  EP  OW  HW  HW  EP  OW  
HW  HW  EP  OW  HW  HW  EP  OW  HW  HW  EP  OW  HW  HW  EP  OW  HW  HW  EP  OW  
HW  HW  EP  OW  HW  HW  EP  OW  HW  HW  EP  OW  HW  HW  EP  OW  HW  HW  EP  OW  
HW  HW  EP  OW  HW  HW  EP  OW  HW  HW  EP  OW  HW  HW  EP  OW  HW  HW  EP  OW  
HW  HW  EP  OW  HW  HW  EP  OW  HW  HW  EP  OW  HW  HW  EP  OW  HW  HW  EP  OW  
HW  HW  EP  OW  HW  HW  EP  OW  HW  HW  EP  OW  HW  HW  EP  OW  HW  HW  EP  OW  
HW  HW  EP  OW  HW  HW  EP  OW  HW  HW  EP  OW  HW  HW  EP  OW  HW  HW  EP  OW  
HW  HW  EP  OW  HW  HW  EP  OW  HW  HW  EP  OW  HW  HW  EP  OW  HW  HW  EP  OW  
HW  HW  EP  OW  HW  HW  EP  OW  HW  HW  EP  OW  HW  HW  EP  OW  HW  HW  EP  OW  
HW  HW  EP  OW  HW  HW  EP  OW  HW  HW  EP  OW  HW  HW  EP  OW  HW  HW  EP  OW  
HW  HW  EP  OW  HW  HW  EP  OW  HW  HW  EP  OW  HW  HW  EP  OW  HW  HW  EP  OW  
HW  HW  EP  OW  HW  HW  EP  OW  HW  HW  EP  OW  HW  HW  EP  OW  HW  HW  EP  OW  
HW  HW  EP  OW  HW  HW  EP  OW  HW  HW  EP  OW  HW  HW  EP  OW  HW  HW  EP  OW  
HW  HW  EP  OW  HW  HW  EP  OW  HW  HW  EP  OW  HW  HW  EP  OW  HW  HW  EP  OW  
HW  HW  EP  OW  HW  HW  EP  OW  HW  HW  EP  OW  HW  HW  EP  OW  HW  HW  EP  OW  
HW  HW  EP  OW  HW  HW  EP  OW  HW  HW  EP  OW  HW  HW  EP  OW  HW  HW  EP  OW  
HW  HW  EP  OW  HW  HW  EP  OW  HW  HW  EP  OW  HW  HW  EP  OW  HW  HW  EP  OW  
HW  HW  EP  OW  HW  HW  EP  OW  HW  HW  EP  OW  HW  HW  EP  OW  HW  HW  EP  OW  
HW  HW  EP  OW  HW  HW  EP  OW  HW  HW  EP  OW  HW  HW  EP  OW  HW  HW  EP  OW  
HW  HW  EP  OW  HW  HW  EP  OW  HW  HW  EP  OW  HW  HW  EP  OW  HW  HW  EP  OW  
HW  HW  EP  OW  HW  HW  EP  OW  HW  HW  EP  OW  HW  HW  EP  OW  HW  HW  EP  OW  
HW  HW  EP  OW  HW  HW  EP  OW  HW  HW  EP  OW  HW  HW  EP  OW  HW  HW  EP  OW  
HW  HW  EP  OW  HW  HW  EP  OW  HW  HW  EP  OW  HW  HW  EP  OW  HW  HW  EP  OW  
HW  HW  EP  OW  HW  HW  EP  OW  HW  HW  EP  OW  HW  HW  EP  OW  HW  HW  EP  OW  
HW  HW  EP  OW  HW  HW  EP  OW  HW  HW  EP  OW  HW  HW  EP  OW  HW  HW  EP  OW  
HW  HW  EP  OW  HW  HW  EP  OW  HW  HW  EP  OW  HW  HW  EP  OW  HW  HW  EP  OW  
HW  HW  EP  OW  HW  HW  EP  OW  HW  HW  EP  OW  HW  HW  EP  OW  HW  HW  EP  OW  
HW  HW  EP  OW  HW  HW  EP  OW  HW  HW  EP  OW  HW  HW  EP  OW  HW  HW  EP  OW  
HW  HW  EP  OW  HW  HW  EP  OW  HW  HW  EP  OW  HW  HW  EP  OW  HW  HW  EP  OW  
HW  HW  EP  OW  HW  HW  EP  OW  HW  HW  EP  OW  HW  HW  EP  OW  HW  HW  EP  OW  
HW  HW  EP  OW  HW  HW  EP  OW  HW  HW  EP  OW  HW  HW  EP  OW  HW  HW  EP  OW  
HW  HW  EP  OW  HW  HW  EP  OW  HW  HW  EP  OW  HW  HW  EP  OW  HW  HW  EP  OW  
HW  HW  EP  OW  HW  HW  EP  OW  HW  HW  EP  OW  HW  HW  EP  OW  HW  HW  EP  OW  
HW  HW  EP  OW  HW  HW  EP  OW  HW  HW  EP  OW  HW  HW  EP  OW  HW  HW  EP  OW  
HW  HW  EP  OW  HW  HW  EP  OW  HW  HW  EP  OW  HW  HW  EP  OW  HW  HW  EP  OW  
HW  HW  EP  OW  HW  HW  EP  OW  HW  HW  EP  OW  HW  HW  EP  OW  HW  HW  EP  OW  
HW  HW  EP  OW  HW  HW  EP  OW  HW  HW  EP  OW  HW  HW  EP  OW  HW  HW  EP  OW  
HW  HW  EP  OW  HW  HW  EP  OW  HW  HW  EP  OW  HW  HW  EP  OW  HW  HW  EP  OW  
HW  HW  EP  OW  HW  HW  EP  OW  HW  HW  EP  OW  HW  HW  EP  OW  HW  HW  EP  OW  
HW  HW  EP  OW  HW  HW  EP  OW  HW  HW  EP  OW  HW  HW  EP  OW  HW  HW  EP  OW  
HW  HW  EP  OW  HW  HW  EP  OW  HW  HW  EP  OW  HW  HW  EP  OW  HW  HW  EP  OW  
HW  HW  EP  OW  HW  HW  EP  OW  HW  HW  EP  OW  HW  HW  EP  OW  HW  HW  EP  OW  
HW  HW  EP  OW  HW  HW  EP  OW  HW  HW  EP  OW  HW  HW  EP  OW  HW  HW  EP  OW  
HW  HW  EP  OW  HW  HW  EP  OW  HW  HW  EP  OW  HW  HW  EP  OW  HW  HW  EP  OW  
HW  HW  EP  OW  HW  HW  EP  OW  HW  HW  EP  OW  HW  HW  EP  OW  HW  HW  EP  OW  
HW  HW  EP  OW  HW  HW  EP  OW  HW  HW  EP  OW  HW  HW  EP  OW  HW  HW  EP  OW  
HW  HW  EP  OW  HW  HW  EP  OW  HW  HW  EP  OW  HW  HW  EP  OW  HW  HW  EP  OW  
HW  HW  EP  OW  HW  HW  EP  OW  HW  HW  EP  OW  HW  HW  EP  OW  HW  HW  EP  OW  
HW  HW  EP  OW  HW  HW  EP  OW  HW  HW  EP  OW  HW  HW  EP  OW  HW  HW  EP  OW  
HW  HW  EP  OW  HW  HW  EP  OW  HW  HW  EP  OW  HW  HW  EP  OW  HW  HW  EP  OW  
HW  HW  EP  OW  HW  HW  EP  OW  HW  HW  EP  OW  HW  HW  EP  OW  HW  HW  EP  OW  
HW  HW  EP  OW  HW  HW  EP  OW  HW  HW  EP  OW  HW  HW  EP  OW  HW  HW  EP  OW  
HW  HW  EP  OW  HW  HW  EP  OW  HW  HW  EP  OW  HW  HW  EP  OW  HW  HW  EP  OW  
HW  HW  EP  OW  HW  HW  EP  OW  HW  HW  EP  OW  HW  HW  EP  OW  HW  HW  EP  OW  
HW  HW  EP  OW  HW  HW  EP  OW  HW  HW  EP  OW  HW  HW  EP  OW  HW  HW  EP  OW  
HW  HW  EP  OW  HW  HW  EP  OW  HW  HW  EP  OW  HW  HW  EP  OW  HW  HW  EP  OW  
HW  HW  EP  OW  HW  HW  EP  OW  HW  HW  EP  OW  HW  HW  EP  OW  HW  HW  EP  OW  
HW  HW  EP  OW  HW  HW  EP  OW  HW  HW  EP  OW  HW  HW  EP  OW  HW  HW  EP  OW  
HW  HW  EP  OW  HW  HW  EP  OW  HW  HW  EP  OW  HW  HW  EP  OW  HW  HW  EP  OW  
HW  HW  EP  OW  HW  HW  EP  OW  HW  HW  EP  OW  HW  HW  EP  OW  HW  HW  EP  OW  
HW  HW  EP  OW  HW  HW  EP  OW  HW  HW  EP  OW  HW  HW  EP  OW  HW  HW  EP  OW  
HW  HW  EP  OW  HW  HW  EP  OW  HW  HW  EP  OW  HW  HW  EP  OW  HW  HW  EP  OW  
HW  HW  EP  OW  HW  HW  EP  OW  HW  HW  EP  OW  HW  HW  EP  OW  HW  HW  EP  OW  
HW  HW  EP  OW  HW  HW  EP  OW  HW  HW  EP  OW  HW  HW  EP  OW  HW  HW  EP  OW  
HW  HW  EP  OW  HW  HW  EP  OW  HW  HW  EP  OW  HW  HW  EP  OW  HW  HW  EP  OW  
HW  HW  EP  OW  HW  HW  EP  OW  HW  HW  EP  OW  HW  HW  EP  OW  HW  HW  EP  OW  
HW  HW  EP  OW  HW  HW  EP  OW  HW  HW  EP  OW  HW  HW  EP  OW  HW  HW  EP  OW  
HW  HW  EP  OW  HW  HW  EP  OW  HW  HW  EP  OW  HW  HW  EP  OW  HW  HW  EP  OW  
HW  HW  EP  OW  HW  HW  EP  OW  HW  HW  EP  OW  HW  HW  EP  OW  HW  HW  EP  OW  
HW  HW  EP  OW  HW  HW  EP  OW  HW  HW  EP  OW  HW  HW  EP  OW  HW  HW  EP  OW  
HW  HW  EP  OW  HW  HW  EP  OW  HW  HW  EP  OW  HW  HW  EP  OW  HW  HW  EP  OW  
HW  HW  EP  OW  HW  HW  EP  OW  HW  HW  EP  OW  HW  HW  EP  OW  HW  HW  EP  OW  
HW  HW  EP  OW  HW  HW  EP  OW  HW  HW  EP  OW  HW  HW  EP  OW  HW  HW  EP  OW  
HW  HW  EP  OW  HW  HW  EP  OW  HW  HW  EP  OW  HW  HW  EP  OW  HW  HW  EP  OW  
HW  HW  EP  OW  HW  HW  EP  OW  HW  HW  EP  OW  HW  HW  EP  OW  HW  HW  EP  OW  
HW  HW  EP  OW  HW  HW  EP  OW  HW  HW  EP  OW  HW  HW  EP  OW  HW  HW  EP  OW  
HW  HW  EP  OW  HW  HW  EP  OW  HW  HW  EP  OW  HW  HW  EP  OW  HW  HW  EP  OW  
HW  HW  EP  OW  HW  HW  EP  OW  HW  HW  EP  OW  HW  HW  EP  OW  HW  HW  EP  OW  
HW  HW  EP  OW  HW  HW  EP  OW  HW  HW  EP  OW  HW  HW  EP  OW  HW  HW  EP  OW  
HW  HW  EP  OW  HW  HW  EP  OW  HW  HW  EP  OW  HW  HW  EP  OW  HW  HW  EP  OW  
HW  HW  EP  OW  HW  HW  EP  OW  HW  HW  EP  OW  HW  HW  EP  OW  HW  HW  EP  OW  
HW  HW  EP  OW  HW  HW  EP  OW  HW  HW  EP  OW  HW  HW  EP  OW  HW  HW  EP  OW  
HW  HW  EP  OW  HW  HW  EP  OW  HW  HW  EP  OW  HW  HW  EP  OW  HW  HW  EP  OW  
HW  HW  EP  OW  HW  HW  EP  OW  HW  HW  EP  OW  HW  HW  EP  OW  HW  HW  EP  OW  
HW  HW  EP  OW  HW  HW  EP  OW  HW  HW  EP  OW  HW  HW  EP  OW  HW  HW  EP  OW  
HW  HW  EP  OW  HW  HW  EP  OW  HW  HW  EP  OW  HW  HW  EP  OW  HW  HW  EP  OW  
HW  HW  EP  OW  HW  HW  EP  OW  HW  HW  EP  OW  HW  HW  EP  OW  HW  HW  EP  OW  
HW  HW  EP  OW  HW  HW  EP  OW  HW  HW  EP  OW  HW  HW  EP  OW  HW  HW  EP  OW  
HW  HW  EP  OW  HW  HW  EP  OW  HW  HW  EP  OW  HW  HW  EP  OW  HW  HW  EP  OW  
HW  HW  EP  OW  HW  HW  EP  OW  HW  HW  EP  OW  HW  HW  EP  OW  HW  HW  EP  OW  
HW  HW  EP  OW  HW  HW  EP  OW  HW  HW  EP  OW  HW  HW  EP  OW  HW  HW  EP  OW  
HW  HW  EP  OW  HW  HW  EP  OW  HW  HW  EP  OW  HW  HW  EP  OW  HW  HW  EP  OW  
HW  HW  EP  OW  HW  HW  EP  OW  HW  HW  EP  OW  HW  HW  EP  OW  HW  HW  EP  OW  
HW  HW  EP  OW  HW  HW  EP  OW  HW  HW  EP  OW  HW  HW  EP  OW  HW  HW  EP  OW  
HW  HW  EP  OW  HW  HW  EP  OW  HW  HW  EP  OW  HW  HW  EP  OW  HW  HW  EP  OW  
HW  HW  EP  OW  HW  HW  EP  OW  HW  HW  EP  OW  HW  HW  EP  OW  HW  HW  EP  OW  
HW  HW  EP  OW  HW  HW  EP  OW  HW  HW  EP  OW  HW  HW  EP  OW  HW  HW  EP  OW  
HW  HW  EP  OW  HW  HW  EP  OW  HW  HW  EP  OW  HW  HW  EP  OW  HW  HW  EP  OW  
HW  HW  EP  OW  HW  HW  EP  OW  HW  HW  EP  OW  HW  HW  EP  OW  HW  HW  EP  OW  
HW  HW  EP  OW  HW  HW  EP  OW  HW  HW  EP  OW  HW  HW  EP  OW  HW  HW  EP  OW  
HW  HW  EP  OW  HW  HW  EP  OW  HW  HW  EP  OW  HW  HW  EP  OW  HW  HW  EP  OW  
HW  HW  EP  OW  HW  HW  EP  OW  HW  HW  EP  OW  HW  HW  EP  OW  HW  HW  EP  OW  
HW  HW  EP  OW  HW  HW  EP  OW  HW  HW  EP  OW  HW  HW  EP  OW  HW  HW  EP  OW  
HW  HW  EP  OW  HW  HW  EP  OW  HW  HW  EP  OW  HW  HW  EP  OW  HW  HW  EP  OW  
HW  HW  EP  OW  HW  HW  EP  OW  HW  HW  EP  OW  HW  HW  EP  OW  HW  HW  EP  OW  
HW  HW  EP  OW  HW  HW  EP  OW  HW  HW  EP  OW  HW  HW  EP  OW  HW  HW  EP  OW  
HW  HW  EP  OW  HW  HW  EP  OW  HW  HW  EP  OW  HW  HW  EP  OW  HW  HW  EP  OW  
HW  HW  EP  OW  HW  HW  EP  OW  HW  HW  EP  OW  HW  HW  EP  OW  HW  HW  EP  OW  
HW  HW  EP  OW  HW  HW  EP  OW  HW  HW  EP  OW  HW  HW  EP  OW  HW  HW  EP  OW  
HW  HW  EP  OW  HW  HW  EP  OW  HW  HW  EP  OW  HW  HW  EP  OW  HW  HW  EP  OW  
HW  HW  EP  OW  HW  HW  EP  OW  HW  HW  EP  OW  HW  HW  EP  OW  HW  HW  EP  OW  
HW  HW  EP  OW  HW  HW  EP  OW  HW  HW  EP  OW  HW  HW  EP  OW  HW  HW  EP  OW  
HW  HW  EP  OW  HW  HW  EP  OW  HW  HW  EP  OW  HW  HW  EP  OW  HW  HW  EP  OW  
HW  HW  EP  OW  HW  HW  EP  OW  HW  HW  EP  OW  HW  HW  EP  OW  HW  HW  EP  OW  
HW  HW  EP  OW  HW  HW  EP  OW  HW  HW  EP  OW  HW  HW  EP  OW  HW  HW  EP  OW  
HW  HW  EP  OW  HW  HW  EP  OW  HW  HW  EP  OW  HW  HW  EP  OW  HW  HW  EP  OW  
HW  HW  EP  OW  HW  HW  EP  OW  HW  HW  EP  OW  HW  HW  EP  OW  HW  HW  EP  OW  
HW  HW  EP  OW  HW  HW  EP  OW  HW  HW  EP  OW  HW  HW  EP  OW  HW  HW  EP  OW  
HW  HW  EP  OW  HW  HW  EP  OW  HW  HW  EP  OW  HW  HW  EP  OW  HW  HW  EP  OW  
HW  HW  EP  OW  HW  HW  EP  OW  HW  HW  EP  OW  HW  HW  EP  OW  HW  HW  EP  OW  
HW  HW  EP  OW  HW  HW  EP  OW  HW  HW  EP  OW  HW  HW  EP  OW  HW  HW  EP  OW  
HW  HW  EP  OW  HW  HW  EP  OW  HW  HW  EP  OW  HW  HW  EP  OW  HW  HW  EP  OW  
HW  HW  EP  OW  HW  HW  EP  OW  HW  HW  EP  OW  HW  HW  EP  OW  HW  HW  EP  OW  
HW  HW  EP  OW  HW  HW  EP  OW  HW  HW  EP  OW  HW  HW  EP  OW  HW  HW  EP  OW  
HW  HW  EP  OW  HW  HW  EP  OW  HW  HW  EP  OW  HW  HW  EP  OW  HW  HW  EP  OW  
HW  HW  EP  OW  HW  HW  EP  OW  HW  HW  EP  OW  HW  HW  EP  OW  HW  HW  EP  OW  
HW  HW  EP  OW  HW  HW  EP  OW  HW  HW  EP  OW  HW  HW  EP  OW  HW  HW  EP  OW  
HW  HW  EP  OW  HW  HW  EP  OW  HW  HW  EP  OW  HW  HW  EP  OW  HW  HW  EP  OW  
HW  HW  EP  OW  HW  HW  EP  OW  HW  HW  EP  OW  HW  HW  EP  OW  HW  HW  EP  OW  
HW  HW  EP  OW  HW  HW  EP  OW  HW  HW  EP  OW  HW  HW  EP  OW  HW  HW  EP  OW  
HW  HW  EP  OW  HW  HW  EP  OW  HW  HW  EP  OW  HW  HW  EP  OW  HW  HW  EP  OW  
HW  HW  EP  OW  HW  HW  EP  OW  HW  HW  EP  OW  HW  HW  EP  OW  HW  HW  EP  OW  
HW  HW  EP  OW  HW  HW  EP  OW  HW  HW  EP  OW  HW  HW  EP  OW  HW  HW  EP  OW  
HW  HW  EP  OW  HW  HW  EP  OW  HW  HW  EP  OW  HW  HW  EP  OW  HW  HW  EP  OW  
HW  HW  EP  OW  HW  HW  EP  OW  HW  HW  EP  OW  HW  HW  EP  OW  HW  HW  EP  OW  
HW  HW  EP  OW  HW  HW  EP  OW  HW  HW  EP  OW  HW  HW  EP  OW  HW  HW  EP  OW  
HW  HW  EP  OW  HW  HW  EP  OW  HW  HW  EP  OW  HW  HW  EP  OW  HW  HW  EP  OW  
HW  HW  EP  OW  HW  HW  EP  OW  HW  HW  EP  OW  HW  HW  EP  OW  HW  HW  EP  OW  
HW  HW  EP  OW  HW  HW  EP  OW  HW  HW  EP  OW  HW  HW  EP  OW  HW  HW  EP  OW  
HW  HW  EP  OW  HW  HW  EP  OW  HW  HW  EP  OW  HW  HW  EP  OW  HW  HW  EP  OW  
HW  HW  EP  OW  HW  HW  EP  OW  HW  HW  EP  OW  HW  HW  EP  OW  HW  HW  EP  OW  
HW  HW  EP  OW  HW  HW  EP  OW  HW  HW  EP  OW  HW  HW  EP  OW  HW  HW  EP  OW  
HW  HW  EP  OW  HW  HW  EP  OW  HW  HW  EP  OW  HW  HW  EP  OW  HW  HW  EP  OW  
HW  HW  EP  OW  HW  HW  EP  OW  HW  HW  EP  OW  HW  HW  EP  OW  HW  HW  EP  OW  
HW  HW  EP  OW  HW  HW  EP  OW  HW  HW  EP  OW  HW  HW  EP  OW  HW  HW  EP  OW  
HW  HW  EP  OW  HW  HW  EP  OW  HW  HW  EP  OW  HW  HW  EP  OW  HW  HW  EP  OW  
HW  HW  EP  OW  HW  HW  EP  OW  HW  HW  EP  OW  HW  HW  EP  OW  HW  HW  EP  OW  
HW  HW  EP  OW  HW  HW  EP  OW  HW  HW  EP  OW  HW  HW  EP  OW  HW  HW  EP  OW  
HW  HW  EP  OW  HW  HW  EP  OW  HW  HW  EP  OW  HW  HW  EP  OW  HW  HW  EP  OW  
HW  HW  EP  OW  HW  HW  EP  OW  HW  HW  EP  OW  HW  HW  EP  OW  HW  HW  EP  OW  
HW  HW  EP  OW  HW  HW  EP  OW  HW  HW  EP  OW  HW  HW  EP  OW  HW  HW  EP  OW  
HW  HW  EP  OW  HW  HW  EP  OW  HW  HW  EP  OW  HW  HW  EP  OW  HW  HW  EP  OW  
HW  HW  EP  OW  HW  HW  EP  OW  HW  HW  EP  OW  HW  HW  EP  OW  HW  HW  EP  OW  
HW  HW  EP  OW  HW  HW  EP  OW  HW  HW  EP  OW  HW  HW  EP  OW  HW  HW  EP  OW  
HW  HW  EP  OW  HW  HW  EP  OW  HW  HW  EP  OW  HW  HW  EP  OW  HW  HW  EP  OW  
HW  HW  EP  OW  HW  HW  EP  OW  HW  HW  EP  OW  HW  HW  EP  OW  HW  HW  EP  OW  
HW  HW  EP  OW  HW  HW  EP  OW  HW  HW  EP  OW  HW  HW  EP  OW  HW  HW  EP  OW  
HW  HW  EP  OW  HW  HW  EP  OW  HW  HW  EP  OW  HW  HW  EP  OW  HW  HW  EP  OW  
HW  HW  EP  OW  HW  HW  EP  OW  HW  HW  EP  OW  HW  HW  EP  OW  HW  HW  EP  OW  
HW  HW  EP  OW  HW  HW  EP  OW  HW  HW  EP  OW  HW  HW  EP  OW  HW  HW  EP  OW  
HW  HW  EP  OW  HW  HW  EP  OW  HW  HW  EP  OW  HW  HW  EP  OW  HW  HW  EP  OW  
HW  HW  EP  OW  HW  HW  EP  OW  HW  HW  EP  OW  HW  HW  EP  OW  HW  HW  EP  OW  
HW  HW  EP  OW  HW  HW  EP  OW  HW  HW  EP  OW  HW  HW  EP  OW  HW  HW  EP  OW  
HW  HW  EP  OW  HW  HW  EP  OW  HW  HW  EP  OW  HW  HW  EP  OW  HW  HW  EP  OW  
HW  HW  EP  OW  HW  HW  EP  OW  HW  HW  EP  OW  HW  HW  EP  OW  HW  HW  EP  OW  
HW  HW  EP  OW  HW  HW  EP  OW  HW  HW  EP  OW  HW  HW  EP  OW  HW  HW  EP  OW  
HW  HW  EP  OW  HW  HW  EP  OW  HW  HW  EP  OW  HW  HW  EP  OW  HW  HW  EP  OW  
HW  HW  EP  OW  HW  HW  EP  OW  HW  HW  EP  OW  HW  HW  EP  OW  HW  HW  EP  OW  
HW  HW  EP  OW  HW  HW  EP  OW  HW  HW  EP  OW  HW  HW  EP  OW  HW  HW  EP  OW  
HW  HW  EP  OW  HW  HW  EP  OW  HW  HW  EP  OW  HW  HW  EP  OW  HW  HW  EP  OW  
HW  HW  EP  OW  HW  HW  EP  OW  HW  HW  EP  OW  HW  HW  EP  OW  HW  HW  EP  OW  
HW  HW  EP  OW  HW  HW  EP  OW  HW  HW  EP  OW  HW  HW  EP  OW  HW  HW  EP  OW  
HW  HW  EP  OW  HW  HW  EP  OW  HW  HW  EP  OW  HW  HW  EP  OW  HW  HW  EP  OW  
HW  HW  EP  OW  HW  HW  EP  OW  HW  HW  EP  OW  HW  HW  EP  OW  HW  HW  EP  OW  
HW  HW  EP  OW  HW  HW  EP  OW  HW  HW  EP  OW  HW  HW  EP  OW  HW  HW  EP  OW  
HW  HW  EP  OW  HW  HW  EP  OW  HW  HW  EP  OW  HW  HW  EP  OW  HW  HW  EP  OW  
HW  HW  EP  OW  HW  HW  EP  OW  HW  HW  EP  OW  HW  HW  EP  OW  HW  HW  EP  OW  
HW  HW  EP  OW  HW  HW  EP  OW  HW  HW  EP  OW  HW  HW  EP  OW  HW  HW  EP  OW  
HW  HW  EP  OW  HW  HW  EP  OW  HW  HW  EP  OW  HW  HW  EP  OW  HW  HW  EP  OW  
HW  HW  EP  OW  HW  HW  EP  OW  HW  HW  EP  OW  HW  HW  EP  OW  HW  HW  EP  OW  
HW  HW  EP  OW  HW  HW  EP  OW  HW  HW  EP  OW  HW  HW  EP  OW  HW  HW  EP  OW  
HW  HW  EP  OW  HW  HW  EP  OW  HW  HW  EP  OW  HW  HW  EP  OW  HW  HW  EP  OW  
HW  HW  EP  OW  HW  HW  EP  OW  HW  HW  EP  OW  HW  HW  EP  OW  HW  HW  EP  OW  
HW  HW  EP  OW  HW  HW  EP  OW  HW  HW  EP  OW  HW  HW  EP  OW  HW  HW  EP  OW  
HW  HW  EP  OW  HW  HW  EP  OW  HW  HW  EP  OW  HW  HW  EP  OW  HW  HW  EP  OW  
HW  HW  EP  OW  HW  HW  EP  OW  HW  HW  EP  OW  HW  HW  EP  OW  HW  HW  EP  OW  
HW  HW  EP  OW  HW  HW  EP  OW  HW  HW  EP  OW  HW  HW  EP  OW  HW  HW  EP  OW  
HW  HW  EP  OW  HW  HW  EP  OW  HW  HW  EP  OW  HW  HW  EP  OW  HW  HW  EP  OW  
HW  HW  EP  OW  HW  HW  EP  OW  HW  HW  EP  OW  HW  HW  EP  OW  HW  HW  EP  OW  
HW  HW  EP  OW  HW  HW  EP  OW  HW  HW  EP  OW  HW  HW  EP  OW  HW  HW  EP  OW  
HW  HW  EP  OW  HW  HW  EP  OW  HW  HW  EP  OW  HW  HW  EP  OW  HW  HW  EP  OW  
HW  HW  EP  OW  HW  HW  EP  OW  HW  HW  EP  OW  HW  HW  EP  OW  HW  HW  EP  OW  
HW  HW  EP  OW  HW  HW  EP  OW  HW  HW  EP  OW  HW  HW  EP  OW  HW  HW  EP  OW  
HW  HW  EP  OW  HW  HW  EP  OW  HW  HW  EP  OW  HW  HW  EP  OW  HW  HW  EP  OW  
HW  HW  EP  OW  HW  HW  EP  OW  HW  HW  EP  OW  HW  HW  EP  OW  HW  HW  EP  OW  
HW  HW  EP  OW  HW  HW  EP  OW  HW  HW  EP  OW  HW  HW  EP  OW  HW  HW  EP  OW  
HW  HW  EP  OW  HW  HW  EP  OW  HW  HW  EP  OW  HW  HW  EP  OW  HW  HW  EP  OW  
HW  HW  EP  OW  HW  HW  EP  OW  HW  HW  EP  OW  HW  HW  EP  OW  HW  HW  EP  OW  
HW  HW  EP  OW  HW  HW  EP  OW  HW  HW  EP  OW  HW  HW  EP  OW  HW  HW  EP  OW  
HW  HW  EP  OW  HW  HW  EP  OW  HW  HW  EP  OW  HW  HW  EP  OW  HW  HW  EP  OW  
HW  HW  EP  OW  HW  HW  EP  OW  HW  HW  EP  OW  HW  HW  EP  OW  HW  HW  EP  OW  
HW  HW  EP  OW  HW  HW  EP  OW  HW  HW  EP  OW  HW  HW  EP  OW  HW  HW  EP  OW  
HW  HW  EP  OW  HW  HW  EP  OW  HW  HW  EP  OW  HW  HW  EP  OW  HW  HW  EP  OW  
HW  HW  EP  OW  HW  HW  EP  OW  HW  HW  EP  OW  HW  HW  EP  OW  HW  HW  EP  OW  
HW  HW  EP  OW  HW  HW  EP  OW  HW  HW  EP  OW  HW  HW  EP  OW  HW  HW  EP  OW  
HW  HW  EP  OW  HW  HW  EP  OW  HW  HW  EP  OW  HW  HW  EP  OW  HW  HW  EP  OW  
HW  HW  EP  OW  HW  HW  EP  OW  HW  HW  EP  OW  HW  HW  EP  OW  HW  HW  EP  OW  
HW  HW  EP  OW  HW  HW  EP  OW  HW  HW  EP  OW  HW  HW  EP  OW  HW  HW  EP  OW  
HW  HW  EP  OW  HW  HW  EP  OW  HW  HW  EP  OW  HW  HW  EP  OW  HW  HW  EP  OW  
HW  HW  EP  OW  HW  HW  EP  OW  HW  HW  EP  OW  HW  HW  EP  OW  HW  HW  EP  OW  
HW  HW  EP  OW  HW  HW  EP  OW  HW  HW  EP  OW  HW  HW  EP  OW  HW  HW  EP  OW  
HW  HW  EP  OW  HW  HW  EP  OW  HW  HW  EP  OW  HW  HW  EP  OW  HW  HW  EP  OW  
HW  HW  EP  OW  HW  HW  EP  OW  HW  HW  EP  OW  HW  HW  EP  OW  HW  HW  EP  OW  
HW  HW  EP  OW  HW  HW  EP  OW  HW  HW  EP  OW  HW  HW  EP  OW  HW  HW  EP  OW  
HW  HW  EP  OW  HW  HW  EP  OW  HW  HW  EP  OW  HW  HW  EP  OW  HW  HW  EP  OW  
HW  HW  EP  OW  HW  HW  EP  OW  HW  HW  EP  OW  HW  HW  EP  OW  HW  HW  EP  OW  
HW  HW  EP  OW  HW  HW  EP  OW  HW  HW  EP  OW  HW  HW  EP  OW  HW  HW  EP  OW  
HW  HW  EP  OW  HW  HW  EP  OW  HW  HW  EP  OW  HW  HW  EP  OW  HW  HW  EP  OW  
HW  HW  EP  OW  HW  HW  EP  OW  HW  HW  EP  OW  HW  HW  EP  OW  HW  HW  EP  OW  
HW  HW  EP  OW  HW  HW  EP  OW  HW  HW  EP  OW  HW  HW  EP  OW  HW  HW  EP  OW  
HW  HW  EP  OW  HW  HW  EP  OW  HW  HW  EP  OW  HW  HW  EP  OW  HW  HW  EP  OW  
HW  HW  EP  OW  HW  HW  EP  OW  HW  HW  EP  OW  HW  HW  EP  OW  HW  HW  EP  OW  
HW  HW  EP  OW  HW  HW  EP  OW  HW  HW  EP  OW  HW  HW  EP  OW  HW  HW  EP  OW  
HW  HW  EP  OW  HW  HW  EP  OW  HW  HW  EP  OW  HW  HW  EP  OW  HW  HW  EP  OW  
HW  HW  EP  OW  HW  HW  EP  OW  HW  HW  EP  OW  HW  HW  EP  OW  HW  HW  EP  OW  
HW  HW  EP  OW  HW  HW  EP  OW  HW  HW  EP  OW  HW  HW  EP  OW  HW  HW  EP  OW  
HW  HW  EP  OW  HW  HW  EP  OW  HW  HW  EP  OW  HW  HW  EP  OW  HW  HW  EP  OW  
HW  HW  EP  OW  HW  HW  EP  OW  HW  HW  EP  OW  HW  HW  EP  OW  HW  HW  EP  OW  
HW  HW  EP  OW  HW  HW  EP  OW  HW  HW  EP  OW  HW  HW  EP  OW  HW  HW  EP  OW  
HW  HW  EP  OW  HW  HW  EP  OW  HW  HW  EP  OW  HW  HW  EP  OW  HW  HW  EP  OW  
HW  HW  EP  OW  HW  HW  EP  OW  HW  HW  EP  OW  HW  HW  EP  OW  HW  HW  EP  OW  
HW  HW  EP  OW  HW  HW  EP  OW  HW  HW  EP  OW  HW  HW  EP  OW  HW  HW  EP  OW  
HW  HW  EP  OW  HW  HW  EP  OW  HW  HW  EP  OW  HW  HW  EP  OW  HW  HW  EP  OW  
HW  HW  EP  OW  HW  HW  EP  OW  HW  HW  EP  OW  HW  HW  EP  OW  HW  HW  EP  OW  
HW  HW  EP  OW  HW  HW  EP  OW  HW  HW  EP  OW  HW  HW  EP  OW  HW  HW  EP  OW  
HW  HW  EP  OW  HW  HW  EP  OW  HW  HW  EP  OW  HW  HW  EP  OW  HW  HW  EP  OW  
HW  HW  EP  OW  HW  HW  EP  OW  HW  HW  EP  OW  HW  HW  EP  OW  HW  HW  EP  OW  
HW  HW  EP  OW  HW  HW  EP  OW  HW  HW  EP  OW  HW  HW  EP  OW  HW  HW  EP  OW  
HW  HW  EP  OW  HW  HW  EP  OW  HW  HW  EP  OW  HW  HW  EP  OW  HW  HW  EP  OW  
HW  HW  EP  OW  HW  HW  EP  OW  HW  HW  EP  OW  HW  HW  EP  OW  HW  HW  EP  OW  
HW  HW  EP  OW  HW  HW  EP  OW  HW  HW  EP  OW  HW  HW  EP  OW  HW  HW  EP  OW  
HW  HW  EP  OW  HW  HW  EP  OW  HW  HW  EP  OW  HW  HW  EP  OW  HW  HW  EP  OW  
HW  HW  EP  OW  HW  HW  EP  OW  HW  HW  EP  OW  HW  HW  EP  OW  HW  HW  EP  OW  
HW  HW  EP  OW  HW  HW  EP  OW  HW  HW  EP  OW  HW  HW  EP  OW  HW  HW  EP  OW  
HW  HW  EP  OW  HW  HW  EP  OW  HW  HW  EP  OW  HW  HW  EP  OW  HW  HW  EP  OW  
HW  HW  EP  OW  HW  HW  EP  OW  HW  HW  EP  OW  HW  HW  EP  OW  HW  HW  EP  OW  
HW  HW  EP  OW  HW  HW  EP  OW  HW  HW  EP  OW  HW  HW  EP  OW  HW  HW  EP  OW  
HW  HW  EP  OW  HW  HW  EP  OW  HW  HW  EP  OW  HW  HW  EP  OW  HW  HW  EP  OW  
HW  HW  EP  OW  HW  HW  EP  OW  HW  HW  EP  OW  HW  HW  EP  OW  HW  HW  EP  OW  
HW  HW  EP  OW  HW  HW  EP  OW  HW  HW  EP  OW  HW  HW  EP  OW  HW  HW  EP  OW  
HW  HW  EP  OW  HW  HW  EP  OW  HW  HW  EP  OW  HW  HW  EP  OW  HW  HW  EP  OW  
HW  HW  EP  OW  HW  HW  EP  OW  HW  HW  EP  OW  HW  HW  EP  OW  HW  HW  EP  OW  
HW  HW  EP  OW  HW  HW  EP  OW  HW  HW  EP  OW  HW  HW  EP  OW  HW  HW  EP  OW  
HW  HW  EP  OW  HW  HW  EP  OW  HW  HW  EP  OW  HW  HW  EP  OW  HW  HW  EP  OW  
HW  HW  EP  OW  HW  HW  EP  OW  HW  HW  EP  OW  HW  HW  EP  OW  HW  HW  EP  OW  
HW  HW  EP  OW  HW  HW  EP  OW  HW  HW  EP  OW  HW  HW  EP  OW  HW  HW  EP  OW  
HW  HW  EP  OW  HW  HW  EP  OW  HW  HW  EP  OW  HW  HW  EP  OW  HW  HW  EP  OW  
HW  HW  EP  OW  HW  HW  EP  OW  HW  HW  EP  OW  HW  HW  EP  OW  HW  HW  EP  OW  
HW  HW  EP  OW  HW  HW  EP  OW  HW  HW  EP  OW  HW  HW  EP  OW  HW  HW  EP  OW  
HW  HW  EP  OW  HW  HW  EP  OW  HW  HW  EP  OW  HW  HW  EP  OW  HW  HW  EP  OW  
HW  HW  EP  OW  HW  HW  EP  OW  HW  HW  EP  OW  HW  HW  EP  OW  HW  HW  EP  OW  
HW  HW  EP  OW  HW  HW  EP  OW  HW  HW  EP  OW  HW  HW  EP  OW  HW  HW  EP  OW  
HW  HW  EP  OW  HW  HW  EP  OW  HW  HW  EP  OW  HW  HW  EP  OW  HW  HW  EP  OW  
HW  HW  EP  OW  HW  HW  EP  OW  HW  HW  EP  OW  HW  HW  EP  OW  HW  HW  EP  OW  
HW  HW  EP  OW  HW  HW  EP  OW  HW  HW  EP  OW  HW  HW  EP  OW  HW  HW  EP  OW  
HW  HW  EP  OW  HW  HW  EP  OW  HW  HW  EP  OW  HW  HW  EP  OW  HW  HW  EP  OW  
HW  HW  EP  OW  HW  HW  EP  OW  HW  HW  EP  OW  HW  HW  EP  OW  HW  HW  EP  OW  
HW  HW  EP  OW  HW  HW  EP  OW  HW  HW  EP  OW  HW  HW  EP  OW  HW  HW  EP  OW  
HW  HW  EP  OW  HW  HW  EP  OW  HW  HW  EP  OW  HW  HW  EP  OW  HW  HW  EP  OW  
HW  HW  EP  OW  HW  HW  EP  OW  HW  HW  EP  OW  HW  HW  EP  OW  HW  HW  EP  OW  
HW  HW  EP  OW  HW  HW  EP  OW  HW  HW  EP  OW  HW  HW  EP  OW  HW  HW  EP  OW  
HW  HW  EP  OW  HW  HW  EP  OW  HW  HW  EP  OW  HW  HW  EP  OW  HW  HW  EP  OW  
HW  HW  EP  OW  HW  HW  EP  OW  HW  HW  EP  OW  HW  HW  EP  OW  HW  HW  EP  OW  
HW  HW  EP  OW  HW  HW  EP  OW  HW  HW  EP  OW  HW  HW  EP  OW  HW  HW  EP  OW  
HW  HW  EP  OW  HW  HW  EP  OW  HW  HW  EP  OW  HW  HW  EP  OW  HW  HW  EP  OW  
HW  HW  EP  OW  HW  HW  EP  OW  HW  HW  EP  OW  HW  HW  EP  OW  HW  HW  EP  OW  
HW  HW  EP  OW  HW  HW  EP  OW  HW  HW  EP  OW  HW  HW  EP  OW  HW  HW  EP  OW  
HW  HW  EP  OW  HW  HW  EP  OW  HW  HW  EP  OW  HW  HW  EP  OW  HW  HW  EP  OW  
HW  HW  EP  OW  HW  HW  EP  OW  HW  HW  EP  OW  HW  HW  EP  OW  HW  HW  EP  OW  
HW  HW  EP  OW  HW  HW  EP  OW  HW  HW  EP  OW  HW  HW  EP  OW  HW  HW  EP  OW  
HW  HW  EP  OW  HW  HW  EP  OW  HW  HW  EP  OW  HW  HW  EP  OW  HW  HW  EP  OW  
HW  HW  EP  OW  HW  HW  EP  OW  HW  HW  EP  OW  HW  HW  EP  OW  HW  HW  EP  OW  
HW  HW  EP  OW  HW  HW  EP  OW  HW  HW  EP  OW  HW  HW  EP  OW  HW  HW  EP  OW  
HW  HW  EP  OW  HW  HW  EP  OW  HW  HW  EP  OW  HW  HW  EP  OW  HW  HW  EP  OW  
HW  HW  EP  OW  HW  HW  EP  OW  HW  HW  EP  OW  HW  HW  EP  OW  HW  HW  EP  OW  
HW  HW  EP  OW  HW  HW  EP  OW  HW  HW  EP  OW  HW  HW  EP  OW  HW  HW  EP  OW  
HW  HW  EP  OW  HW  HW  EP  OW  HW  HW  EP  OW  HW  HW  EP  OW  HW  HW  EP  OW  
HW  HW  EP  OW  HW  HW  EP  OW  HW  HW  EP  OW  HW  HW  EP  OW  HW  HW  EP  OW  
HW  HW  EP  OW  HW  HW  EP  OW  HW  HW  EP  OW  HW  HW  EP  OW  HW  HW  EP  OW  
HW  HW  EP  OW  HW  HW  EP  OW  HW  HW  EP  OW  HW  HW  EP  OW  HW  HW  EP  OW  
HW  HW  EP  OW  HW  HW  EP  OW  HW  HW  EP  OW  HW  HW  EP  OW  HW  HW  EP  OW  
HW  HW  EP  OW  HW  HW  EP  OW  HW  HW  EP  OW  HW  HW  EP  OW  HW  HW  EP  OW  
HW  HW  EP  OW  HW  HW  EP  OW  HW  HW  EP  OW  HW  HW  EP  OW  HW  HW  EP  OW  
HW  HW  EP  OW  HW  HW  EP  OW  HW  HW  EP  OW  HW  HW  EP  OW  HW  HW  EP  OW  
HW  HW  EP  OW  HW  HW  EP  OW  HW  HW  EP  OW  HW  HW  EP  OW  HW  HW  EP  OW  
HW  HW  EP  OW  HW  HW  EP  OW  HW  HW  EP  OW  HW  HW  EP  OW  HW  HW  EP  OW  
HW  HW  EP  OW  HW  HW  EP  OW  HW  HW  EP  OW  HW  HW  EP  OW  HW  HW  EP  OW  
HW  HW  EP  OW  HW  HW  EP  OW  HW  HW  EP  OW  HW  HW  EP  OW  HW  HW  EP  OW  
HW  HW  EP  OW  HW  HW  EP  OW  HW  HW  EP  OW  HW  HW  EP  OW  HW  HW  EP  OW  
HW  HW  EP  OW  HW  HW  EP  OW  HW  HW  EP  OW  HW  HW  EP  OW  HW  HW  EP  OW  
HW  HW  EP  OW  HW  HW  EP  OW  HW  HW  EP  OW  HW  HW  EP  OW  HW  HW  EP  OW  
HW  HW  EP  OW  HW  HW  EP  OW  HW  HW  EP  OW  HW  HW  EP  OW  HW  HW  EP  OW  
HW  HW  EP  OW  HW  HW  EP  OW  HW  HW  EP  OW  HW  HW  EP  OW  HW  HW  EP  OW  
HW  HW  EP  OW  HW  HW  EP  OW  HW  HW  EP  OW  HW  HW  EP  OW  HW  HW  EP  OW  
HW  HW  EP  OW  HW  HW  EP  OW  HW  HW  EP  OW  HW  HW  EP  OW  HW  HW  EP  OW  
HW  HW  EP  OW  HW  HW  EP  OW  HW  HW  EP  OW  HW  HW  EP  OW  HW  HW  EP  OW  
HW  HW  EP  OW  HW  HW  EP  OW  HW  HW  EP  OW  HW  HW  EP  OW  HW  HW  EP  OW  
HW  HW  EP  OW  HW  HW  EP  OW  HW  HW  EP  OW  HW  HW  EP  OW  HW  HW  EP  OW  
HW  HW  EP  OW  HW  HW  EP  OW  HW  HW  EP  OW  HW  HW  EP  OW  HW  HW  EP  OW  
HW  HW  EP  OW  HW  HW  EP  OW  HW  HW  EP  OW  HW  HW  EP  OW  HW  HW  EP  OW  
HW  HW  EP  OW  HW  HW  EP  OW  HW  HW  EP  OW  HW  HW  EP  OW  HW  HW  EP  OW  
HW  HW  EP  OW  HW  HW  EP  OW  HW  HW  EP  OW  HW  HW  EP  OW  HW  HW  EP  OW  
HW  HW  EP  OW  HW  HW  EP  OW  HW  HW  EP  OW  HW  HW  EP  OW  HW  HW  EP  OW  
HW  HW  EP  OW  HW  HW  EP  OW  HW  HW  EP  OW  HW  HW  EP  OW  HW  HW  EP  OW  
HW  HW  EP  OW  HW  HW  EP  OW  HW  HW  EP  OW  HW  HW  EP  OW  HW  HW  EP  OW  
HW  HW  EP  OW  HW  HW  EP  OW  HW  HW  EP  OW  HW  HW  EP  OW  HW  HW  EP  OW  
HW  HW  EP  OW  HW  HW  EP  OW  HW  HW  EP  OW  HW  HW  EP  OW  HW  HW  EP  OW  
HW  HW  EP  OW  HW  HW  EP  OW  HW  HW  EP  OW  HW  HW  EP  OW  HW  HW  EP  OW  
HW  HW  EP  OW  HW  HW  EP  OW  HW  HW  EP  OW  HW  HW  EP  OW  HW  HW  EP  OW  
HW  HW  EP  OW  HW  HW  EP  OW  HW  HW  EP  OW  HW  HW  EP  OW  HW  HW  EP  OW  
HW  HW  EP  OW  HW  HW  EP  OW  HW  HW  EP  OW  HW  HW  EP  OW  HW  HW  EP  OW  
HW  HW  EP  OW  HW  HW  EP  OW  HW  HW  EP  OW  HW  HW  EP  OW  HW  HW  EP  OW  
HW  HW  EP  OW  HW  HW  EP  OW  HW  HW  EP  OW  HW  HW  EP  OW  HW  HW  EP  OW  
HW  HW  EP  OW  HW  HW  EP  OW  HW  HW  EP  OW  HW  HW  EP  OW  HW  HW  EP  OW  
HW  HW  EP  OW  HW  HW  EP  OW  HW  HW  EP  OW  HW  HW  EP  OW  HW  HW  EP  OW  
HW  HW  EP  OW  HW  HW  EP  OW  HW  HW  EP  OW  HW  HW  EP  OW  HW  HW  EP  OW  
HW  HW  EP  OW  HW  HW  EP  OW  HW  HW  EP  OW  HW  HW  EP  OW  HW  HW  EP  OW  
HW  HW  EP  OW  HW  HW  EP  OW  HW  HW  EP  OW  HW  HW  EP  OW  HW  HW  EP  OW  
HW  HW  EP  OW  HW  HW  EP  OW  HW  HW  EP  OW  HW  HW  EP  OW  HW  HW  EP  OW  
HW  HW  EP  OW  HW  HW  EP  OW  HW  HW  EP  OW  HW  HW  EP  OW  HW  HW  EP  OW  
HW  HW  EP  OW  HW  HW  EP  OW  HW  HW  EP  OW  HW  HW  EP  OW  HW  HW  EP  OW  
HW  HW  EP  OW  HW  HW  EP  OW  HW  HW  EP  OW  HW  HW  EP  OW  HW  HW  EP  OW  
HW  HW  EP  OW  HW  HW  EP  OW  HW  HW  EP  OW  HW  HW  EP  OW  HW  HW  EP  OW  
HW  HW  EP  OW  HW  HW  EP  OW  HW  HW  EP  OW  HW  HW  EP  OW  HW  HW  EP  OW  
HW  HW  EP  OW  HW  HW  EP  OW  HW  HW  EP  OW  HW  HW  EP  OW  HW  HW  EP  OW  
HW  HW  EP  OW  HW  HW  EP  OW  HW  HW  EP  OW  HW  HW  EP  OW  HW  HW  EP  OW  
HW  HW  EP  OW  HW  HW  EP  OW  HW  HW  EP  OW  HW  HW  EP  OW  HW  HW  EP  OW  
HW  HW  EP  OW  HW  HW  EP  OW  HW  HW  EP  OW  HW  HW  EP  OW  HW  HW  EP  OW  
HW  HW  EP  OW  HW  HW  EP  OW  HW  HW  EP  OW  HW  HW  EP  OW  HW  HW  EP  OW  
HW  HW  EP  OW  HW  HW  EP  OW  HW  HW  EP  OW  HW  HW  EP  OW  HW  HW  EP  OW  
HW  HW  EP  OW  HW  HW  EP  OW  HW  HW  EP  OW  HW  HW  EP  OW  HW  HW  EP  OW  
HW  HW  EP  OW  HW  HW  EP  OW  HW  HW  EP  OW  HW  HW  EP  OW  HW  HW  EP  OW  
HW  HW  EP  OW  HW  HW  EP  OW  HW  HW  EP  OW  HW  HW  EP  OW  HW  HW  EP  OW  
HW  HW  EP  OW  HW  HW  EP  OW  HW  HW  EP  OW  HW  HW  EP  OW  HW  HW  EP  OW  
HW  HW  EP  OW  HW  HW  EP  OW  HW  HW  EP  OW  HW  HW  EP  OW  HW  HW  EP  OW  
HW  HW  EP  OW  HW  HW  EP  OW  HW  HW  EP  OW  HW  HW  EP  OW  HW  HW  EP  OW  
HW  HW  EP  OW  HW  HW  EP  OW  HW  HW  EP  OW  HW  HW  EP  OW  HW  HW  EP  OW  
HW  HW  EP  OW  HW  HW  EP  OW  HW  HW  EP  OW  HW  HW  EP  OW  HW  HW  EP  OW  
HW  HW  EP  OW  HW  HW  EP  OW  HW  HW  EP  OW  HW  HW  EP  OW  HW  HW  EP  OW  
HW  HW  EP  OW  HW  HW  EP  OW  HW  HW  EP  OW  HW  HW  EP  OW  HW  HW  EP  OW  
HW  HW  EP  OW  HW  HW  EP  OW  HW  HW  EP  OW  HW  HW  EP  OW  HW  HW  EP  OW  
HW  HW  EP  OW  HW  HW  EP  OW  HW  HW  EP  OW  HW  HW  EP  OW  HW  HW  EP  OW  
HW  HW  EP  OW  HW  HW  EP  OW  HW  HW  EP  OW  HW  HW  EP  OW  HW  HW  EP  OW  
HW  HW  EP  OW  HW  HW  EP  OW  HW  HW  EP  OW  HW  HW  EP  OW  HW  HW  EP  OW  
HW  HW  EP  OW  HW  HW  EP  OW  HW  HW  EP  OW  HW  HW  EP  OW  HW  HW  EP  OW  
HW  HW  EP  OW  HW  HW  EP  OW  HW  HW  EP  OW  HW  HW  EP  OW  HW  HW  EP  OW  
HW  HW  EP  OW  HW  HW  EP  OW  HW  HW  EP  OW  HW  HW  EP  OW  HW  HW  EP  OW  
HW  HW  EP  OW  HW  HW  EP  OW  HW  HW  EP  OW  HW  HW  EP  OW  HW  HW  EP  OW  
HW  HW  EP  OW  HW  HW  EP  OW  HW  HW  EP  OW  HW  HW  EP  OW  HW  HW  EP  OW  
HW  HW  EP  OW  HW  HW  EP  OW  HW  HW  EP  OW  HW  HW  EP  OW  HW  HW  EP  OW  
HW  HW  EP  OW  HW  HW  EP  OW  HW  HW  EP  OW  HW  HW  EP  OW  HW  HW  EP  OW  
HW  HW  EP  OW  HW  HW  EP  OW  HW  HW  EP  OW  HW  HW  EP  OW  HW  HW  EP  OW  
HW  HW  EP  OW  HW  HW  EP  OW  HW  HW  EP  OW  HW  HW  EP  OW  HW  HW  EP  OW  
HW  HW  EP  OW  HW  HW  EP  OW  HW  HW  EP  OW  HW  HW  EP  OW  HW  HW  EP  OW  
HW  HW  EP  OW  HW  HW  EP  OW  HW  HW  EP  OW  HW  HW  EP  OW  HW  HW  EP  OW  
HW  HW  EP  OW  HW  HW  EP  OW  HW  HW  EP  OW  HW  HW  EP  OW  HW  HW  EP  OW  
HW  HW  EP  OW  HW  HW  EP  OW  HW  HW  EP  OW  HW  HW  EP  OW  HW  HW  EP  OW  
HW  HW  EP  OW  HW  HW  EP  OW  HW  HW  EP  OW  HW  HW  EP  OW  HW  HW  EP  OW  
HW  HW  EP  OW  HW  HW  EP  OW  HW  HW  EP  OW  HW  HW  EP  OW  HW  HW  EP  OW  
HW  HW  EP  OW  HW  HW  EP  OW  HW  HW  EP  OW  HW  HW  EP  OW  HW  HW  EP  OW  
HW  HW  EP  OW  HW  HW  EP  OW  HW  HW  EP  OW  HW  HW  EP  OW  HW  HW  EP  OW  
HW  HW  EP  OW  HW  HW  EP  OW  HW  HW  EP  OW  HW  HW  EP  OW  HW  HW  EP  OW  
HW  HW  EP  OW  HW  HW  EP  OW  HW  HW  EP  OW  HW  HW  EP  OW  HW  HW  EP  OW  
HW  HW  EP  OW  HW  HW  EP  OW  HW  HW  EP  OW  HW  HW  EP  OW  HW  HW  EP  OW  
HW  HW  EP  OW  HW  HW  EP  OW  HW  HW  EP  OW  HW  HW  EP  OW  HW  HW  EP  OW  
HW  HW  EP  OW  HW  HW  EP  OW  HW  HW  EP  OW  HW  HW  EP  OW  HW  HW  EP  OW  
HW  HW  EP  OW  HW  HW  EP  OW  HW  HW  EP  OW  HW  HW  EP  OW  HW  HW  EP  OW  
HW  HW  EP  OW  HW  HW  EP  OW  HW  HW  EP  OW  HW  HW  EP  OW  HW  HW  EP  OW  
HW  HW  EP  OW  HW  HW  EP  OW  HW  HW  EP  OW  HW  HW  EP  OW  HW  HW  EP  OW  
HW  HW  EP  OW  HW  HW  EP  OW  HW  HW  EP  OW  HW  HW  EP  OW  HW  HW  EP  OW  
HW  HW  EP  OW  HW  HW  EP  OW  HW  HW  EP  OW  HW  HW  EP  OW  HW  HW  EP  OW  
HW  HW  EP  OW  HW  HW  EP  OW  HW  HW  EP  OW  HW  HW  EP  OW  HW  HW  EP  OW  
HW  HW  EP  OW  HW  HW  EP  OW  HW  HW  EP  OW  HW  HW  EP  OW  HW  HW  EP  OW  
HW  HW  EP  OW  HW  HW  EP  OW  HW  HW  EP  OW  HW  HW  EP  OW  HW  HW  EP  OW  
HW  HW  EP  OW  HW  HW  EP  OW  HW  HW  EP  OW  HW  HW  EP  OW  HW  HW  EP  OW  
HW  HW  EP  OW  HW  HW  EP  OW  HW  HW  EP  OW  HW  HW  EP  OW  HW  HW  EP  OW  
HW  HW  EP  OW  HW  HW  EP  OW  HW  HW  EP  OW  HW  HW  EP  OW  HW  HW  EP  OW  
HW  HW  EP  OW  HW  HW  EP  OW  HW  HW  EP  OW  HW  HW  EP  OW  HW  HW  EP  OW  
HW  HW  EP  OW  HW  HW  EP  OW  HW  HW  EP  OW  HW  HW  EP  OW  HW  HW  EP  OW  
HW  HW  EP  OW  HW  HW  EP  OW  HW  HW  EP  OW  HW  HW  EP  OW  HW  HW  EP  OW  
HW  HW  EP  OW  HW  HW  EP  OW  HW  HW  EP  OW  HW  HW  EP  OW  HW  HW  EP  OW  
HW  HW  EP  OW  HW  HW  EP  OW  HW  HW  EP  OW  HW  HW  EP  OW  HW  HW  EP  OW  
HW  HW  EP  OW  HW  HW  EP  OW  HW  HW  EP  OW  HW  HW  EP  OW  HW  HW  EP  OW  
HW  HW  EP  OW  HW  HW  EP  OW  HW  HW  EP  OW  HW  HW  EP  OW  HW  HW  EP  OW  
HW  HW  EP  OW  HW  HW  EP  OW  HW  HW  EP  OW  HW  HW  EP  OW  HW  HW  EP  OW  
HW  HW  EP  OW  HW  HW  EP  OW  HW  HW  EP  OW  HW  HW  EP  OW  HW  HW  EP  OW  
HW  HW  EP  OW  HW  HW  EP  OW  HW  HW  EP  OW  HW  HW  EP  OW  HW  HW  EP  OW  
HW  HW  EP  OW  HW  HW  EP  OW  HW  HW  EP  OW  HW  HW  EP  OW  HW  HW  EP  OW  
HW  HW  EP  OW  HW  HW  EP  OW  HW  HW  EP  OW  HW  HW  EP  OW  HW  HW  EP  OW  
HW  HW  EP  OW  HW  HW  EP  OW  HW  HW  EP  OW  HW  HW  EP  OW  HW  HW  EP  OW  
HW  HW  EP  OW  HW  HW  EP  OW  HW  HW  EP  OW  HW  HW  EP  OW  HW  HW  EP  OW  
HW  HW  EP  OW  HW  HW  EP  OW  HW  HW  EP  OW  HW  HW  EP  OW  HW  HW  EP  OW  
HW  HW  EP  OW  HW  HW  EP  OW  HW  HW  EP  OW  HW  HW  EP  OW  HW  HW  EP  OW  
HW  HW  EP  OW  HW  HW  EP  OW  HW  HW  EP  OW  HW  HW  EP  OW  HW  HW  EP  OW  
HW  HW  EP  OW  HW  HW  EP  OW  HW  HW  EP  OW  HW  HW  EP  OW  HW  HW  EP  OW  
HW  HW  EP  OW  HW  HW  EP  OW  HW  HW  EP  OW  HW  HW  EP  OW  HW  HW  EP  OW  
HW  HW  EP  OW  HW  HW  EP  OW  HW  HW  EP  OW  HW  HW  EP  OW  HW  HW  EP  OW  
HW  HW  EP  OW  HW  HW  EP  OW  HW  HW  EP  OW  HW  HW  EP  OW  HW  HW  EP  OW  
HW  HW  EP  OW  HW  HW  EP  OW  HW  HW  EP  OW  HW  HW  EP  OW  HW  HW  EP  OW  
HW  HW  EP  OW  HW  HW  EP  OW  HW  HW  EP  OW  HW  HW  EP  OW  HW  HW  EP  OW  
HW  HW  EP  OW  HW  HW  EP  OW  HW  HW  EP  OW  HW  HW  EP  OW  HW  HW  EP  OW  
HW  HW  EP  OW  HW  HW  EP  OW  HW  HW  EP  OW  HW  HW  EP  OW  HW  HW  EP  OW  
HW  HW  EP  OW  HW  HW  EP  OW  HW  HW  EP  OW  HW  HW  EP  OW  HW  HW  EP  OW  
HW  HW  EP  OW  HW  HW  EP  OW  HW  HW  EP  OW  HW  HW  EP  OW  HW  HW  EP  OW  
HW  HW  EP  OW  HW  HW  EP  OW  HW  HW  EP  OW  HW  HW  EP  OW  HW  HW  EP  OW  
HW  HW  EP  OW  HW  HW  EP  OW  HW  HW  EP  OW  HW  HW  EP  OW  HW  HW  EP  OW  
HW  HW  EP  OW  HW  HW  EP  OW  HW  HW  EP  OW  HW  HW  EP  OW  HW  HW  EP  OW  
HW  HW  EP  OW  HW  HW  EP  OW  HW  HW  EP  OW  HW  HW  EP  OW  HW  HW  EP  OW  
HW  HW  EP  OW  HW  HW  EP  OW  HW  HW  EP  OW  HW  HW  EP  OW  HW  HW  EP  OW  
HW  HW  EP  OW  HW  HW  EP  OW  HW  HW  EP  OW  HW  HW  EP  OW  HW  HW  EP  OW  
HW  HW  EP  OW  HW  HW  EP  OW  HW  HW  EP  OW  HW  HW  EP  OW  HW  HW  EP  OW  
HW  HW  EP  OW  HW  HW  EP  OW  HW  HW  EP  OW  HW  HW  EP  OW  HW  HW  EP  OW  
HW  HW  EP  OW  HW  HW  EP  OW  HW  HW  EP  OW  HW  HW  EP  OW  HW  HW  EP  OW  
HW  HW  EP  OW  HW  HW  EP  OW  HW  HW  EP  OW  HW  HW  EP  OW  HW  HW  EP  OW  
HW  HW  EP  OW  HW  HW  EP  OW  HW  HW  EP  OW  HW  HW  EP  OW  HW  HW  EP  OW  
HW  HW  EP  OW  HW  HW  EP  OW  HW  HW  EP  OW  HW  HW  EP  OW  HW  HW  EP  OW  
HW  HW  EP  OW  HW  HW  EP  OW  HW  HW  EP  OW  HW  HW  EP  OW  HW  HW  EP  OW  
HW  HW  EP  OW  HW  HW  EP  OW  HW  HW  EP  OW  HW  HW  EP  OW  HW  HW  EP  OW  
HW  HW  EP  OW  HW  HW  EP  OW  HW  HW  EP  OW  HW  HW  EP  OW  HW  HW  EP  OW  
HW  HW  EP  OW  HW  HW  EP  OW  HW  HW  EP  OW  HW  HW  EP  OW  HW  HW  EP  OW  
HW  HW  EP  OW  HW  HW  EP  OW  HW  HW  EP  OW  HW  HW  EP  OW  HW  HW  EP  OW  
HW  HW  EP  OW  HW  HW  EP  OW  HW  HW  EP  OW  HW  HW  EP  OW  HW  HW  EP  OW  
HW  HW  EP  OW  HW  HW  EP  OW  HW  HW  EP  OW  HW  HW  EP  OW  HW  HW  EP  OW  
HW  HW  EP  OW  HW  HW  EP  OW  HW  HW  EP  OW  HW  HW  EP  OW  HW  HW  EP  OW  
HW  HW  EP  OW  HW  HW  EP  OW  HW  HW  EP  OW  HW  HW  EP  OW  HW  HW  EP  OW  
HW  HW  EP  OW  HW  HW  EP  OW  HW  HW  EP  OW  HW  HW  EP  OW  HW  HW  EP  OW  
HW  HW  EP  OW  HW  HW  EP  OW  HW  HW  EP  OW  HW  HW  EP  OW  HW  HW  EP  OW  
HW  HW  EP  OW  HW  HW  EP  OW  HW  HW  EP  OW  HW  HW  EP  OW  HW  HW  EP  OW  
HW  HW  EP  OW  HW  HW  EP  OW  HW  HW  EP  OW  HW  HW  EP  OW  HW  HW  EP  OW  
HW  HW  EP  OW  HW  HW  EP  OW  HW  HW  EP  OW  HW  HW  EP  OW  HW  HW  EP  OW  
HW  HW  EP  OW  HW  HW  EP  OW  HW  HW  EP  OW  HW  HW  EP  OW  HW  HW  EP  OW  
HW  HW  EP  OW  HW  HW  EP  OW  HW  HW  EP  OW  HW  HW  EP  OW  HW  HW  EP  OW  
HW  HW  EP  OW  HW  HW  EP  OW  HW  HW  EP  OW  HW  HW  EP  OW  HW  HW  EP  OW  
HW  HW  EP  OW  HW  HW  EP  OW  HW  HW  EP  OW  HW  HW  EP  OW  HW  HW  EP  OW  
HW  HW  EP  OW  HW  HW  EP  OW  HW  HW  EP  OW  HW  HW  EP  OW  HW  HW  EP  OW  
HW  HW  EP  OW  HW  HW  EP  OW  HW  HW  EP  OW  HW  HW  EP  OW  HW  HW  EP  OW  
HW  HW  EP  OW  HW  HW  EP  OW  HW  HW  EP  OW  HW  HW  EP  OW  HW  HW  EP  OW  
HW  HW  EP  OW  HW  HW  EP  OW  HW  HW  EP  OW  HW  HW  EP  OW  HW  HW  EP  OW  
HW  HW  EP  OW  HW  HW  EP  OW  HW  HW  EP  OW  HW  HW  EP  OW  HW  HW  EP  OW  
HW  HW  EP  OW  HW  HW  EP  OW  HW  HW  EP  OW  HW  HW  EP  OW  HW  HW  EP  OW  
HW  HW  EP  OW  HW  HW  EP  OW  HW  HW  EP  OW  HW  HW  EP  OW  HW  HW  EP  OW  
HW  HW  EP  OW  HW  HW  EP  OW  HW  HW  EP  OW  HW  HW  EP  OW  HW  HW  EP  OW  
HW  HW  EP  OW  HW  HW  EP  OW  HW  HW  EP  OW  HW  HW  EP  OW  HW  HW  EP  OW  
HW  HW  EP  OW  HW  HW  EP  OW  HW  HW  EP  OW  HW  HW  EP  OW  HW  HW  EP  OW  
HW  HW  EP  OW  HW  HW  EP  OW  HW  HW  EP  OW  HW  HW  EP  OW  HW  HW  EP  OW  
HW  HW  EP  OW  HW  HW  EP  OW  HW  HW  EP  OW  HW  HW  EP  OW  HW  HW  EP  OW  
HW  HW  EP  OW  HW  HW  EP  OW  HW  HW  EP  OW  HW  HW  EP  OW  HW  HW  EP  OW  
HW  HW  EP  OW  HW  HW  EP  OW  HW  HW  EP  OW  HW  HW  EP  OW  HW  HW  EP  OW  
HW  HW  EP  OW  HW  HW  EP  OW  HW  HW  EP  OW  HW  HW  EP  OW  HW  HW  EP  OW  
HW  HW  EP  OW  HW  HW  EP  OW  HW  HW  EP  OW  HW  HW  EP  OW  HW  HW  EP  OW  
HW  HW  EP  OW  HW  HW  EP  OW  HW  HW  EP  OW  HW  HW  EP  OW  HW  HW  EP  OW  
HW  HW  EP  OW  HW  HW  EP  OW  HW  HW  EP  OW  HW  HW  EP  OW  HW  HW  EP  OW  
HW  HW  EP  OW  HW  HW  EP  OW  HW  HW  EP  OW  HW  HW  EP  OW  HW  HW  EP  OW  
HW  HW  EP  OW  HW  HW  EP  OW  HW  HW  EP  OW  HW  HW  EP  OW  HW  HW  EP  OW  
HW  HW  EP  OW  HW  HW  EP  OW  HW  HW  EP  OW  HW  HW  EP  OW  HW  HW  EP  OW  
HW  HW  EP  OW  HW  HW  EP  OW  HW  HW  EP  OW  HW  HW  EP  OW  HW  HW  EP  OW  
HW  HW  EP  OW  HW  HW  EP  OW  HW  HW  EP  OW  HW  HW  EP  OW  HW  HW  EP  OW  
HW  HW  EP  OW  HW  HW  EP  OW  HW  HW  EP  OW  HW  HW  EP  OW  HW  HW  EP  OW  
HW  HW  EP  OW  HW  HW  EP  OW  HW  HW  EP  OW  HW  HW  EP  OW  HW  HW  EP  OW  
HW  HW  EP  OW  HW  HW  EP  OW  HW  HW  EP  OW  HW  HW  EP  OW  HW  HW  EP  OW  
HW  HW  EP  OW  HW  HW  EP  OW  HW  HW  EP  OW  HW  HW  EP  OW  HW  HW  EP  OW  
HW  HW  EP  OW  HW  HW  EP  OW  HW  HW  EP  OW  HW  HW  EP  OW  HW  HW  EP  OW  
HW  HW  EP  OW  HW  HW  EP  OW  HW  HW  EP  OW  HW  HW  EP  OW  HW  HW  EP  OW  
HW  HW  EP  OW  HW  HW  EP  OW  HW  HW  EP  OW  HW  HW  EP  OW  HW  HW  EP  OW  
HW  HW  EP  OW  HW  HW  EP  OW  HW  HW  EP  OW  HW  HW  EP  OW  HW  HW  EP  OW  
HW  HW  EP  OW  HW  HW  EP  OW  HW  HW  EP  OW  HW  HW  EP  OW  HW  HW  EP  OW  
HW  HW  EP  OW  HW  HW  EP  OW  HW  HW  EP  OW  HW  HW  EP  OW  HW  HW  EP  OW  
HW  HW  EP  OW  HW  HW  EP  OW  HW  HW  EP  OW  HW  HW  EP  OW  HW  HW  EP  OW  
HW  HW  EP  OW  HW  HW  EP  OW  HW  HW  EP  OW  HW  HW  EP  OW  HW  HW  EP  OW  
HW  HW  EP  OW  HW  HW  EP  OW  HW  HW  EP  OW  HW  HW  EP  OW  HW  HW  EP  OW  
HW  HW  EP  OW  HW  HW  EP  OW  HW  HW  EP  OW  HW  HW  EP  OW  HW  HW  EP  OW  
HW  HW  EP  OW  HW  HW  EP  OW  HW  HW  EP  OW  HW  HW  EP  OW  HW  HW  EP  OW  
HW  HW  EP  OW  HW  HW  EP  OW  HW  HW  EP  OW  HW  HW  EP  OW  HW  HW  EP  OW  
HW  HW  EP  OW  HW  HW  EP  OW  HW  HW  EP  OW  HW  HW  EP  OW  HW  HW  EP  OW  
HW  HW  EP  OW  HW  HW  EP  OW  HW  HW  EP  OW  HW  HW  EP  OW  HW  HW  EP  OW  
HW  HW  EP  OW  HW  HW  EP  OW  HW  HW  EP  OW  HW  HW  EP  OW  HW  HW  EP  OW  
HW  HW  EP  OW  HW  HW  EP  OW  HW  HW  EP  OW  HW  HW  EP  OW  HW  HW  EP  OW  
HW  HW  EP  OW  HW  HW  EP  OW  HW  HW  EP  OW  HW  HW  EP  OW  HW  HW  EP  OW  
HW  HW  EP  OW  HW  HW  EP  OW  HW  HW  EP  OW  HW  HW  EP  OW  HW  HW  EP  OW  
HW  HW  EP  OW  HW  HW  EP  OW  HW  HW  EP  OW  HW  HW  EP  OW  HW  HW  EP  OW  
HW  HW  EP  OW  HW  HW  EP  OW  HW  HW  EP  OW  HW  HW  EP  OW  HW  HW  EP  OW  
HW  HW  EP  OW  HW  HW  EP  OW  HW  HW  EP  OW  HW  HW  EP  OW  HW  HW  EP  OW  
HW  HW  EP  OW  HW  HW  EP  OW  HW  HW  EP  OW  HW  HW  EP  OW  HW  HW  EP  OW  
HW  HW  EP  OW  HW  HW  EP  OW  HW  HW  EP  OW  HW  HW  EP  OW  HW  HW  EP  OW  
HW  HW  EP  OW  HW  HW  EP  OW  HW  HW  EP  OW  HW  HW  EP  OW  HW  HW  EP  OW  
HW  HW  EP  OW  HW  HW  EP  OW  HW  HW  EP  OW  HW  HW  EP  OW  HW  HW  EP  OW  
HW  HW  EP  OW  HW  HW  EP  OW  HW  HW  EP  OW  HW  HW  EP  OW  HW  HW  EP  OW  
HW  HW  EP  OW  HW  HW  EP  OW  HW  HW  EP  OW  HW  HW  EP  OW  HW  HW  EP  OW  
HW  HW  EP  OW  HW  HW  EP  OW  HW  HW  EP  OW  HW  HW  EP  OW  HW  HW  EP  OW  
HW  HW  EP  OW  HW  HW  EP  OW  HW  HW  EP  OW  HW  HW  EP  OW  HW  HW  EP  OW  
HW  HW  EP  OW  HW  HW  EP  OW  HW  HW  EP  OW  HW  HW  EP  OW  HW  HW  EP  OW  
HW  HW  EP  OW  HW  HW  EP  OW  HW  HW  EP  OW  HW  HW  EP  OW  HW  HW  EP  OW  
HW  HW  EP  OW  HW  HW  EP  OW  HW  HW  EP  OW  HW  HW  EP  OW  HW  HW  EP  OW  
HW  HW  EP  OW  HW  HW  EP  OW  HW  HW  EP  OW  HW  HW  EP  OW  HW  HW  EP  OW  
HW  HW  EP  OW  HW  HW  EP  OW  HW  HW  EP  OW  HW  HW  EP  OW  HW  HW  EP  OW  
HW  HW  EP  OW  HW  HW  EP  OW  HW  HW  EP  OW  HW  HW  EP  OW  HW  HW  EP  OW  
HW  HW  EP  OW  HW  HW  EP  OW  HW  HW  EP  OW  HW  HW  EP  OW  HW  HW  EP  OW  
HW  HW  EP  OW  HW  HW  EP  OW  HW  HW  EP  OW  HW  HW  EP  OW  HW  HW  EP  OW  
HW  HW  EP  OW  HW  HW  EP  OW  HW  HW  EP  OW  HW  HW  EP  OW  HW  HW  EP  OW  
HW  HW  EP  OW  HW  HW  EP  OW  HW  HW  EP  OW  HW  HW  EP  OW  HW  HW  EP  OW  
HW  HW  EP  OW  HW  HW  EP  OW  HW  HW  EP  OW  HW  HW  EP  OW  HW  HW  EP  OW  
HW  HW  EP  OW  HW  HW  EP  OW  HW  HW  EP  OW  HW  HW  EP  OW  HW  HW  EP  OW  
HW  HW  EP  OW  HW  HW  EP  OW  HW  HW  EP  OW  HW  HW  EP  OW  HW  HW  EP  OW  
HW  HW  EP  OW  HW  HW  EP  OW  HW  HW  EP  OW  HW  HW  EP  OW  HW  HW  EP  OW  
HW  HW  EP  OW  HW  HW  EP  OW  HW  HW  EP  OW  HW  HW  EP  OW  HW  HW  EP  OW  
HW  HW  EP  OW  HW  HW  EP  OW  HW  HW  EP  OW  HW  HW  EP  OW  HW  HW  EP  OW  
HW  HW  EP  OW  HW  HW  EP  OW  HW  HW  EP  OW  HW  HW  EP  OW  HW  HW  EP  OW  
HW  HW  EP  OW  HW  HW  EP  OW  HW  HW  EP  OW  HW  HW  EP  OW  HW  HW  EP  OW  
HW  HW  EP  OW  HW  HW  EP  OW  HW  HW  EP  OW  HW  HW  EP  OW  HW  HW  EP  OW  
HW  HW  EP  OW  HW  HW  EP  OW  HW  HW  EP  OW  HW  HW  EP  OW  HW  HW  EP  OW  
HW  HW  EP  OW  HW  HW  EP  OW  HW  HW  EP  OW  HW  HW  EP  OW  HW  HW  EP  OW  
HW  HW  EP  OW  HW  HW  EP  OW  HW  HW  EP  OW  HW  HW  EP  OW  HW  HW  EP  OW  
HW  HW  EP  OW  HW  HW  EP  OW  HW  HW  EP  OW  HW  HW  EP  OW  HW  HW  EP  OW  
HW  HW  EP  OW  HW  HW  EP  OW  HW  HW  EP  OW  HW  HW  EP  OW  HW  HW  EP  OW  
HW  HW  EP  OW  HW  HW  EP  OW  HW  HW  EP  OW  HW  HW  EP  OW  HW  HW  EP  OW  
HW  HW  EP  OW  HW  HW  EP  OW  HW  HW  EP  OW  HW  HW  EP  OW  HW  HW  EP  OW  
HW  HW  EP  OW  HW  HW  EP  OW  HW  HW  EP  OW  HW  HW  EP  OW  HW  HW  EP  OW  
HW  HW  EP  OW  HW  HW  EP  OW  HW  HW  EP  OW  HW  HW  EP  OW  HW  HW  EP  OW  
HW  HW  EP  OW  HW  HW  EP  OW  HW  HW  EP  OW  HW  HW  EP  OW  HW  HW  EP  OW  
HW  HW  EP  OW  HW  HW  EP  OW  HW  HW  EP  OW  HW  HW  EP  OW  HW  HW  EP  OW  
HW  HW  EP  OW  HW  HW  EP  OW  HW  HW  EP  OW  HW  HW  EP  OW  HW  HW  EP  OW  
HW  HW  EP  OW  HW  HW  EP  OW  HW  HW  EP  OW  HW  HW  EP  OW  HW  HW  EP  OW  
HW  HW  EP  OW  HW  HW  EP  OW  HW  HW  EP  OW  HW  HW  EP  OW  HW  HW  EP  OW  
HW  HW  EP  OW  HW  HW  EP  OW  HW  HW  EP  OW  HW  HW  EP  OW  HW  HW  EP  OW  
HW  HW  EP  OW  HW  HW  EP  OW  HW  HW  EP  OW  HW  HW  EP  OW  HW  HW  EP  OW  
HW  HW  EP  OW  HW  HW  EP  OW  HW  HW  EP  OW  HW  HW  EP  OW  HW  HW  EP  OW  
HW  HW  EP  OW  HW  HW  EP  OW  HW  HW  EP  OW  HW  HW  EP  OW  HW  HW  EP  OW  
HW  HW  EP  OW  HW  HW  EP  OW  HW  HW  EP  OW  HW  HW  EP  OW  HW  HW  EP  OW  
HW  HW  EP  OW  HW  HW  EP  OW  HW  HW  EP  OW  HW  HW  EP  OW  HW  HW  EP  OW  
HW  HW  EP  OW  HW  HW  EP  OW  HW  HW  EP  OW  HW  HW  EP  OW  HW  HW  EP  OW  
HW  HW  EP  OW  HW  HW  EP  OW  HW  HW  EP  OW  HW  HW  EP  OW  HW  HW  EP  OW  
HW  HW  EP  OW  HW  HW  EP  OW  HW  HW  EP  OW  HW  HW  EP  OW  HW  HW  EP  OW  
HW  HW  EP  OW  HW  HW  EP  OW  HW  HW  EP  OW  HW  HW  EP  OW  HW  HW  EP  OW  
HW  HW  EP  OW  HW  HW  EP  OW  HW  HW  EP  OW  HW  HW  EP  OW  HW  HW  EP  OW  
HW  HW  EP  OW  HW  HW  EP  OW  HW  HW  EP  OW  HW  HW  EP  OW  HW  HW  EP  OW  
HW  HW  EP  OW  HW  HW  EP  OW  HW  HW  EP  OW  HW  HW  EP  OW  HW  HW  EP  OW  
HW  HW  EP  OW  HW  HW  EP  OW  HW  HW  EP  OW  HW  HW  EP  OW  HW  HW  EP  OW  
HW  HW  EP  OW  HW  HW  EP  OW  HW  HW  EP  OW  HW  HW  EP  OW  HW  HW  EP  OW  
HW  HW  EP  OW  HW  HW  EP  OW  HW  HW  EP  OW  HW  HW  EP  OW  HW  HW  EP  OW  
HW  HW  EP  OW  HW  HW  EP  OW  HW  HW  EP  OW  HW  HW  EP  OW  HW  HW  EP  OW  
HW  HW  EP  OW  HW  HW  EP  OW  HW  HW  EP  OW  HW  HW  EP  OW  HW  HW  EP  OW  
HW  HW  EP  OW  HW  HW  EP  OW  HW  HW  EP  OW  HW  HW  EP  OW  HW  HW  EP  OW  
HW  HW  EP  OW  HW  HW  EP  OW  HW  HW  EP  OW  HW  HW  EP  OW  HW  HW  EP  OW  
HW  HW  EP  OW  HW  HW  EP  OW  HW  HW  EP  OW  HW  HW  EP  OW  HW  HW  EP  OW  
HW  HW  EP  OW  HW  HW  EP  OW  HW  HW  EP  OW  HW  HW  EP  OW  HW  HW  EP  OW  
HW  HW  EP  OW  HW  HW  EP  OW  HW  HW  EP  OW  HW  HW  EP  OW  HW  HW  EP  OW  
HW  HW  EP  OW  HW  HW  EP  OW  HW  HW  EP  OW  HW  HW  EP  OW  HW  HW  EP  OW  
HW  HW  EP  OW  HW  HW  EP  OW  HW  HW  EP  OW  HW  HW  EP  OW  HW  HW  EP  OW  
HW  HW  EP  OW  HW  HW  EP  OW  HW  HW  EP  OW  HW  HW  EP  OW  HW  HW  EP  OW  
HW  HW  EP  OW  HW  HW  EP  OW  HW  HW  EP  OW  HW  HW  EP  OW  HW  HW  EP  OW  
HW  HW  EP  OW  HW  HW  EP  OW  HW  HW  EP  OW  HW  HW  EP  OW  HW  HW  EP  OW  
HW  HW  EP  OW  HW  HW  EP  OW  HW  HW  EP  OW  HW  HW  EP  OW  HW  HW  EP  OW  
HW  HW  EP  OW  HW  HW  EP  OW  HW  HW  EP  OW  HW  HW  EP  OW  HW  HW  EP  OW  
HW  HW  EP  OW  HW  HW  EP  OW  HW  HW  EP  OW  HW  HW  EP  OW  HW  HW  EP  OW  
HW  HW  EP  OW  HW  HW  EP  OW  HW  HW  EP  OW  HW  HW  EP  OW  HW  HW  EP  OW  
HW  HW  EP  OW  HW  HW  EP  OW  HW  HW  EP  OW  HW  HW  EP  OW  HW  HW  EP  OW  
HW  HW  EP  OW  HW  HW  EP  OW  HW  HW  EP  OW  HW  HW  EP  OW  HW  HW  EP  OW  
HW  HW  EP  OW  HW  HW  EP  OW  HW  HW  EP  OW  HW  HW  EP  OW  HW  HW  EP  OW  
HW  HW  EP  OW  HW  HW  EP  OW  HW  HW  EP  OW  HW  HW  EP  OW  HW  HW  EP  OW  
HW  HW  EP  OW  HW  HW  EP  OW  HW  HW  EP  OW  HW  HW  EP  OW  HW  HW  EP  OW  
HW  HW  EP  OW  HW  HW  EP  OW  HW  HW  EP  OW  HW  HW  EP  OW  HW  HW  EP  OW  
HW  HW  EP  OW  HW  HW  EP  OW  HW  HW  EP  OW  HW  HW  EP  OW  HW  HW  EP  OW  
HW  HW  EP  OW  HW  HW  EP  OW  HW  HW  EP  OW  HW  HW  EP  OW  HW  HW  EP  OW  
HW  HW  EP  OW  HW  HW  EP  OW  HW  HW  EP  OW  HW  HW  EP  OW  HW  HW  EP  OW  
HW  HW  EP  OW  HW  HW  EP  OW  HW  HW  EP  OW  HW  HW  EP  OW  HW  HW  EP  OW  
HW  HW  EP  OW  HW  HW  EP  OW  HW  HW  EP  OW  HW  HW  EP  OW  HW  HW  EP  OW  
HW  HW  EP  OW  HW  HW  EP  OW  HW  HW  EP  OW  HW  HW  EP  OW  HW  HW  EP  OW  
HW  HW  EP  OW  HW  HW  EP  OW  HW  HW  EP  OW  HW  HW  EP  OW  HW  HW  EP  OW  
HW  HW  EP  OW  HW  HW  EP  OW  HW  HW  EP  OW  HW  HW  EP  OW  HW  HW  EP  OW  
HW  HW  EP  OW  HW  HW  EP  OW  HW  HW  EP  OW  HW  HW  EP  OW  HW  HW  EP  OW  
HW  HW  EP  OW  HW  HW  EP  OW  HW  HW  EP  OW  HW  HW  EP  OW  HW  HW  EP  OW  
HW  HW  EP  OW  HW  HW  EP  OW  HW  HW  EP  OW  HW  HW  EP  OW  HW  HW  EP  OW  
HW  HW  EP  OW  HW  HW  EP  OW  HW  HW  EP  OW  HW  HW  EP  OW  HW  HW  EP  OW  
HW  HW  EP  OW  HW  HW  EP  OW  HW  HW  EP  OW  HW  HW  EP  OW  HW  HW  EP  OW  
HW  HW  EP  OW  HW  HW  EP  OW  HW  HW  EP  OW  HW  HW  EP  OW  HW  HW  EP  OW  
HW  HW  EP  OW  HW  HW  EP  OW  HW  HW  EP  OW  HW  HW  EP  OW  HW  HW  EP  OW  
HW  HW  EP  OW  HW  HW  EP  OW  HW  HW  EP  OW  HW  HW  EP  OW  HW  HW  EP  OW  
HW  HW  EP  OW  HW  HW  EP  OW  HW  HW  EP  OW  HW  HW  EP  OW  HW  HW  EP  OW  
HW  HW  EP  OW  HW  HW  EP  OW  HW  HW  EP  OW  HW  HW  EP  OW  HW  HW  EP  OW  
HW  HW  EP  OW  HW  HW  EP  OW  HW  HW  EP  OW  HW  HW  EP  OW  HW  HW  EP  OW  
HW  HW  EP  OW  HW  HW  EP  OW  HW  HW  EP  OW  HW  HW  EP  OW  HW  HW  EP  OW  
HW  HW  EP  OW  HW  HW  EP  OW  HW  HW  EP  OW  HW  HW  EP  OW  HW  HW  EP  OW  
HW  HW  EP  OW  HW  HW  EP  OW  HW  HW  EP  OW  HW  HW  EP  OW  HW  HW  EP  OW  
HW  HW  EP  OW  HW  HW  EP  OW  HW  HW  EP  OW  HW  HW  EP  OW  HW  HW  EP  OW  
HW  HW  EP  OW  HW  HW  EP  OW  HW  HW  EP  OW  HW  HW  EP  OW  HW  HW  EP  OW  
HW  HW  EP  OW  HW  HW  EP  OW  HW  HW  EP  OW  HW  HW  EP  OW  HW  HW  EP  OW  
HW  HW  EP  OW  HW  HW  EP  OW  HW  HW  EP  OW  HW  HW  EP  OW  HW  HW  EP  OW  
HW  HW  EP  OW  HW  HW  EP  OW  HW  HW  EP  OW  HW  HW  EP  OW  HW  HW  EP  OW  
HW  HW  EP  OW  HW  HW  EP  OW  HW  HW  EP  OW  HW  HW  EP  OW  HW  HW  EP  OW  
HW  HW  EP  OW  HW  HW  EP  OW  HW  HW  EP  OW  HW  HW  EP  OW  HW  HW  EP  OW  
HW  HW  EP  OW  HW  HW  EP  OW  HW  HW  EP  OW  HW  HW  EP  OW  HW  HW  EP  OW  
HW  HW  EP  OW  HW  HW  EP  OW  HW  HW  EP  OW  HW  HW  EP  OW  HW  HW  EP  OW  
HW  HW  EP  OW  HW  HW  EP  OW  HW  HW  EP  OW  HW  HW  EP  OW  HW  HW  EP  OW  
HW  HW  EP  OW  HW  HW  EP  OW  HW  HW  EP  OW  HW  HW  EP  OW  HW  HW  EP  OW  
HW  HW  EP  OW  HW  HW  EP  OW  HW  HW  EP  OW  HW  HW  EP  OW  HW  HW  EP  OW  
HW  HW  EP  OW  HW  HW  EP  OW  HW  HW  EP  OW  HW  HW  EP  OW  HW  HW  EP  OW  
HW  HW  EP  OW  HW  HW  EP  OW  HW  HW  EP  OW  HW  HW  EP  OW  HW  HW  EP  OW  
HW  HW  EP  OW  HW  HW  EP  OW  HW  HW  EP  OW  HW  HW  EP  OW  HW  HW  EP  OW  
HW  HW  EP  OW  HW  HW  EP  OW  HW  HW  EP  OW  HW  HW  EP  OW  HW  HW  EP  OW  
HW  HW  EP  OW  HW  HW  EP  OW  HW  HW  EP  OW  HW  HW  EP  OW  HW  HW  EP  OW  
HW  HW  EP  OW  HW  HW  EP  OW  HW  HW  EP  OW  HW  HW  EP  OW  HW  HW  EP  OW  
HW  HW  EP  OW  HW  HW  EP  OW  HW  HW  EP  OW  HW  HW  EP  OW  HW  HW  EP  OW  
HW  HW  EP  OW  HW  HW  EP  OW  HW  HW  EP  OW  HW  HW  EP  OW  HW  HW  EP  OW  
HW  HW  EP  OW  HW  HW  EP  OW  HW  HW  EP  OW  HW  HW  EP  OW  HW  HW  EP  OW  
HW  HW  EP  OW  HW  HW  EP  OW  HW  HW  EP  OW  HW  HW  EP  OW  HW  HW  EP  OW  
HW  HW  EP  OW  HW  HW  EP  OW  HW  HW  EP  OW  HW  HW  EP  OW  HW  HW  EP  OW  
HW  HW  EP  OW  HW  HW  EP  OW  HW  HW  EP  OW  HW  HW  EP  OW  HW  HW  EP  OW  
HW  HW  EP  OW  HW  HW  EP  OW  HW  HW  EP  OW  HW  HW  EP  OW  HW  HW  EP  OW  
HW  HW  EP  OW  HW  HW  EP  OW  HW  HW  EP  OW  HW  HW  EP  OW  HW  HW  EP  OW  
HW  HW  EP  OW  HW  HW  EP  OW  HW  HW  EP  OW  HW  HW  EP  OW  HW  HW  EP  OW  
HW  HW  EP  OW  HW  HW  EP  OW  HW  HW  EP  OW  HW  HW  EP  OW  HW  HW  EP  OW  
HW  HW  EP  OW  HW  HW  EP  OW  HW  HW  EP  OW  HW  HW  EP  OW  HW  HW  EP  OW  
HW  HW  EP  OW  HW  HW  EP  OW  HW  HW  EP  OW  HW  HW  EP  OW  HW  HW  EP  OW  
HW  HW  EP  OW  HW  HW  EP  OW  HW  HW  EP  OW  HW  HW  EP  OW  HW  HW  EP  OW  
HW  HW  EP  OW  HW  HW  EP  OW  HW  HW  EP  OW  HW  HW  EP  OW  HW  HW  EP  OW  
HW  HW  EP  OW  HW  HW  EP  OW  HW  HW  EP  OW  HW  HW  EP  OW  HW  HW  EP  OW  
HW  HW  EP  OW  HW  HW  EP  OW  HW  HW  EP  OW  HW  HW  EP  OW  HW  HW  EP  OW  
HW  HW  EP  OW  HW  HW  EP  OW  HW  HW  EP  OW  HW  HW  EP  OW  HW  HW  EP  OW  
HW  HW  EP  OW  HW  HW  EP  OW  HW  HW  EP  OW  HW  HW  EP  OW  HW  HW  EP  OW  
HW  HW  EP  OW  HW  HW  EP  OW  HW  HW  EP  OW  HW  HW  EP  OW  HW  HW  EP  OW  
HW  HW  EP  OW  HW  HW  EP  OW  HW  HW  EP  OW  HW  HW  EP  OW  HW  HW  EP  OW  
HW  HW  EP  OW  HW  HW  EP  OW  HW  HW  EP  OW  HW  HW  EP  OW  HW  HW  EP  OW  
HW  HW  EP  OW  HW  HW  EP  OW  HW  HW  EP  OW  HW  HW  EP  OW  HW  HW  EP  OW  
HW  HW  EP  OW  HW  HW  EP  OW  HW  HW  EP  OW  HW  HW  EP  OW  HW  HW  EP  OW  
HW  HW  EP  OW  HW  HW  EP  OW  HW  HW  EP  OW  HW  HW  EP  OW  HW  HW  EP  OW  
HW  HW  EP  OW  HW  HW  EP  OW  HW  HW  EP  OW  HW  HW  EP  OW  HW  HW  EP  OW  
HW  HW  EP  OW  HW  HW  EP  OW  HW  HW  EP  OW  HW  HW  EP  OW  HW  HW  EP  OW  
HW  HW  EP  OW  HW  HW  EP  OW  HW  HW  EP  OW  HW  HW  EP  OW  HW  HW  EP  OW  
HW  HW  EP  OW  HW  HW  EP  OW  HW  HW  EP  OW  HW  HW  EP  OW  HW  HW  EP  OW  
HW  HW  EP  OW  HW  HW  EP  OW  HW  HW  EP  OW  HW  HW  EP  OW  HW  HW  EP  OW  
HW  HW  EP  OW  HW  HW  EP  OW  HW  HW  EP  OW  HW  HW  EP  OW  HW  HW  EP  OW  
HW  HW  EP  OW  HW  HW  EP  OW  HW  HW  EP  OW  HW  HW  EP  OW  HW  HW  EP  OW  
HW  HW  EP  OW  HW  HW  EP  OW  HW  HW  EP  OW  HW  HW  EP  OW  HW  HW  EP  OW  
HW  HW  EP  OW  HW  HW  EP  OW  HW  HW  EP  OW  HW  HW  EP  OW  HW  HW  EP  OW  
HW  HW  EP  OW  HW  HW  EP  OW  HW  HW  EP  OW  HW  HW  EP  OW  HW  HW  EP  OW  
HW  HW  EP  OW  HW  HW  EP  OW  HW  HW  EP  OW  HW  HW  EP  OW  HW  HW  EP  OW  
HW  HW  EP  OW  HW  HW  EP  OW  HW  HW  EP  OW  HW  HW  EP  OW  HW  HW  EP  OW  
HW  HW  EP  OW  HW  HW  EP  OW  HW  HW  EP  OW  HW  HW  EP  OW  HW  HW  EP  OW  
HW  HW  EP  OW  HW  HW  EP  OW  HW  HW  EP  OW  HW  HW  EP  OW  HW  HW  EP  OW  
HW  HW  EP  OW  HW  HW  EP  OW  HW  HW  EP  OW  HW  HW  EP  OW  HW  HW  EP  OW  
HW  HW  EP  OW  HW  HW  EP  OW  HW  HW  EP  OW  HW  HW  EP  OW  HW  HW  EP  OW  
HW  HW  EP  OW  HW  HW  EP  OW  HW  HW  EP  OW  HW  HW  EP  OW  HW  HW  EP  OW  
HW  HW  EP  OW  HW  HW  EP  OW  HW  HW  EP  OW  HW  HW  EP  OW  HW  HW  EP  OW  
HW  HW  EP  OW  HW  HW  EP  OW  HW  HW  EP  OW  HW  HW  EP  OW  HW  HW  EP  OW  
HW  HW  EP  OW  HW  HW  EP  OW  HW  HW  EP  OW  HW  HW  EP  OW  HW  HW  EP  OW  
HW  HW  EP  OW  HW  HW  EP  OW  HW  HW  EP  OW  HW  HW  EP  OW  HW  HW  EP  OW  
HW  HW  EP  OW  HW  HW  EP  OW  HW  HW  EP  OW  HW  HW  EP  OW  HW  HW  EP  OW  
HW  HW  EP  OW  HW  HW  EP  OW  HW  HW  EP  OW  HW  HW  EP  OW  HW  HW  EP  OW  
HW  HW  EP  OW  HW  HW  EP  OW  HW  HW  EP  OW  HW  HW  EP  OW  HW  HW  EP  OW  
HW  HW  EP  OW  HW  HW  EP  OW  HW  HW  EP  OW  HW  HW  EP  OW  HW  HW  EP  OW  
HW  HW  EP  OW  HW  HW  EP  OW  HW  HW  EP  OW  HW  HW  EP  OW  HW  HW  EP  OW  
HW  HW  EP  OW  HW  HW  EP  OW  HW  HW  EP  OW  HW  HW  EP  OW  HW  HW  EP  OW  
HW  HW  EP  OW  HW  HW  EP  OW  HW  HW  EP  OW  HW  HW  EP  OW  HW  HW  EP  OW  
HW  HW  EP  OW  HW  HW  EP  OW  HW  HW  EP  OW  HW  HW  EP  OW  HW  HW  EP  OW  
HW  HW  EP  OW  HW  HW  EP  OW  HW  HW  EP  OW  HW  HW  EP  OW  HW  HW  EP  OW  
HW  HW  EP  OW  HW  HW  EP  OW  HW  HW  EP  OW  HW  HW  EP  OW  HW  HW  EP  OW  
HW  HW  EP  OW  HW  HW  EP  OW  HW  HW  EP  OW  HW  HW  EP  OW  HW  HW  EP  OW  
HW  HW  EP  OW  HW  HW  EP  OW  HW  HW  EP  OW  HW  HW  EP  OW  HW  HW  EP  OW  
HW  HW  EP  OW  HW  HW  EP  OW  HW  HW  EP  OW  HW  HW  EP  OW  HW  HW  EP  OW  
HW  HW  EP  OW  HW  HW  EP  OW  HW  HW  EP  OW  HW  HW  EP  OW  HW  HW  EP  OW  
HW  HW  EP  OW  HW  HW  EP  OW  HW  HW  EP  OW  HW  HW  EP  OW  HW  HW  EP  OW  
HW  HW  EP  OW  HW  HW  EP  OW  HW  HW  EP  OW  HW  HW  EP  OW  HW  HW  EP  OW  
HW  HW  EP  OW  HW  HW  EP  OW  HW  HW  EP  OW  HW  HW  EP  OW  HW  HW  EP  OW  
HW  HW  EP  OW  HW  HW  EP  OW  HW  HW  EP  OW  HW  HW  EP  OW  HW  HW  EP  OW  
HW  HW  EP  OW  HW  HW  EP  OW  HW  HW  EP  OW  HW  HW  EP  OW  HW  HW  EP  OW  
HW  HW  EP  OW  HW  HW  EP  OW  HW  HW  EP  OW  HW  HW  EP  OW  HW  HW  EP  OW  
HW  HW  EP  OW  HW  HW  EP  OW  HW  HW  EP  OW  HW  HW  EP  OW  HW  HW  EP  OW  
HW  HW  EP  OW  HW  HW  EP  OW  HW  HW  EP  OW  HW  HW  EP  OW  HW  HW  EP  OW  
HW  HW  EP  OW  HW  HW  EP  OW  HW  HW  EP  OW  HW  HW  EP  OW  HW  HW  EP  OW  
HW  HW  EP  OW  HW  HW  EP  OW  HW  HW  EP  OW  HW  HW  EP  OW  HW  HW  EP  OW  
HW  HW  EP  OW  HW  HW  EP  OW  HW  HW  EP  OW  HW  HW  EP  OW  HW  HW  EP  OW  
HW  HW  EP  OW  HW  HW  EP  OW  HW  HW  EP  OW  HW  HW  EP  OW  HW  HW  EP  OW  
HW  HW  EP  OW  HW  HW  EP  OW  HW  HW  EP  OW  HW  HW  EP  OW  HW  HW  EP  OW  
HW  HW  EP  OW  HW  HW  EP  OW  HW  HW  EP  OW  HW  HW  EP  OW  HW  HW  EP  OW  
HW  HW  EP  OW  HW  HW  EP  OW  HW  HW  EP  OW  HW  HW  EP  OW  HW  HW  EP  OW  
HW  HW  EP  OW  HW  HW  EP  OW  HW  HW  EP  OW  HW  HW  EP  OW  HW  HW  EP  OW  
HW  HW  EP  OW  HW  HW  EP  OW  HW  HW  EP  OW  HW  HW  EP  OW  HW  HW  EP  OW  
HW  HW  EP  OW  HW  HW  EP  OW  HW  HW  EP  OW  HW  HW  EP  OW  HW  HW  EP  OW  
HW  HW  EP  OW  HW  HW  EP  OW  HW  HW  EP  OW  HW  HW  EP  OW  HW  HW  EP  OW  
HW  HW  EP  OW  HW  HW  EP  OW  HW  HW  EP  OW  HW  HW  EP  OW  HW  HW  EP  OW  
HW  HW  EP  OW  HW  HW  EP  OW  HW  HW  EP  OW  HW  HW  EP  OW  HW  HW  EP  OW  
HW  HW  EP  OW  HW  HW  EP  OW  HW  HW  EP  OW  HW  HW  EP  OW  HW  HW  EP  OW  
HW  HW  EP  OW  HW  HW  EP  OW  HW  HW  EP  OW  HW  HW  EP  OW  HW  HW  EP  OW  
HW  HW  EP  OW  HW  HW  EP  OW  HW  HW  EP  OW  HW  HW  EP  OW  HW  HW  EP  OW  
HW  HW  EP  OW  HW  HW  EP  OW  HW  HW  EP  OW  HW  HW  EP  OW  HW  HW  EP  OW  
HW  HW  EP  OW  HW  HW  EP  OW  HW  HW  EP  OW  HW  HW  EP  OW  HW  HW  EP  OW  
HW  HW  EP  OW  HW  HW  EP  OW  HW  HW  EP  OW  HW  HW  EP  OW  HW  HW  EP  OW  
HW  HW  EP  OW  HW  HW  EP  OW  HW  HW  EP  OW  HW  HW  EP  OW  HW  HW  EP  OW  
HW  HW  EP  OW  HW  HW  EP  OW  HW  HW  EP  OW  HW  HW  EP  OW  HW  HW  EP  OW  
HW  HW  EP  OW  HW  HW  EP  OW  HW  HW  EP  OW  HW  HW  EP  OW  HW  HW  EP  OW  
HW  HW  EP  OW  HW  HW  EP  OW  HW  HW  EP  OW  HW  HW  EP  OW  HW  HW  EP  OW  
HW  HW  EP  OW  HW  HW  EP  OW  HW  HW  EP  OW  HW  HW  EP  OW  HW  HW  EP  OW  
HW  HW  EP  OW  HW  HW  EP  OW  HW  HW  EP  OW  HW  HW  EP  OW  HW  HW  EP  OW  
HW  HW  EP  OW  HW  HW  EP  OW  HW  HW  EP  OW  HW  HW  EP  OW  HW  HW  EP  OW  
HW  HW  EP  OW  HW  HW  EP  OW  HW  HW  EP  OW  HW  HW  EP  OW  HW  HW  EP  OW  
HW  HW  EP  OW  HW  HW  EP  OW  HW  HW  EP  OW  HW  HW  EP  OW  HW  HW  EP  OW  
HW  HW  EP  OW  HW  HW  EP  OW  HW  HW  EP  OW  HW  HW  EP  OW  HW  HW  EP  OW  
HW  HW  EP  OW  HW  HW  EP  OW  HW  HW  EP  OW  HW  HW  EP  OW  HW  HW  EP  OW  
HW  HW  EP  OW  HW  HW  EP  OW  HW  HW  EP  OW  HW  HW  EP  OW  HW  HW  EP  OW  
HW  HW  EP  OW  HW  HW  EP  OW  HW  HW  EP  OW  HW  HW  EP  OW  HW  HW  EP  OW  
HW  HW  EP  OW  HW  HW  EP  OW  HW  HW  EP  OW  HW  HW  EP  OW  HW  HW  EP  OW  
HW  HW  EP  OW  HW  HW  EP  OW  HW  HW  EP  OW  HW  HW  EP  OW  HW  HW  EP  OW  
HW  HW  EP  OW  HW  HW  EP  OW  HW  HW  EP  OW  HW  HW  EP  OW  HW  HW  EP  OW  
HW  HW  EP  OW  HW  HW  EP  OW  HW  HW  EP  OW  HW  HW  EP  OW  HW  HW  EP  OW  
HW  HW  EP  OW  HW  HW  EP  OW  HW  HW  EP  OW  HW  HW  EP  OW  HW  HW  EP  OW  
HW  HW  EP  OW  HW  HW  EP  OW  HW  HW  EP  OW  HW  HW  EP  OW  HW  HW  EP  OW  
HW  HW  EP  OW  HW  HW  EP  OW  HW  HW  EP  OW  HW  HW  EP  OW  HW  HW  EP  OW  
HW  HW  EP  OW  HW  HW  EP  OW  HW  HW  EP  OW  HW  HW  EP  OW  HW  HW  EP  OW  
HW  HW  EP  OW  HW  HW  EP  OW  HW  HW  EP  OW  HW  HW  EP  OW  HW  HW  EP  OW  
HW  HW  EP  OW  HW  HW  EP  OW  HW  HW  EP  OW  HW  HW  EP  OW  HW  HW  EP  OW  
HW  HW  EP  OW  HW  HW  EP  OW  HW  HW  EP  OW  HW  HW  EP  OW  HW  HW  EP  OW  
HW  HW  EP  OW  HW  HW  EP  OW  HW  HW  EP  OW  HW  HW  EP  OW  HW  HW  EP  OW  
HW  HW  EP  OW  HW  HW  EP  OW  HW  HW  EP  OW  HW  HW  EP  OW  HW  HW  EP  OW  
HW  HW  EP  OW  HW  HW  EP  OW  HW  HW  EP  OW  HW  HW  EP  OW  HW  HW  EP  OW  
HW  HW  EP  OW  HW  HW  EP  OW  HW  HW  EP  OW  HW  HW  EP  OW  HW  HW  EP  OW  
HW  HW  EP  OW  HW  HW  EP  OW  HW  HW  EP  OW  HW  HW  EP  OW  HW  HW  EP  OW  
HW  HW  EP  OW  HW  HW  EP  OW  HW  HW  EP  OW  HW  HW  EP  OW  HW  HW  EP  OW  
HW  HW  EP  OW  HW  HW  EP  OW  HW  HW  EP  OW  HW  HW  EP  OW  HW  HW  EP  OW  
HW  HW  EP  OW  HW  HW  EP  OW  HW  HW  EP  OW  HW  HW  EP  OW  HW  HW  EP  OW  
HW  HW  EP  OW  HW  HW  EP  OW  HW  HW  EP  OW  HW  HW  EP  OW  HW  HW  EP  OW  
HW  HW  EP  OW  HW  HW  EP  OW  HW  HW  EP  OW  HW  HW  EP  OW  HW  HW  EP  OW  
HW  HW  EP  OW  HW  HW  EP  OW  HW  HW  EP  OW  HW  HW  EP  OW  HW  HW  EP  OW  
HW  HW  EP  OW  HW  HW  EP  OW  HW  HW  EP  OW  HW  HW  EP  OW  HW  HW  EP  OW  
HW  HW  EP  OW  HW  HW  EP  OW  HW  HW  EP  OW  HW  HW  EP  OW  HW  HW  EP  OW  
HW  HW  EP  OW  HW  HW  EP  OW  HW  HW  EP  OW  HW  HW  EP  OW  HW  HW  EP  OW  
HW  HW  EP  OW  HW  HW  EP  OW  HW  HW  EP  OW  HW  HW  EP  OW  HW  HW  EP  OW  
HW  HW  EP  OW  HW  HW  EP  OW  HW  HW  EP  OW  HW  HW  EP  OW  HW  HW  EP  OW  
HW  HW  EP  OW  HW  HW  EP  OW  HW  HW  EP  OW  HW  HW  EP  OW  HW  HW  EP  OW  
HW  HW  EP  OW  HW  HW  EP  OW  HW  HW  EP  OW  HW  HW  EP  OW  HW  HW  EP  OW  
HW  HW  EP  OW  HW  HW  EP  OW  HW  HW  EP  OW  HW  HW  EP  OW  HW  HW  EP  OW  
HW  HW  EP  OW  HW  HW  EP  OW  HW  HW  EP  OW  HW  HW  EP  OW  HW  HW  EP  OW  
HW  HW  EP  OW  HW  HW  EP  OW  HW  HW  EP  OW  HW  HW  EP  OW  HW  HW  EP  OW  
HW  HW  EP  OW  HW  HW  EP  OW  HW  HW  EP  OW  HW  HW  EP  OW  HW  HW  EP  OW  
HW  HW  EP  OW  HW  HW  EP  OW  HW  HW  EP  OW  HW  HW  EP  OW  HW  HW  EP  OW  
HW  HW  EP  OW  HW  HW  EP  OW  HW  HW  EP  OW  HW  HW  EP  OW  HW  HW  EP  OW  
HW  HW  EP  OW  HW  HW  EP  OW  HW  HW  EP  OW  HW  HW  EP  OW  HW  HW  EP  OW  
HW  HW  EP  OW  HW  HW  EP  OW  HW  HW  EP  OW  HW  HW  EP  OW  HW  HW  EP  OW  
HW  HW  EP  OW  HW  HW  EP  OW  HW  HW  EP  OW  HW  HW  EP  OW  HW  HW  EP  OW  
HW  HW  EP  OW  HW  HW  EP  OW  HW  HW  EP  OW  HW  HW  EP  OW  HW  HW  EP  OW  
HW  HW  EP  OW  HW  HW  EP  OW  HW  HW  EP  OW  HW  HW  EP  OW  HW  HW  EP  OW  
HW  HW  EP  OW  HW  HW  EP  OW  HW  HW  EP  OW  HW  HW  EP  OW  HW  HW  EP  OW  
HW  HW  EP  OW  HW  HW  EP  OW  HW  HW  EP  OW  HW  HW  EP  OW  HW  HW  EP  OW  
HW  HW  EP  OW  HW  HW  EP  OW  HW  HW  EP  OW  HW  HW  EP  OW  HW  HW  EP  OW  
HW  HW  EP  OW  HW  HW  EP  OW  HW  HW  EP  OW  HW  HW  EP  OW  HW  HW  EP  OW  
HW  HW  EP  OW  HW  HW  EP  OW  HW  HW  EP  OW  HW  HW  EP  OW  HW  HW  EP  OW  
HW  HW  EP  OW  HW  HW  EP  OW  HW  HW  EP  OW  HW  HW  EP  OW  HW  HW  EP  OW  
HW  HW  EP  OW  HW  HW  EP  OW  HW  HW  EP  OW  HW  HW  EP  OW  HW  HW  EP  OW  
HW  HW  EP  OW  HW  HW  EP  OW  HW  HW  EP  OW  HW  HW  EP  OW  HW  HW  EP  OW  
HW  HW  EP  OW  HW  HW  EP  OW  HW  HW  EP  OW  HW  HW  EP  OW  HW  HW  EP  OW  
HW  HW  EP  OW  HW  HW  EP  OW  HW  HW  EP  OW  HW  HW  EP  OW  HW  HW  EP  OW  
HW  HW  EP  OW  HW  HW  EP  OW  HW  HW  EP  OW  HW  HW  EP  OW  HW  HW  EP  OW  
HW  HW  EP  OW  HW  HW  EP  OW  HW  HW  EP  OW  HW  HW  EP  OW  HW  HW  EP  OW  
HW  HW  EP  OW  HW  HW  EP  OW  HW  HW  EP  OW  HW  HW  EP  OW  HW  HW  EP  OW  
HW  HW  EP  OW  HW  HW  EP  OW  HW  HW  EP  OW  HW  HW  EP  OW  HW  HW  EP  OW  
HW  HW  EP  OW  HW  HW  EP  OW  HW  HW  EP  OW  HW  HW  EP  OW  HW  HW  EP  OW  
HW  HW  EP  OW  HW  HW  EP  OW  HW  HW  EP  OW  HW  HW  EP  OW  HW  HW  EP  OW  
HW  HW  EP  OW  HW  HW  EP  OW  HW  HW  EP  OW  HW  HW  EP  OW  HW  HW  EP  OW  
HW  HW  EP  OW  HW  HW  EP  OW  HW  HW  EP  OW  HW  HW  EP  OW  HW  HW  EP  OW  
HW  HW  EP  OW  HW  HW  EP  OW  HW  HW  EP  OW  HW  HW  EP  OW  HW  HW  EP  OW  
HW  HW  EP  OW  HW  HW  EP  OW  HW  HW  EP  OW  HW  HW  EP  OW  HW  HW  EP  OW  
HW  HW  EP  OW  HW  HW  EP  OW  HW  HW  EP  OW  HW  HW  EP  OW  HW  HW  EP  OW  
HW  HW  EP  OW  HW  HW  EP  OW  HW  HW  EP  OW  HW  HW  EP  OW  HW  HW  EP  OW  
HW  HW  EP  OW  HW  HW  EP  OW  HW  HW  EP  OW  HW  HW  EP  OW  HW  HW  EP  OW  
HW  HW  EP  OW  HW  HW  EP  OW  HW  HW  EP  OW  HW  HW  EP  OW  HW  HW  EP  OW  
HW  HW  EP  OW  HW  HW  EP  OW  HW  HW  EP  OW  HW  HW  EP  OW  HW  HW  EP  OW  
HW  HW  EP  OW  HW  HW  EP  OW  HW  HW  EP  OW  HW  HW  EP  OW  HW  HW  EP  OW  
HW  HW  EP  OW  HW  HW  EP  OW  HW  HW  EP  OW  HW  HW  EP  OW  HW  HW  EP  OW  
HW  HW  EP  OW  HW  HW  EP  OW  HW  HW  EP  OW  HW  HW  EP  OW  HW  HW  EP  OW  
HW  HW  EP  OW  HW  HW  EP  OW  HW  HW  EP  OW  HW  HW  EP  OW  HW  HW  EP  OW  
HW  HW  EP  OW  HW  HW  EP  OW  HW  HW  EP  OW  HW  HW  EP  OW  HW  HW  EP  OW  
HW  HW  EP  OW  HW  HW  EP  OW  HW  HW  EP  OW  HW  HW  EP  OW  HW  HW  EP  OW  
HW  HW  EP  OW  HW  HW  EP  OW  HW  HW  EP  OW  HW  HW  EP  OW  HW  HW  EP  OW  
HW  HW  EP  OW  HW  HW  EP  OW  HW  HW  EP  OW  HW  HW  EP  OW  HW  HW  EP  OW  
HW  HW  EP  OW  HW  HW  EP  OW  HW  HW  EP  OW  HW  HW  EP  OW  HW  HW  EP  OW  
HW  HW  EP  OW  HW  HW  EP  OW  HW  HW  EP  OW  HW  HW  EP  OW  HW  HW  EP  OW  
HW  HW  EP  OW  HW  HW  EP  OW  HW  HW  EP  OW  HW  HW  EP  OW  HW  HW  EP  OW  
HW  HW  EP  OW  HW  HW  EP  OW  HW  HW  EP  OW  HW  HW  EP  OW  HW  HW  EP  OW  
HW  HW  EP  OW  HW  HW  EP  OW  HW  HW  EP  OW  HW  HW  EP  OW  HW  HW  EP  OW  
HW  HW  EP  OW  HW  HW  EP  OW  HW  HW  EP  OW  HW  HW  EP  OW  HW  HW  EP  OW  
HW  HW  EP  OW  HW  HW  EP  OW  HW  HW  EP  OW  HW  HW  EP  OW  HW  HW  EP  OW  
HW  HW  EP  OW  HW  HW  EP  OW  HW  HW  EP  OW  HW  HW  EP  OW  HW  HW  EP  OW  
HW  HW  EP  OW  HW  HW  EP  OW  HW  HW  EP  OW  HW  HW  EP  OW  HW  HW  EP  OW  
HW  HW  EP  OW  HW  HW  EP  OW  HW  HW  EP  OW  HW  HW  EP  OW  HW  HW  EP  OW  
HW  HW  EP  OW  HW  HW  EP  OW  HW  HW  EP  OW  HW  HW  EP  OW  HW  HW  EP  OW  
HW  HW  EP  OW  HW  HW  EP  OW  HW  HW  EP  OW  HW  HW  EP  OW  HW  HW  EP  OW  
HW  HW  EP  OW  HW  HW  EP  OW  HW  HW  EP  OW  HW  HW  EP  OW  HW  HW  EP  OW  
HW  HW  EP  OW  HW  HW  EP  OW  HW  HW  EP  OW  HW  HW  EP  OW  HW  HW  EP  OW  
HW  HW  EP  OW  HW  HW  EP  OW  HW  HW  EP  OW  HW  HW  EP  OW  HW  HW  EP  OW  
HW  HW  EP  OW  HW  HW  EP  OW  HW  HW  EP  OW  HW  HW  EP  OW  HW  HW  EP  OW  
HW  HW  EP  OW  HW  HW  EP  OW  HW  HW  EP  OW  HW  HW  EP  OW  HW  HW  EP  OW  
HW  HW  EP  OW  HW  HW  EP  OW  HW  HW  EP  OW  HW  HW  EP  OW  HW  HW  EP  OW  
HW  HW  EP  OW  HW  HW  EP  OW  HW  HW  EP  OW  HW  HW  EP  OW  HW  HW  EP  OW  
HW  HW  EP  OW  HW  HW  EP  OW  HW  HW  EP  OW  HW  HW  EP  OW  HW  HW  EP  OW  
HW  HW  EP  OW  HW  HW  EP  OW  HW  HW  EP  OW  HW  HW  EP  OW  HW  HW  EP  OW  
HW  HW  EP  OW  HW  HW  EP  OW  HW  HW  EP  OW  HW  HW  EP  OW  HW  HW  EP  OW  
HW  HW  EP  OW  HW  HW  EP  OW  HW  HW  EP  OW  HW  HW  EP  OW  HW  HW  EP  OW  
HW  HW  EP  OW  HW  HW  EP  OW  HW  HW  EP  OW  HW  HW  EP  OW  HW  HW  EP  OW  
HW  HW  EP  OW  HW  HW  EP  OW  HW  HW  EP  OW  HW  HW  EP  OW  HW  HW  EP  OW  
HW  HW  EP  OW  HW  HW  EP  OW  HW  HW  EP  OW  HW  HW  EP  OW  HW  HW  EP  OW  
HW  HW  EP  OW  HW  HW  EP  OW  HW  HW  EP  OW  HW  HW  EP  OW  HW  HW  EP  OW  
HW  HW  EP  OW  HW  HW  EP  OW  HW  HW  EP  OW  HW  HW  EP  OW  HW  HW  EP  OW  
HW  HW  EP  OW  HW  HW  EP  OW  HW  HW  EP  OW  HW  HW  EP  OW  HW  HW  EP  OW  
HW  HW  EP  OW  HW  HW  EP  OW  HW  HW  EP  OW  HW  HW  EP  OW  HW  HW  EP  OW  
HW  HW  EP  OW  HW  HW  EP  OW  HW  HW  EP  OW  HW  HW  EP  OW  HW  HW  EP  OW  
HW  HW  EP  OW  HW  HW  EP  OW  HW  HW  EP  OW  HW  HW  EP  OW  HW  HW  EP  OW  
HW  HW  EP  OW  HW  HW  EP  OW  HW  HW  EP  OW  HW  HW  EP  OW  HW  HW  EP  OW  
HW  HW  EP  OW  HW  HW  EP  OW  HW  HW  EP  OW  HW  HW  EP  OW  HW  HW  EP  OW  
HW  HW  EP  OW  HW  HW  EP  OW  HW  HW  EP  OW  HW  HW  EP  OW  HW  HW  EP  OW  
HW  HW  EP  OW  HW  HW  EP  OW  HW  HW  EP  OW  HW  HW  EP  OW  HW  HW  EP  OW  
HW  HW  EP  OW  HW  HW  EP  OW  HW  HW  EP  OW  HW  HW  EP  OW  HW  HW  EP  OW  
HW  HW  EP  OW  HW  HW  EP  OW  HW  HW  EP  OW  HW  HW  EP  OW  HW  HW  EP  OW  
HW  HW  EP  OW  HW  HW  EP  OW  HW  HW  EP  OW  HW  HW  EP  OW  HW  HW  EP  OW  
HW  HW  EP  OW  HW  HW  EP  OW  HW  HW  EP  OW  HW  HW  EP  OW  HW  HW  EP  OW  
HW  HW  EP  OW  HW  HW  EP  OW  HW  HW  EP  OW  HW  HW  EP  OW  HW  HW  EP  OW  
HW  HW  EP  OW  HW  HW  EP  OW  HW  HW  EP  OW  HW  HW  EP  OW  HW  HW  EP  OW  
HW  HW  EP  OW  HW  HW  EP  OW  HW  HW  EP  OW  HW  HW  EP  OW  HW  HW  EP  OW  
HW  HW  EP  OW  HW  HW  EP  OW  HW  HW  EP  OW  HW  HW  EP  OW  HW  HW  EP  OW  
HW  HW  EP  OW  HW  HW  EP  OW  HW  HW  EP  OW  HW  HW  EP  OW  HW  HW  EP  OW  
HW  HW  EP  OW  HW  HW  EP  OW  HW  HW  EP  OW  HW  HW  EP  OW  HW  HW  EP  OW  
HW  HW  EP  OW  HW  HW  EP  OW  HW  HW  EP  OW  HW  HW  EP  OW  HW  HW  EP  OW  
HW  HW  EP  OW  HW  HW  EP  OW  HW  HW  EP  OW  HW  HW  EP  OW  HW  HW  EP  OW  
HW  HW  EP  OW  HW  HW  EP  OW  HW  HW  EP  OW  HW  HW  EP  OW  HW  HW  EP  OW  
HW  HW  EP  OW  HW  HW  EP  OW  HW  HW  EP  OW  HW  HW  EP  OW  HW  HW  EP  OW  
HW  HW  EP  OW  HW  HW  EP  OW  HW  HW  EP  OW  HW  HW  EP  OW  HW  HW  EP  OW  
HW  HW  EP  OW  HW  HW  EP  OW  HW  HW  EP  OW  HW  HW  EP  OW  HW  HW  EP  OW  
HW  HW  EP  OW  HW  HW  EP  OW  HW  HW  EP  OW  HW  HW  EP  OW  HW  HW  EP  OW  
HW  HW  EP  OW  HW  HW  EP  OW  HW  HW  EP  OW  HW  HW  EP  OW  HW  HW  EP  OW  
HW  HW  EP  OW  HW  HW  EP  OW  HW  HW  EP  OW  HW  HW  EP  OW  HW  HW  EP  OW  
HW  HW  EP  OW  HW  HW  EP  OW  HW  HW  EP  OW  HW  HW  EP  OW  HW  HW  EP  OW  
HW  HW  EP  OW  HW  HW  EP  OW  HW  HW  EP  OW  HW  HW  EP  OW  HW  HW  EP  OW  
HW  HW  EP  OW  HW  HW  EP  OW  HW  HW  EP  OW  HW  HW  EP  OW  HW  HW  EP  OW  
HW  HW  EP  OW  HW  HW  EP  OW  HW  HW  EP  OW  HW  HW  EP  OW  HW  HW  EP  OW  
HW  HW  EP  OW  HW  HW  EP  OW  HW  HW  EP  OW  HW  HW  EP  OW  HW  HW  EP  OW  
HW  HW  EP  OW  HW  HW  EP  OW  HW  HW  EP  OW  HW  HW  EP  OW  HW  HW  EP  OW  
HW  HW  EP  OW  HW  HW  EP  OW  HW  HW  EP  OW  HW  HW  EP  OW  HW  HW  EP  OW  
HW  HW  EP  OW  HW  HW  EP  OW  HW  HW  EP  OW  HW  HW  EP  OW  HW  HW  EP  OW  
HW  HW  EP  OW  HW  HW  EP  OW  HW  HW  EP  OW  HW  HW  EP  OW  HW  HW  EP  OW  
HW  HW  EP  OW  HW  HW  EP  OW  HW  HW  EP  OW  HW  HW  EP  OW  HW  HW  EP  OW  
HW  HW  EP  OW  HW  HW  EP  OW  HW  HW  EP  OW  HW  HW  EP  OW  HW  HW  EP  OW  
HW  HW  EP  OW  HW  HW  EP  OW  HW  HW  EP  OW  HW  HW  EP  OW  HW  HW  EP  OW  
HW  HW  EP  OW  HW  HW  EP  OW  HW  HW  EP  OW  HW  HW  EP  OW  HW  HW  EP  OW  
HW  HW  EP  OW  HW  HW  EP  OW  HW  HW  EP  OW  HW  HW  EP  OW  HW  HW  EP  OW  
HW  HW  EP  OW  HW  HW  EP  OW  HW  HW  EP  OW  HW  HW  EP  OW  HW  HW  EP  OW  
HW  HW  EP  OW  HW  HW  EP  OW  HW  HW  EP  OW  HW  HW  EP  OW  HW  HW  EP  OW  
HW  HW  EP  OW  HW  HW  EP  OW  HW  HW  EP  OW  HW  HW  EP  OW  HW  HW  EP  OW  
HW  HW  EP  OW  HW  HW  EP  OW  HW  HW  EP  OW  HW  HW  EP  OW  HW  HW  EP  OW  
HW  HW  EP  OW  HW  HW  EP  OW  HW  HW  EP  OW  HW  HW  EP  OW  HW  HW  EP  OW  
HW  HW  EP  OW  HW  HW  EP  OW  HW  HW  EP  OW  HW  HW  EP  OW  HW  HW  EP  OW  
HW  HW  EP  OW  HW  HW  EP  OW  HW  HW  EP  OW  HW  HW  EP  OW  HW  HW  EP  OW  
HW  HW  EP  OW  HW  HW  EP  OW  HW  HW  EP  OW  HW  HW  EP  OW  HW  HW  EP  OW  
HW  HW  EP  OW  HW  HW  EP  OW  HW  HW  EP  OW  HW  HW  EP  OW  HW  HW  EP  OW  
HW  HW  EP  OW  HW  HW  EP  OW  HW  HW  EP  OW  HW  HW  EP  OW  HW  HW  EP  OW  
HW  HW  EP  OW  HW  HW  EP  OW  HW  HW  EP  OW  HW  HW  EP  OW  HW  HW  EP  OW  
HW  HW  EP  OW  HW  HW  EP  OW  HW  HW  EP  OW  HW  HW  EP  OW  HW  HW  EP  OW  
HW  HW  EP  OW  HW  HW  EP  OW  HW  HW  EP  OW  HW  HW  EP  OW  HW  HW  EP  OW  
HW  HW  EP  OW  HW  HW  EP  OW  HW  HW  EP  OW  HW  HW  EP  OW  HW  HW  EP  OW  
HW  HW  EP  OW  HW  HW  EP  OW  HW  HW  EP  OW  HW  HW  EP  OW  HW  HW  EP  OW  
HW  HW  EP  OW  HW  HW  EP  OW  HW  HW  EP  OW  HW  HW  EP  OW  HW  HW  EP  OW  
HW  HW  EP  OW  HW  HW  EP  OW  HW  HW  EP  OW  HW  HW  EP  OW  HW  HW  EP  OW  
HW  HW  EP  OW  HW  HW  EP  OW  HW  HW  EP  OW  HW  HW  EP  OW  HW  HW  EP  OW  
HW  HW  EP  OW  HW  HW  EP  OW  HW  HW  EP  OW  HW  HW  EP  OW  HW  HW  EP  OW  
HW  HW  EP  OW  HW  HW  EP  OW  HW  HW  EP  OW  HW  HW  EP  OW  HW  HW  EP  OW  
HW  HW  EP  OW  HW  HW  EP  OW  HW  HW  EP  OW  HW  HW  EP  OW  HW  HW  EP  OW  
HW  HW  EP  OW  HW  HW  EP  OW  HW  HW  EP  OW  HW  HW  EP  OW  HW  HW  EP  OW  
HW  HW  EP  OW  HW  HW  EP  OW  HW  HW  EP  OW  HW  HW  EP  OW  HW  HW  EP  OW  
HW  HW  EP  OW  HW  HW  EP  OW  HW  HW  EP  OW  HW  HW  EP  OW  HW  HW  EP  OW  
HW  HW  EP  OW  HW  HW  EP  OW  HW  HW  EP  OW  HW  HW  EP  OW  HW  HW  EP  OW  
HW  HW  EP  OW  HW  HW  EP  OW  HW  HW  EP  OW  HW  HW  EP  OW  HW  HW  EP  OW  
HW  HW  EP  OW  HW  HW  EP  OW  HW  HW  EP  OW  HW  HW  EP  OW  HW  HW  EP  OW  
HW  HW  EP  OW  HW  HW  EP  OW  HW  HW  EP  OW  HW  HW  EP  OW  HW  HW  EP  OW  
HW  HW  EP  OW  HW  HW  EP  OW  HW  HW  EP  OW  HW  HW  EP  OW  HW  HW  EP  OW  
HW  HW  EP  OW  HW  HW  EP  OW  HW  HW  EP  OW  HW  HW  EP  OW  HW  HW  EP  OW  
HW  HW  EP  OW  HW  HW  EP  OW  HW  HW  EP  OW  HW  HW  EP  OW  HW  HW  EP  OW  
HW  HW  EP  OW  HW  HW  EP  OW  HW  HW  EP  OW  HW  HW  EP  OW  HW  HW  EP  OW  
HW  HW  EP  OW  HW  HW  EP  OW  HW  HW  EP  OW  HW  HW  EP  OW  HW  HW  EP  OW  
HW  HW  EP  OW  HW  HW  EP  OW  HW  HW  EP  OW  HW  HW  EP  OW  HW  HW  EP  OW  
HW  HW  EP  OW  HW  HW  EP  OW  HW  HW  EP  OW  HW  HW  EP  OW  HW  HW  EP  OW  
HW  HW  EP  OW  HW  HW  EP  OW  HW  HW  EP  OW  HW  HW  EP  OW  HW  HW  EP  OW  
HW  HW  EP  OW  HW  HW  EP  OW  HW  HW  EP  OW  HW  HW  EP  OW  HW  HW  EP  OW  
HW  HW  EP  OW  HW  HW  EP  OW  HW  HW  EP  OW  HW  HW  EP  OW  HW  HW  EP  OW  
HW  HW  EP  OW  HW  HW  EP  OW  HW  HW  EP  OW  HW  HW  EP  OW  HW  HW  EP  OW  
HW  HW  EP  OW  HW  HW  EP  OW  HW  HW  EP  OW  HW  HW  EP  OW  HW  HW  EP  OW  
HW  HW  EP  OW  HW  HW  EP  OW  HW  HW  EP  OW  HW  HW  EP  OW  HW  HW  EP  OW  
HW  HW  EP  OW  HW  HW  EP  OW  HW  HW  EP  OW  HW  HW  EP  OW  HW  HW  EP  OW  
HW  HW  EP  OW  HW  HW  EP  OW  HW  HW  EP  OW  HW  HW  EP  OW  HW  HW  EP  OW  
HW  HW  EP  OW  HW  HW  EP  OW  HW  HW  EP  OW  HW  HW  EP  OW  HW  HW  EP  OW  
HW  HW  EP  OW  HW  HW  EP  OW  HW  HW  EP  OW  HW  HW  EP  OW  HW  HW  EP  OW  
HW  HW  EP  OW  HW  HW  EP  OW  HW  HW  EP  OW  HW  HW  EP  OW  HW  HW  EP  OW  
HW  HW  EP  OW  HW  HW  EP  OW  HW  HW  EP  OW  HW  HW  EP  OW  HW  HW  EP  OW  
HW  HW  EP  OW  HW  HW  EP  OW  HW  HW  EP  OW  HW  HW  EP  OW  HW  HW  EP  OW  
HW  HW  EP  OW  HW  HW  EP  OW  HW  HW  EP  OW  HW  HW  EP  OW  HW  HW  EP  OW  
HW  HW  EP  OW  HW  HW  EP  OW  HW  HW  EP  OW  HW  HW  EP  OW  HW  HW  EP  OW  
HW  HW  EP  OW  HW  HW  EP  OW  HW  HW  EP  OW  HW  HW  EP  OW  HW  HW  EP  OW  
HW  HW  EP  OW  HW  HW  EP  OW  HW  HW  EP  OW  HW  HW  EP  OW  HW  HW  EP  OW  
HW  HW  EP  OW  HW  HW  EP  OW  HW  HW  EP  OW  HW  HW  EP  OW  HW  HW  EP  OW  
HW  HW  EP  OW  HW  HW  EP  OW  HW  HW  EP  OW  HW  HW  EP  OW  HW  HW  EP  OW  
HW  HW  EP  OW  HW  HW  EP  OW  HW  HW  EP  OW  HW  HW  EP  OW  HW  HW  EP  OW  
HW  HW  EP  OW  HW  HW  EP  OW  HW  HW  EP  OW  HW  HW  EP  OW  HW  HW  EP  OW  
HW  HW  EP  OW  HW  HW  EP  OW  HW  HW  EP  OW  HW  HW  EP  OW  HW  HW  EP  OW  
HW  HW  EP  OW  HW  HW  EP  OW  HW  HW  EP  OW  HW  HW  EP  OW  HW  HW  EP  OW  
HW  HW  EP  OW  HW  HW  EP  OW  HW  HW  EP  OW  HW  HW  EP  OW  HW  HW  EP  OW  
HW  HW  EP  OW  HW  HW  EP  OW  HW  HW  EP  OW  HW  HW  EP  OW  HW  HW  EP  OW  
HW  HW  EP  OW  HW  HW  EP  OW  HW  HW  EP  OW  HW  HW  EP  OW  HW  HW  EP  OW  
HW  HW  EP  OW  HW  HW  EP  OW  HW  HW  EP  OW  HW  HW  EP  OW  HW  HW  EP  OW  
HW  HW  EP  OW  HW  HW  EP  OW  HW  HW  EP  OW  HW  HW  EP  OW  HW  HW  EP  OW  
HW  HW  EP  OW  HW  HW  EP  OW  HW  HW  EP  OW  HW  HW  EP  OW  HW  HW  EP  OW  
HW  HW  EP  OW  HW  HW  EP  OW  HW  HW  EP  OW  HW  HW  EP  OW  HW  HW  EP  OW  
HW  HW  EP  OW  HW  HW  EP  OW  HW  HW  EP  OW  HW  HW  EP  OW  HW  HW  EP  OW  
HW  HW  EP  OW  HW  HW  EP  OW  HW  HW  EP  OW  HW  HW  EP  OW  HW  HW  EP  OW  
HW  HW  EP  OW  HW  HW  EP  OW  HW  HW  EP  OW  HW  HW  EP  OW  HW  HW  EP  OW  
HW  HW  EP  OW  HW  HW  EP  OW  HW  HW  EP  OW  HW  HW  EP  OW  HW  HW  EP  OW  
HW  HW  EP  OW  HW  HW  EP  OW  HW  HW  EP  OW  HW  HW  EP  OW  HW  HW  EP  OW  
HW  HW  EP  OW  HW  HW  EP  OW  HW  HW  EP  OW  HW  HW  EP  OW  HW  HW  EP  OW  
HW  HW  EP  OW  HW  HW  EP  OW  HW  HW  EP  OW  HW  HW  EP  OW  HW  HW  EP  OW  
HW  HW  EP  OW  HW  HW  EP  OW  HW  HW  EP  OW  HW  HW  EP  OW  HW  HW  EP  OW  
HW  HW  EP  OW  HW  HW  EP  OW  HW  HW  EP  OW  HW  HW  EP  OW  HW  HW  EP  OW  
HW  HW  EP  OW  HW  HW  EP  OW  HW  HW  EP  OW  HW  HW  EP  OW  HW  HW  EP  OW  
HW  HW  EP  OW  HW  HW  EP  OW  HW  HW  EP  OW  HW  HW  EP  OW  HW  HW  EP  OW  
HW  HW  EP  OW  HW  HW  EP  OW  HW  HW  EP  OW  HW  HW  EP  OW  HW  HW  EP  OW  
HW  HW  EP  OW  HW  HW  EP  OW  HW  HW  EP  OW  HW  HW  EP  OW  HW  HW  EP  OW  
HW  HW  EP  OW  HW  HW  EP  OW  HW  HW  EP  OW  HW  HW  EP  OW  HW  HW  EP  OW  
HW  HW  EP  OW  HW  HW  EP  OW  HW  HW  EP  OW  HW  HW  EP  OW  HW  HW  EP  OW  
HW  HW  EP  OW  HW  HW  EP  OW  HW  HW  EP  OW  HW  HW  EP  OW  HW  HW  EP  OW  
HW  HW  EP  OW  HW  HW  EP  OW  HW  HW  EP  OW  HW  HW  EP  OW  HW  HW  EP  OW  
HW  HW  EP  OW  HW  HW  EP  OW  HW  HW  EP  OW  HW  HW  EP  OW  HW  HW  EP  OW  
HW  HW  EP  OW  HW  HW  EP  OW  HW  HW  EP  OW  HW  HW  EP  OW  HW  HW  EP  OW  
HW  HW  EP  OW  HW  HW  EP  OW  HW  HW  EP  OW  HW  HW  EP  OW  HW  HW  EP  OW  
HW  HW  EP  OW  HW  HW  EP  OW  HW  HW  EP  OW  HW  HW  EP  OW  HW  HW  EP  OW  
HW  HW  EP  OW  HW  HW  EP  OW  HW  HW  EP  OW  HW  HW  EP  OW  HW  HW  EP  OW  
HW  HW  EP  OW  HW  HW  EP  OW  HW  HW  EP  OW  HW  HW  EP  OW  HW  HW  EP  OW  
HW  HW  EP  OW  HW  HW  EP  OW  HW  HW  EP  OW  HW  HW  EP  OW  HW  HW  EP  OW  
HW  HW  EP  OW  HW  HW  EP  OW  HW  HW  EP  OW  HW  HW  EP  OW  HW  HW  EP  OW  
HW  HW  EP  OW  HW  HW  EP  OW  HW  HW  EP  OW  HW  HW  EP  OW  HW  HW  EP  OW  
HW  HW  EP  OW  HW  HW  EP  OW  HW  HW  EP  OW  HW  HW  EP  OW  HW  HW  EP  OW  
HW  HW  EP  OW  HW  HW  EP  OW  HW  HW  EP  OW  HW  HW  EP  OW  HW  HW  EP  OW  
HW  HW  EP  OW  HW  HW  EP  OW  HW  HW  EP  OW  HW  HW  EP  OW  HW  HW  EP  OW  
HW  HW  EP  OW  HW  HW  EP  OW  HW  HW  EP  OW  HW  HW  EP  OW  HW  HW  EP  OW  
HW  HW  EP  OW  HW  HW  EP  OW  HW  HW  EP  OW  HW  HW  EP  OW  HW  HW  EP  OW  
HW  HW  EP  OW  HW  HW  EP  OW  HW  HW  EP  OW  HW  HW  EP  OW  HW  HW  EP  OW  
HW  HW  EP  OW  HW  HW  EP  OW  HW  HW  EP  OW  HW  HW  EP  OW  HW  HW  EP  OW  
HW  HW  EP  OW  HW  HW  EP  OW  HW  HW  EP  OW  HW  HW  EP  OW  HW  HW  EP  OW  
HW  HW  EP  OW  HW  HW  EP  OW  HW  HW  EP  OW  HW  HW  EP  OW  HW  HW  EP  OW  
HW  HW  EP  OW  HW  HW  EP  OW  HW  HW  EP  OW  HW  HW  EP  OW  HW  HW  EP  OW  
HW  HW  EP  OW  HW  HW  EP  OW  HW  HW  EP  OW  HW  HW  EP  OW  HW  HW  EP  OW  
HW  HW  EP  OW  HW  HW  EP  OW  HW  HW  EP  OW  HW  HW  EP  OW  HW  HW  EP  OW  
HW  HW  EP  OW  HW  HW  EP  OW  HW  HW  EP  OW  HW  HW  EP  OW  HW  HW  EP  OW  
HW  HW  EP  OW  HW  HW  EP  OW  HW  HW  EP  OW  HW  HW  EP  OW  HW  HW  EP  OW  
HW  HW  EP  OW  HW  HW  EP  OW  HW  HW  EP  OW  HW  HW  EP  OW  HW  HW  EP  OW  
HW  HW  EP  OW  HW  HW  EP  OW  HW  HW  EP  OW  HW  HW  EP  OW  HW  HW  EP  OW  
HW  HW  EP  OW  HW  HW  EP  OW  HW  HW  EP  OW  HW  HW  EP  OW  HW  HW  EP  OW  
HW  HW  EP  OW  HW  HW  EP  OW  HW  HW  EP  OW  HW  HW  EP  OW  HW  HW  EP  OW  
HW  HW  EP  OW  HW  HW  EP  OW  HW  HW  EP  OW  HW  HW  EP  OW  HW  HW  EP  OW  
HW  HW  EP  OW  HW  HW  EP  OW  HW  HW  EP  OW  HW  HW  EP  OW  HW  HW  EP  OW  
HW  HW  EP  OW  HW  HW  EP  OW  HW  HW  EP  OW  HW  HW  EP  OW  HW  HW  EP  OW  
HW  HW  EP  OW  HW  HW  EP  OW  HW  HW  EP  OW  HW  HW  EP  OW  HW  HW  EP  OW  
HW  HW  EP  OW  HW  HW  EP  OW  HW  HW  EP  OW  HW  HW  EP  OW  HW  HW  EP  OW  
HW  HW  EP  OW  HW  HW  EP  OW  HW  HW  EP  OW  HW  HW  EP  OW  HW  HW  EP  OW  
HW  HW  EP  OW  HW  HW  EP  OW  HW  HW  EP  OW  HW  HW  EP  OW  HW  HW  EP  OW  
HW  HW  EP  OW  HW  HW  EP  OW  HW  HW  EP  OW  HW  HW  EP  OW  HW  HW  EP  OW  
HW  HW  EP  OW  HW  HW  EP  OW  HW  HW  EP  OW  HW  HW  EP  OW  HW  HW  EP  OW  
HW  HW  EP  OW  HW  HW  EP  OW  HW  HW  EP  OW  HW  HW  EP  OW  HW  HW  EP  OW  
HW  HW  EP  OW  HW  HW  EP  OW  HW  HW  EP  OW  HW  HW  EP  OW  HW  HW  EP  OW  
HW  HW  EP  OW  HW  HW  EP  OW  HW  HW  EP  OW  HW  HW  EP  OW  HW  HW  EP  OW  
HW  HW  EP  OW  HW  HW  EP  OW  HW  HW  EP  OW  HW  HW  EP  OW  HW  HW  EP  OW  
HW  HW  EP  OW  HW  HW  EP  OW  HW  HW  EP  OW  HW  HW  EP  OW  HW  HW  EP  OW  
HW  HW  EP  OW  HW  HW  EP  OW  HW  HW  EP  OW  HW  HW  EP  OW  HW  HW  EP  OW  
HW  HW  EP  OW  HW  HW  EP  OW  HW  HW  EP  OW  HW  HW  EP  OW  HW  HW  EP  OW  
HW  HW  EP  OW  HW  HW  EP  OW  HW  HW  EP  OW  HW  HW  EP  OW  HW  HW  EP  OW  
HW  HW  EP  OW  HW  HW  EP  OW  HW  HW  EP  OW  HW  HW  EP  OW  HW  HW  EP  OW  
HW  HW  EP  OW  HW  HW  EP  OW  HW  HW  EP  OW  HW  HW  EP  OW  HW  HW  EP  OW  
HW  HW  EP  OW  HW  HW  EP  OW  HW  HW  EP  OW  HW  HW  EP  OW  HW  HW  EP  OW  
HW  HW  EP  OW  HW  HW  EP  OW  HW  HW  EP  OW  HW  HW  EP  OW  HW  HW  EP  OW  
HW  HW  EP  OW  HW  HW  EP  OW  HW  HW  EP  OW  HW  HW  EP  OW  HW  HW  EP  OW  
HW  HW  EP  OW  HW  HW  EP  OW  HW  HW  EP  OW  HW  HW  EP  OW  HW  HW  EP  OW  
HW  HW  EP  OW  HW  HW  EP  OW  HW  HW  EP  OW  HW  HW  EP  OW  HW  HW  EP  OW  
HW  HW  EP  OW  HW  HW  EP  OW  HW  HW  EP  OW  HW  HW  EP  OW  HW  HW  EP  OW  
HW  HW  EP  OW  HW  HW  EP  OW  HW  HW  EP  OW  HW  HW  EP  OW  HW  HW  EP  OW  
HW  HW  EP  OW  HW  HW  EP  OW  HW  HW  EP  OW  HW  HW  EP  OW  HW  HW  EP  OW  
HW  HW  EP  OW  HW  HW  EP  OW  HW  HW  EP  OW  HW  HW  EP  OW  HW  HW  EP  OW  
HW  HW  EP  OW  HW  HW  EP  OW  HW  HW  EP  OW  HW  HW  EP  OW  HW  HW  EP  OW  
HW  HW  EP  OW  HW  HW  EP  OW  HW  HW  EP  OW  HW  HW  EP  OW  HW  HW  EP  OW  
HW  HW  EP  OW  HW  HW  EP  OW  HW  HW  EP  OW  HW  HW  EP  OW  HW  HW  EP  OW  
HW  HW  EP  OW  HW  HW  EP  OW  HW  HW  EP  OW  HW  HW  EP  OW  HW  HW  EP  OW  
HW  HW  EP  OW  HW  HW  EP  OW  HW  HW  EP  OW  HW  HW  EP  OW  HW  HW  EP  OW  
HW  HW  EP  OW  HW  HW  EP  OW  HW  HW  EP  OW  HW  HW  EP  OW  HW  HW  EP  OW  
HW  HW  EP  OW  HW  HW  EP  OW  HW  HW  EP  OW  HW  HW  EP  OW  HW  HW  EP  OW  
HW  HW  EP  OW  HW  HW  EP  OW  HW  HW  EP  OW  HW  HW  EP  OW  HW  HW  EP  OW  
HW  HW  EP  OW  HW  HW  EP  OW  HW  HW  EP  OW  HW  HW  EP  OW  HW  HW  EP  OW  
HW  HW  EP  OW  HW  HW  EP  OW  HW  HW  EP  OW  HW  HW  EP  OW  HW  HW  EP  OW  
HW  HW  EP  OW  HW  HW  EP  OW  HW  HW  EP  OW  HW  HW  EP  OW  HW  HW  EP  OW  
HW  HW  EP  OW  HW  HW  EP  OW  HW  HW  EP  OW  HW  HW  EP  OW  HW  HW  EP  OW  
HW  HW  EP  OW  HW  HW  EP  OW  HW  HW  EP  OW  HW  HW  EP  OW  HW  HW  EP  OW  
HW  HW  EP  OW  HW  HW  EP  OW  HW  HW  EP  OW  HW  HW  EP  OW  HW  HW  EP  OW  
HW  HW  EP  OW  HW  HW  EP  OW  HW  HW  EP  OW  HW  HW  EP  OW  HW  HW  EP  OW  
HW  HW  EP  OW  HW  HW  EP  OW  HW  HW  EP  OW  HW  HW  EP  OW  HW  HW  EP  OW  
HW  HW  EP  OW  HW  HW  EP  OW  HW  HW  EP  OW  HW  HW  EP  OW  HW  HW  EP  OW  
HW  HW  EP  OW  HW  HW  EP  OW  HW  HW  EP  OW  HW  HW  EP  OW  HW  HW  EP  OW  
HW  HW  EP  OW  HW  HW  EP  OW  HW  HW  EP  OW  HW  HW  EP  OW  HW  HW  EP  OW  
HW  HW  EP  OW  HW  HW  EP  OW  HW  HW  EP  OW  HW  HW  EP  OW  HW  HW  EP  OW  
HW  HW  EP  OW  HW  HW  EP  OW  HW  HW  EP  OW  HW  HW  EP  OW  HW  HW  EP  OW  
HW  HW  EP  OW  HW  HW  EP  OW  HW  HW  EP  OW  HW  HW  EP  OW  HW  HW  EP  OW  
HW  HW  EP  OW  HW  HW  EP  OW  HW  HW  EP  OW  HW  HW  EP  OW  HW  HW  EP  OW  
HW  HW  EP  OW  HW  HW  EP  OW  HW  HW  EP  OW  HW  HW  EP  OW  HW  HW  EP  OW  
HW  HW  EP  OW  HW  HW  EP  OW  HW  HW  EP  OW  HW  HW  EP  OW  HW  HW  EP  OW  
HW  HW  EP  OW  HW  HW  EP  OW  HW  HW  EP  OW  HW  HW  EP  OW  HW  HW  EP  OW  
HW  HW  EP  OW  HW  HW  EP  OW  HW  HW  EP  OW  HW  HW  EP  OW  HW  HW  EP  OW  
HW  HW  EP  OW  HW  HW  EP  OW  HW  HW  EP  OW  HW  HW  EP  OW  HW  HW  EP  OW  
HW  HW  EP  OW  HW  HW  EP  OW  HW  HW  EP  OW  HW  HW  EP  OW  HW  HW  EP  OW  
HW  HW  EP  OW  HW  HW  EP  OW  HW  HW  EP  OW  HW  HW  EP  OW  HW  HW  EP  OW  
HW  HW  EP  OW  HW  HW  EP  OW  HW  HW  EP  OW  HW  HW  EP  OW  HW  HW  EP  OW  
HW  HW  EP  OW  HW  HW  EP  OW  HW  HW  EP  OW  HW  HW  EP  OW  HW  HW  EP  OW  
HW  HW  EP  OW  HW  HW  EP  OW  HW  HW  EP  OW  HW  HW  EP  OW  HW  HW  EP  OW  
HW  HW  EP  OW  HW  HW  EP  OW  HW  HW  EP  OW  HW  HW  EP  OW  HW  HW  EP  OW  
HW  HW  EP  OW  HW  HW  EP  OW  HW  HW  EP  OW  HW  HW  EP  OW  HW  HW  EP  OW  
HW  HW  EP  OW  HW  HW  EP  OW  HW  HW  EP  OW  HW  HW  EP  OW  HW  HW  EP  OW  
HW  HW  EP  OW  HW  HW  EP  OW  HW  HW  EP  OW  HW  HW  EP  OW  HW  HW  EP  OW  
HW  HW  EP  OW  HW  HW  EP  OW  HW  HW  EP  OW  HW  HW  EP  OW  HW  HW  EP  OW  
HW  HW  EP  OW  HW  HW  EP  OW  HW  HW  EP  OW  HW  HW  EP  OW  HW  HW  EP  OW  
HW  HW  EP  OW  HW  HW  EP  OW  HW  HW  EP  OW  HW  HW  EP  OW  HW  HW  EP  OW  
HW  HW  EP  OW  HW  HW  EP  OW  HW  HW  EP  OW  HW  HW  EP  OW  HW  HW  EP  OW  
HW  HW  EP  OW  HW  HW  EP  OW  HW  HW  EP  OW  HW  HW  EP  OW  HW  HW  EP  OW  
HW  HW  EP  OW  HW  HW  EP  OW  HW  HW  EP  OW  HW  HW  EP  OW  HW  HW  EP  OW  
HW  HW  EP  OW  HW  HW  EP  OW  HW  HW  EP  OW  HW  HW  EP  OW  HW  HW  EP  OW  
HW  HW  EP  OW  HW  HW  EP  OW  HW  HW  EP  OW  HW  HW  EP  OW  HW  HW  EP  OW  
HW  HW  EP  OW  HW  HW  EP  OW  HW  HW  EP  OW  HW  HW  EP  OW  HW  HW  EP  OW  
HW  HW  EP  OW  HW  HW  EP  OW  HW  HW  EP  OW  HW  HW  EP  OW  HW  HW  EP  OW  
HW  HW  EP  OW  HW  HW  EP  OW  HW  HW  EP  OW  HW  HW  EP  OW  HW  HW  EP  OW  
HW  HW  EP  OW  HW  HW  EP  OW  HW  HW  EP  OW  HW  HW  EP  OW  HW  HW  EP  OW  
HW  HW  EP  OW  HW  HW  EP  OW  HW  HW  EP  OW  HW  HW  EP  OW  HW  HW  EP  OW  
HW  HW  EP  OW  HW  HW  EP  OW  HW  HW  EP  OW  HW  HW  EP  OW  HW  HW  EP  OW  
HW  HW  EP  OW  HW  HW  EP  OW  HW  HW  EP  OW  HW  HW  EP  OW  HW  HW  EP  OW  
HW  HW  EP  OW  HW  HW  EP  OW  HW  HW  EP  OW  HW  HW  EP  OW  HW  HW  EP  OW  
HW  HW  EP  OW  HW  HW  EP  OW  HW  HW  EP  OW  HW  HW  EP  OW  HW  HW  EP  OW  
HW  HW  EP  OW  HW  HW  EP  OW  HW  HW  EP  OW  HW  HW  EP  OW  HW  HW  EP  OW  
HW  HW  EP  OW  HW  HW  EP  OW  HW  HW  EP  OW  HW  HW  EP  OW  HW  HW  EP  OW  
HW  HW  EP  OW  HW  HW  EP  OW  HW  HW  EP  OW  HW  HW  EP  OW  HW  HW  EP  OW  
HW  HW  EP  OW  HW  HW  EP  OW  HW  HW  EP  OW  HW  HW  EP  OW  HW  HW  EP  OW  
HW  HW  EP  OW  HW  HW  EP  OW  HW  HW  EP  OW  HW  HW  EP  OW  HW  HW  EP  OW  
HW  HW  EP  OW  HW  HW  EP  OW  HW  HW  EP  OW  HW  HW  EP  OW  HW  HW  EP  OW  
HW  HW  EP  OW  HW  HW  EP  OW  HW  HW  EP  OW  HW  HW  EP  OW  HW  HW  EP  OW  
HW  HW  EP  OW  HW  HW  EP  OW  HW  HW  EP  OW  HW  HW  EP  OW  HW  HW  EP  OW  
HW  HW  EP  OW  HW  HW  EP  OW  HW  HW  EP  OW  HW  HW  EP  OW  HW  HW  EP  OW  
HW  HW  EP  OW  HW  HW  EP  OW  HW  HW  EP  OW  HW  HW  EP  OW  HW  HW  EP  OW  
HW  HW  EP  OW  HW  HW  EP  OW  HW  HW  EP  OW  HW  HW  EP  OW  HW  HW  EP  OW  
HW  HW  EP  OW  HW  HW  EP  OW  HW  HW  EP  OW  HW  HW  EP  OW  HW  HW  EP  OW  
HW  HW  EP  OW  HW  HW  EP  OW  HW  HW  EP  OW  HW  HW  EP  OW  HW  HW  EP  OW  
HW  HW  EP  OW  HW  HW  EP  OW  HW  HW  EP  OW  HW  HW  EP  OW  HW  HW  EP  OW  
HW  HW  EP  OW  HW  HW  EP  OW  HW  HW  EP  OW  HW  HW  EP  OW  HW  HW  EP  OW  
HW  HW  EP  OW  HW  HW  EP  OW  HW  HW  EP  OW  HW  HW  EP  OW  HW  HW  EP  OW  
HW  HW  EP  OW  HW  HW  EP  OW  HW  HW  EP  OW  HW  HW  EP  OW  HW  HW  EP  OW  
HW  HW  EP  OW  HW  HW  EP  OW  HW  HW  EP  OW  HW  HW  EP  OW  HW  HW  EP  OW  
HW  HW  EP  OW  HW  HW  EP  OW  HW  HW  EP  OW  HW  HW  EP  OW  HW  HW  EP  OW  
HW  HW  EP  OW  HW  HW  EP  OW  HW  HW  EP  OW  HW  HW  EP  OW  HW  HW  EP  OW  
HW  HW  EP  OW  HW  HW  EP  OW  HW  HW  EP  OW  HW  HW  EP  OW  HW  HW  EP  OW  
HW  HW  EP  OW  HW  HW  EP  OW  HW  HW  EP  OW  HW  HW  EP  OW  HW  HW  EP  OW  
HW  HW  EP  OW  HW  HW  EP  OW  HW  HW  EP  OW  HW  HW  EP  OW  HW  HW  EP  OW  
HW  HW  EP  OW  HW  HW  EP  OW  HW  HW  EP  OW  HW  HW  EP  OW  HW  HW  EP  OW  
HW  HW  EP  OW  HW  HW  EP  OW  HW  HW  EP  OW  HW  HW  EP  OW  HW  HW  EP  OW  
HW  HW  EP  OW  HW  HW  EP  OW  HW  HW  EP  OW  HW  HW  EP  OW  HW  HW  EP  OW  
HW  HW  EP  OW  HW  HW  EP  OW  HW  HW  EP  OW  HW  HW  EP  OW  HW  HW  EP  OW  
HW  HW  EP  OW  HW  HW  EP  OW  HW  HW  EP  OW  HW  HW  EP  OW  HW  HW  EP  OW  
HW  HW  EP  OW  HW  HW  EP  OW  HW  HW  EP  OW  HW  HW  EP  OW  HW  HW  EP  OW  
HW  HW  EP  OW  HW  HW  EP  OW  HW  HW  EP  OW  HW  HW  EP  OW  HW  HW  EP  OW  
HW  HW  EP  OW  HW  HW  EP  OW  HW  HW  EP  OW  HW  HW  EP  OW  HW  HW  EP  OW  
HW  HW  EP  OW  HW  HW  EP  OW  HW  HW  EP  OW  HW  HW  EP  OW  HW  HW  EP  OW  
HW  HW  EP  OW  HW  HW  EP  OW  HW  HW  EP  OW  HW  HW  EP  OW  HW  HW  EP  OW  
HW  HW  EP  OW  HW  HW  EP  OW  HW  HW  EP  OW  HW  HW  EP  OW  HW  HW  EP  OW  
HW  HW  EP  OW  HW  HW  EP  OW  HW  HW  EP  OW  HW  HW  EP  OW  HW  HW  EP  OW  
HW  HW  EP  OW  HW  HW  EP  OW  HW  HW  EP  OW  HW  HW  EP  OW  HW  HW  EP  OW  
HW  HW  EP  OW  HW  HW  EP  OW  HW  HW  EP  OW  HW  HW  EP  OW  HW  HW  EP  OW  
HW  HW  EP  OW  HW  HW  EP  OW  HW  HW  EP  OW  HW  HW  EP  OW  HW  HW  EP  OW  
HW  HW  EP  OW  HW  HW  EP  OW  HW  HW  EP  OW  HW  HW  EP  OW  HW  HW  EP  OW  
HW  HW  EP  OW  HW  HW  EP  OW  HW  HW  EP  OW  HW  HW  EP  OW  HW  HW  EP  OW  
HW  HW  EP  OW  HW  HW  EP  OW  HW  HW  EP  OW  HW  HW  EP  OW  HW  HW  EP  OW  
HW  HW  EP  OW  HW  HW  EP  OW  HW  HW  EP  OW  HW  HW  EP  OW  HW  HW  EP  OW  
HW  HW  EP  OW  HW  HW  EP  OW  HW  HW  EP  OW  HW  HW  EP  OW  HW  HW  EP  OW  
HW  HW  EP  OW  HW  HW  EP  OW  HW  HW  EP  OW  HW  HW  EP  OW  HW  HW  EP  OW  
HW  HW  EP  OW  HW  HW  EP  OW  HW  HW  EP  OW  HW  HW  EP  OW  HW  HW  EP  OW  
HW  HW  EP  OW  HW  HW  EP  OW  HW  HW  EP  OW  HW  HW  EP  OW  HW  HW  EP  OW  
HW  HW  EP  OW  HW  HW  EP  OW  HW  HW  EP  OW  HW  HW  EP  OW  HW  HW  EP  OW  
HW  HW  EP  OW  HW  HW  EP  OW  HW  HW  EP  OW  HW  HW  EP  OW  HW  HW  EP  OW  
HW  HW  EP  OW  HW  HW  EP  OW  HW  HW  EP  OW  HW  HW  EP  OW  HW  HW  EP  OW  
HW  HW  EP  OW  HW  HW  EP  OW  HW  HW  EP  OW  HW  HW  EP  OW  HW  HW  EP  OW  
HW  HW  EP  OW  HW  HW  EP  OW  HW  HW  EP  OW  HW  HW  EP  OW  HW  HW  EP  OW  
HW  HW  EP  OW  HW  HW  EP  OW  HW  HW  EP  OW  HW  HW  EP  OW  HW  HW  EP  OW  
HW  HW  EP  OW  HW  HW  EP  OW  HW  HW  EP  OW  HW  HW  EP  OW  HW  HW  EP  OW  
HW  HW  EP  OW  HW  HW  EP  OW  HW  HW  EP  OW  HW  HW  EP  OW  HW  HW  EP  OW  
HW  HW  EP  OW  HW  HW  EP  OW  HW  HW  EP  OW  HW  HW  EP  OW  HW  HW  EP  OW  
HW  HW  EP  OW  HW  HW  EP  OW  HW  HW  EP  OW  HW  HW  EP  OW  HW  HW  EP  OW  
HW  HW  EP  OW  HW  HW  EP  OW  HW  HW  EP  OW  HW  HW  EP  OW  HW  HW  EP  OW  
HW  HW  EP  OW  HW  HW  EP  OW  HW  HW  EP  OW  HW  HW  EP  OW  HW  HW  EP  OW  
HW  HW  EP  OW  HW  HW  EP  OW  HW  HW  EP  OW  HW  HW  EP  OW  HW  HW  EP  OW  
HW  HW  EP  OW  HW  HW  EP  OW  HW  HW  EP  OW  HW  HW  EP  OW  HW  HW  EP  OW  
HW  HW  EP  OW  HW  HW  EP  OW  HW  HW  EP  OW  HW  HW  EP  OW  HW  HW  EP  OW  
HW  HW  EP  OW  HW  HW  EP  OW  HW  HW  EP  OW  HW  HW  EP  OW  HW  HW  EP  OW  
HW  HW  EP  OW  HW  HW  EP  OW  HW  HW  EP  OW  HW  HW  EP  OW  HW  HW  EP  OW  
HW  HW  EP  OW  HW  HW  EP  OW  HW  HW  EP  OW  HW  HW  EP  OW  HW  HW  EP  OW  
HW  HW  EP  OW  HW  HW  EP  OW  HW  HW  EP  OW  HW  HW  EP  OW  HW  HW  EP  OW  
HW  HW  EP  OW  HW  HW  EP  OW  HW  HW  EP  OW  HW  HW  EP  OW  HW  HW  EP  OW  
HW  HW  EP  OW  HW  HW  EP  OW  HW  HW  EP  OW  HW  HW  EP  OW  HW  HW  EP  OW  
HW  HW  EP  OW  HW  HW  EP  OW  HW  HW  EP  OW  HW  HW  EP  OW  HW  HW  EP  OW  
HW  HW  EP  OW  HW  HW  EP  OW  HW  HW  EP  OW  HW  HW  EP  OW  HW  HW  EP  OW  
HW  HW  EP  OW  HW  HW  EP  OW  HW  HW  EP  OW  HW  HW  EP  OW  HW  HW  EP  OW  
HW  HW  EP  OW  HW  HW  EP  OW  HW  HW  EP  OW  HW  HW  EP  OW  HW  HW  EP  OW  
HW  HW  EP  OW  HW  HW  EP  OW  HW  HW  EP  OW  HW  HW  EP  OW  HW  HW  EP  OW  
HW  HW  EP  OW  HW  HW  EP  OW  HW  HW  EP  OW  HW  HW  EP  OW  HW  HW  EP  OW  
HW  HW  EP  OW  HW  HW  EP  OW  HW  HW  EP  OW  HW  HW  EP  OW  HW  HW  EP  OW  
HW  HW  EP  OW  HW  HW  EP  OW  HW  HW  EP  OW  HW  HW  EP  OW  HW  HW  EP  OW  
HW  HW  EP  OW  HW  HW  EP  OW  HW  HW  EP  OW  HW  HW  EP  OW  HW  HW  EP  OW  
HW  HW  EP  OW  HW  HW  EP  OW  HW  HW  EP  OW  HW  HW  EP  OW  HW  HW  EP  OW  
HW  HW  EP  OW  HW  HW  EP  OW  HW  HW  EP  OW  HW  HW  EP  OW  HW  HW  EP  OW  
HW  HW  EP  OW  HW  HW  EP  OW  HW  HW  EP  OW  HW  HW  EP  OW  HW  HW  EP  OW  
HW  HW  EP  OW  HW  HW  EP  OW  HW  HW  EP  OW  HW  HW  EP  OW  HW  HW  EP  OW  
HW  HW  EP  OW  HW  HW  EP  OW  HW  HW  EP  OW  HW  HW  EP  OW  HW  HW  EP  OW  
HW  HW  EP  OW  HW  HW  EP  OW  HW  HW  EP  OW  HW  HW  EP  OW  HW  HW  EP  OW  
HW  HW  EP  OW  HW  HW  EP  OW  HW  HW  EP  OW  HW  HW  EP  OW  HW  HW  EP  OW  
HW  HW  EP  OW  HW  HW  EP  OW  HW  HW  EP  OW  HW  HW  EP  OW  HW  HW  EP  OW  
HW  HW  EP  OW  HW  HW  EP  OW  HW  HW  EP  OW  HW  HW  EP  OW  HW  HW  EP  OW  
HW  HW  EP  OW  HW  HW  EP  OW  HW  HW  EP  OW  HW  HW  EP  OW  HW  HW  EP  OW  
HW  HW  EP  OW  HW  HW  EP  OW  HW  HW  EP  OW  HW  HW  EP  OW  HW  HW  EP  OW  
HW  HW  EP  OW  HW  HW  EP  OW  HW  HW  EP  OW  HW  HW  EP  OW  HW  HW  EP  OW  
HW  HW  EP  OW  HW  HW  EP  OW  HW  HW  EP  OW  HW  HW  EP  OW  HW  HW  EP  OW  
HW  HW  EP  OW  HW  HW  EP  OW  HW  HW  EP  OW  HW  HW  EP  OW  HW  HW  EP  OW  
HW  HW  EP  OW  HW  HW  EP  OW  HW  HW  EP  OW  HW  HW  EP  OW  HW  HW  EP  OW  
HW  HW  EP  OW  HW  HW  EP  OW  HW  HW  EP  OW  HW  HW  EP  OW  HW  HW  EP  OW  
HW  HW  EP  OW  HW  HW  EP  OW  HW  HW  EP  OW  HW  HW  EP  OW  HW  HW  EP  OW  
HW  HW  EP  OW  HW  HW  EP  OW  HW  HW  EP  OW  HW  HW  EP  OW  HW  HW  EP  OW  
HW  HW  EP  OW  HW  HW  EP  OW  HW  HW  EP  OW  HW  HW  EP  OW  HW  HW  EP  OW  
HW  HW  EP  OW  HW  HW  EP  OW  HW  HW  EP  OW  HW  HW  EP  OW  HW  HW  EP  OW  
HW  HW  EP  OW  HW  HW  EP  OW  HW  HW  EP  OW  HW  HW  EP  OW  HW  HW  EP  OW  
HW  HW  EP  OW  HW  HW  EP  OW  HW  HW  EP  OW  HW  HW  EP  OW  HW  HW  EP  OW  
HW  HW  EP  OW  HW  HW  EP  OW  HW  HW  EP  OW  HW  HW  EP  OW  HW  HW  EP  OW  
HW  HW  EP  OW  HW  HW  EP  OW  HW  HW  EP  OW  HW  HW  EP  OW  HW  HW  EP  OW  
HW  HW  EP  OW  HW  HW  EP  OW  HW  HW  EP  OW  HW  HW  EP  OW  HW  HW  EP  OW  
HW  HW  EP  OW  HW  HW  EP  OW  HW  HW  EP  OW  HW  HW  EP  OW  HW  HW  EP  OW  
HW  HW  EP  OW  HW  HW  EP  OW  HW  HW  EP  OW  HW  HW  EP  OW  HW  HW  EP  OW  
HW  HW  EP  OW  HW  HW  EP  OW  HW  HW  EP  OW  HW  HW  EP  OW  HW  HW  EP  OW  
HW  HW  EP  OW  HW  HW  EP  OW  HW  HW  EP  OW  HW  HW  EP  OW  HW  HW  EP  OW  
HW  HW  EP  OW  HW  HW  EP  OW  HW  HW  EP  OW  HW  HW  EP  OW  HW  HW  EP  OW  
HW  HW  EP  OW  HW  HW  EP  OW  HW  HW  EP  OW  HW  HW  EP  OW  HW  HW  EP  OW  
HW  HW  EP  OW  HW  HW  EP  OW  HW  HW  EP  OW  HW  HW  EP  OW  HW  HW  EP  OW  
HW  HW  EP  OW  HW  HW  EP  OW  HW  HW  EP  OW  HW  HW  EP  OW  HW  HW  EP  OW  
HW  HW  EP  OW  HW  HW  EP  OW  HW  HW  EP  OW  HW  HW  EP  OW  HW  HW  EP  OW  
HW  HW  EP  OW  HW  HW  EP  OW  HW  HW  EP  OW  HW  HW  EP  OW  HW  HW  EP  OW  
HW  HW  EP  OW  HW  HW  EP  OW  HW  HW  EP  OW  HW  HW  EP  OW  HW  HW  EP  OW  
HW  HW  EP  OW  HW  HW  EP  OW  HW  HW  EP  OW  HW  HW  EP  OW  HW  HW  EP  OW  
HW  HW  EP  OW  HW  HW  EP  OW  HW  HW  EP  OW  HW  HW  EP  OW  HW  HW  EP  OW  
HW  HW  EP  OW  HW  HW  EP  OW  HW  HW  EP  OW  HW  HW  EP  OW  HW  HW  EP  OW  
HW  HW  EP  OW  HW  HW  EP  OW  HW  HW  EP  OW  HW  HW  EP  OW  HW  HW  EP  OW  
HW  HW  EP  OW  HW  HW  EP  OW  HW  HW  EP  OW  HW  HW  EP  OW  HW  HW  EP  OW  
HW  HW  EP  OW  HW  HW  EP  OW  HW  HW  EP  OW  HW  HW  EP  OW  HW  HW  EP  OW  
HW  HW  EP  OW  HW  HW  EP  OW  HW  HW  EP  OW  HW  HW  EP  OW  HW  HW  EP  OW  
HW  HW  EP  OW  HW  HW  EP  OW  HW  HW  EP  OW  HW  HW  EP  OW  HW  HW  EP  OW  
HW  HW  EP  OW  HW  HW  EP  OW  HW  HW  EP  OW  HW  HW  EP  OW  HW  HW  EP  OW  
HW  HW  EP  OW  HW  HW  EP  OW  HW  HW  EP  OW  HW  HW  EP  OW  HW  HW  EP  OW  
HW  HW  EP  OW  HW  HW  EP  OW  HW  HW  EP  OW  HW  HW  EP  OW  HW  HW  EP  OW  
HW  HW  EP  OW  HW  HW  EP  OW  HW  HW  EP  OW  HW  HW  EP  OW  HW  HW  EP  OW  
HW  HW  EP  OW  HW  HW  EP  OW  HW  HW  EP  OW  HW  HW  EP  OW  HW  HW  EP  OW  
HW  HW  EP  OW  HW  HW  EP  OW  HW  HW  EP  OW  HW  HW  EP  OW  HW  HW  EP  OW  
HW  HW  EP  OW  HW  HW  EP  OW  HW  HW  EP  OW  HW  HW  EP  OW  HW  HW  EP  OW  
HW  HW  EP  OW  HW  HW  EP  OW  HW  HW  EP  OW  HW  HW  EP  OW  HW  HW  EP  OW  
HW  HW  EP  OW  HW  HW  EP  OW  HW  HW  EP  OW  HW  HW  EP  OW  HW  HW  EP  OW  
HW  HW  EP  OW  HW  HW  EP  OW  HW  HW  EP  OW  HW  HW  EP  OW  HW  HW  EP  OW  
HW  HW  EP  OW  HW  HW  EP  OW  HW  HW  EP  OW  HW  HW  EP  OW  HW  HW  EP  OW  
HW  HW  EP  OW  HW  HW  EP  OW  HW  HW  EP  OW  HW  HW  EP  OW  HW  HW  EP  OW  
HW  HW  EP  OW  HW  HW  EP  OW  HW  HW  EP  OW  HW  HW  EP  OW  HW  HW  EP  OW  
HW  HW  EP  OW  HW  HW  EP  OW  HW  HW  EP  OW  HW  HW  EP  OW  HW  HW  EP  OW  
HW  HW  EP  OW  HW  HW  EP  OW  HW  HW  EP  OW  HW  HW  EP  OW  HW  HW  EP  OW  
HW  HW  EP  OW  HW  HW  EP  OW  HW  HW  EP  OW  HW  HW  EP  OW  HW  HW  EP  OW  
HW  HW  EP  OW  HW  HW  EP  OW  HW  HW  EP  OW  HW  HW  EP  OW  HW  HW  EP  OW  
HW  HW  EP  OW  HW  HW  EP  OW  HW  HW  EP  OW  HW  HW  EP  OW  HW  HW  EP  OW  
HW  HW  EP  OW  HW  HW  EP  OW  HW  HW  EP  OW  HW  HW  EP  OW  HW  HW  EP  OW  
HW  HW  EP  OW  HW  HW  EP  OW  HW  HW  EP  OW  HW  HW  EP  OW  HW  HW  EP  OW  
HW  HW  EP  OW  HW  HW  EP  OW  HW  HW  EP  OW  HW  HW  EP  OW  HW  HW  EP  OW  
HW  HW  EP  OW  HW  HW  EP  OW  HW  HW  EP  OW  HW  HW  EP  OW  HW  HW  EP  OW  
HW  HW  EP  OW  HW  HW  EP  OW  HW  HW  EP  OW  HW  HW  EP  OW  HW  HW  EP  OW  
HW  HW  EP  OW  HW  HW  EP  OW  HW  HW  EP  OW  HW  HW  EP  OW  HW  HW  EP  OW  
HW  HW  EP  OW  HW  HW  EP  OW  HW  HW  EP  OW  HW  HW  EP  OW  HW  HW  EP  OW  
HW  HW  EP  OW  HW  HW  EP  OW  HW  HW  EP  OW  HW  HW  EP  OW  HW  HW  EP  OW  
HW  HW  EP  OW  HW  HW  EP  OW  HW  HW  EP  OW  HW  HW  EP  OW  HW  HW  EP  OW  
HW  HW  EP  OW  HW  HW  EP  OW  HW  HW  EP  OW  HW  HW  EP  OW  HW  HW  EP  OW  
HW  HW  EP  OW  HW  HW  EP  OW  HW  HW  EP  OW  HW  HW  EP  OW  HW  HW  EP  OW  
HW  HW  EP  OW  HW  HW  EP  OW  HW  HW  EP  OW  HW  HW  EP  OW  HW  HW  EP  OW  
HW  HW  EP  OW  HW  HW  EP  OW  HW  HW  EP  OW  HW  HW  EP  OW  HW  HW  EP  OW  
HW  HW  EP  OW  HW  HW  EP  OW  HW  HW  EP  OW  HW  HW  EP  OW  HW  HW  EP  OW  
HW  HW  EP  OW  HW  HW  EP  OW  HW  HW  EP  OW  HW  HW  EP  OW  HW  HW  EP  OW  
HW  HW  EP  OW  HW  HW  EP  OW  HW  HW  EP  OW  HW  HW  EP  OW  HW  HW  EP  OW  
HW  HW  EP  OW  HW  HW  EP  OW  HW  HW  EP  OW  HW  HW  EP  OW  HW  HW  EP  OW  
HW  HW  EP  OW  HW  HW  EP  OW  HW  HW  EP  OW  HW  HW  EP  OW  HW  HW  EP  OW  
HW  HW  EP  OW  HW  HW  EP  OW  HW  HW  EP  OW  HW  HW  EP  OW  HW  HW  EP  OW  
HW  HW  EP  OW  HW  HW  EP  OW  HW  HW  EP  OW  HW  HW  EP  OW  HW  HW  EP  OW  
HW  HW  EP  OW  HW  HW  EP  OW  HW  HW  EP  OW  HW  HW  EP  OW  HW  HW  EP  OW  
HW  HW  EP  OW  HW  HW  EP  OW  HW  HW  EP  OW  HW  HW  EP  OW  HW  HW  EP  OW  
HW  HW  EP  OW  HW  HW  EP  OW  HW  HW  EP  OW  HW  HW  EP  OW  HW  HW  EP  OW  
HW  HW  EP  OW  HW  HW  EP  OW  HW  HW  EP  OW  HW  HW  EP  OW  HW  HW  EP  OW  
HW  HW  EP  OW  HW  HW  EP  OW  HW  HW  EP  OW  HW  HW  EP  OW  HW  HW  EP  OW  
HW  HW  EP  OW  HW  HW  EP  OW  HW  HW  EP  OW  HW  HW  EP  OW  HW  HW  EP  OW  
HW  HW  EP  OW  HW  HW  EP  OW  HW  HW  EP  OW  HW  HW  EP  OW  HW  HW  EP  OW  
HW  HW  EP  OW  HW  HW  EP  OW  HW  HW  EP  OW  HW  HW  EP  OW  HW  HW  EP  OW  
HW  HW  EP  OW  HW  HW  EP  OW  HW  HW  EP  OW  HW  HW  EP  OW  HW  HW  EP  OW  
HW  HW  EP  OW  HW  HW  EP  OW  HW  HW  EP  OW  HW  HW  EP  OW  HW  HW  EP  OW  
HW  HW  EP  OW  HW  HW  EP  OW  HW  HW  EP  OW  HW  HW  EP  OW  HW  HW  EP  OW  
HW  HW  EP  OW  HW  HW  EP  OW  HW  HW  EP  OW  HW  HW  EP  OW  HW  HW  EP  OW  
HW  HW  EP  OW  HW  HW  EP  OW  HW  HW  EP  OW  HW  HW  EP  OW  HW  HW  EP  OW  
HW  HW  EP  OW  HW  HW  EP  OW  HW  HW  EP  OW  HW  HW  EP  OW  HW  HW  EP  OW  
HW  HW  EP  OW  HW  HW  EP  OW  HW  HW  EP  OW  HW  HW  EP  OW  HW  HW  EP  OW  
HW  HW  EP  OW  HW  HW  EP  OW  HW  HW  EP  OW  HW  HW  EP  OW  HW  HW  EP  OW  
HW  HW  EP  OW  HW  HW  EP  OW  HW  HW  EP  OW  HW  HW  EP  OW  HW  HW  EP  OW  
HW  HW  EP  OW  HW  HW  EP  OW  HW  HW  EP  OW  HW  HW  EP  OW  HW  HW  EP  OW  
HW  HW  EP  OW  HW  HW  EP  OW  HW  HW  EP  OW  HW  HW  EP  OW  HW  HW  EP  OW  
HW  HW  EP  OW  HW  HW  EP  OW  HW  HW  EP  OW  HW  HW  EP  OW  HW  HW  EP  OW  
HW  HW  EP  OW  HW  HW  EP  OW  HW  HW  EP  OW  HW  HW  EP  OW  HW  HW  EP  OW  
HW  HW  EP  OW  HW  HW  EP  OW  HW  HW  EP  OW  HW  HW  EP  OW  HW  HW  EP  OW  
HW  HW  EP  OW  HW  HW  EP  OW  HW  HW  EP  OW  HW  HW  EP  OW  HW  HW  EP  OW  
HW  HW  EP  OW  HW  HW  EP  OW  HW  HW  EP  OW  HW  HW  EP  OW  HW  HW  EP  OW  
HW  HW  EP  OW  HW  HW  EP  OW  HW  HW  EP  OW  HW  HW  EP  OW  HW  HW  EP  OW  
HW  HW  EP  OW  HW  HW  EP  OW  HW  HW  EP  OW  HW  HW  EP  OW  HW  HW  EP  OW  
HW  HW  EP  OW  HW  HW  EP  OW  HW  HW  EP  OW  HW  HW  EP  OW  HW  HW  EP  OW  
HW  HW  EP  OW  HW  HW  EP  OW  HW  HW  EP  OW  HW  HW  EP  OW  HW  HW  EP  OW  
HW  HW  EP  OW  HW  HW  EP  OW  HW  HW  EP  OW  HW  HW  EP  OW  HW  HW  EP  OW  
HW  HW  EP  OW  HW  HW  EP  OW  HW  HW  EP  OW  HW  HW  EP  OW  HW  HW  EP  OW  
HW  HW  EP  OW  HW  HW  EP  OW  HW  HW  EP  OW  HW  HW  EP  OW  HW  HW  EP  OW  
HW  HW  EP  OW  HW  HW  EP  OW  HW  HW  EP  OW  HW  HW  EP  OW  HW  HW  EP  OW  
HW  HW  EP  OW  HW  HW  EP  OW  HW  HW  EP  OW  HW  HW  EP  OW  HW  HW  EP  OW  
HW  HW  EP  OW  HW  HW  EP  OW  HW  HW  EP  OW  HW  HW  EP  OW  HW  HW  EP  OW  
HW  HW  EP  OW  HW  HW  EP  OW  HW  HW  EP  OW  HW  HW  EP  OW  HW  HW  EP  OW  
HW  HW  EP  OW  HW  HW  EP  OW  HW  HW  EP  OW  HW  HW  EP  OW  HW  HW  EP  OW  
HW  HW  EP  OW  HW  HW  EP  OW  HW  HW  EP  OW  HW  HW  EP  OW  HW  HW  EP  OW  
HW  HW  EP  OW  HW  HW  EP  OW  HW  HW  EP  OW  HW  HW  EP  OW  HW  HW  EP  OW  
HW  HW  EP  OW  HW  HW  EP  OW  HW  HW  EP  OW  HW  HW  EP  OW  HW  HW  EP  OW  
HW  HW  EP  OW  HW  HW  EP  OW  HW  HW  EP  OW  HW  HW  EP  OW  HW  HW  EP  OW  
HW  HW  EP  OW  HW  HW  EP  OW  HW  HW  EP  OW  HW  HW  EP  OW  HW  HW  EP  OW  
HW  HW  EP  OW  HW  HW  EP  OW  HW  HW  EP  OW  HW  HW  EP  OW  HW  HW  EP  OW  
HW  HW  EP  OW  HW  HW  EP  OW  HW  HW  EP  OW  HW  HW  EP  OW  HW  HW  EP  OW  
HW  HW  EP  OW  HW  HW  EP  OW  HW  HW  EP  OW  HW  HW  EP  OW  HW  HW  EP  OW  
HW  HW  EP  OW  HW  HW  EP  OW  HW  HW  EP  OW  HW  HW  EP  OW  HW  HW  EP  OW  
HW  HW  EP  OW  HW  HW  EP  OW  HW  HW  EP  OW  HW  HW  EP  OW  HW  HW  EP  OW  
HW  HW  EP  OW  HW  HW  EP  OW  HW  HW  EP  OW  HW  HW  EP  OW  HW  HW  EP  OW  
HW  HW  EP  OW  HW  HW  EP  OW  HW  HW  EP  OW  HW  HW  EP  OW  HW  HW  EP  OW  
HW  HW  EP  OW  HW  HW  EP  OW  HW  HW  EP  OW  HW  HW  EP  OW  HW  HW  EP  OW  
HW  HW  EP  OW  HW  HW  EP  OW  HW  HW  EP  OW  HW  HW  EP  OW  HW  HW  EP  OW  
HW  HW  EP  OW  HW  HW  EP  OW  HW  HW  EP  OW  HW  HW  EP  OW  HW  HW  EP  OW  
HW  HW  EP  OW  HW  HW  EP  OW  HW  HW  EP  OW  HW  HW  EP  OW  HW  HW  EP  OW  
HW  HW  EP  OW  HW  HW  EP  OW  HW  HW  EP  OW  HW  HW  EP  OW  HW  HW  EP  OW  
HW  HW  EP  OW  HW  HW  EP  OW  HW  HW  EP  OW  HW  HW  EP  OW  HW  HW  EP  OW  
HW  HW  EP  OW  HW  HW  EP  OW  HW  HW  EP  OW  HW  HW  EP  OW  HW  HW  EP  OW  
HW  HW  EP  OW  HW  HW  EP  OW  HW  HW  EP  OW  HW  HW  EP  OW  HW  HW  EP  OW  
HW  HW  EP  OW  HW  HW  EP  OW  HW  HW  EP  OW  HW  HW  EP  OW  HW  HW  EP  OW  
HW  HW  EP  OW  HW  HW  EP  OW  HW  HW  EP  OW  HW  HW  EP  OW  HW  HW  EP  OW  
HW  HW  EP  OW  HW  HW  EP  OW  HW  HW  EP  OW  HW  HW  EP  OW  HW  HW  EP  OW  
HW  HW  EP  OW  HW  HW  EP  OW  HW  HW  EP  OW  HW  HW  EP  OW  HW  HW  EP  OW  
HW  HW  EP  OW  HW  HW  EP  OW  HW  HW  EP  OW  HW  HW  EP  OW  HW  HW  EP  OW  
HW  HW  EP  OW  HW  HW  EP  OW  HW  HW  EP  OW  HW  HW  EP  OW  HW  HW  EP  OW  
HW  HW  EP  OW  HW  HW  EP  OW  HW  HW  EP  OW  HW  HW  EP  OW  HW  HW  EP  OW  
HW  HW  EP  OW  HW  HW  EP  OW  HW  HW  EP  OW  HW  HW  EP  OW  HW  HW  EP  OW  
HW  HW  EP  OW  HW  HW  EP  OW  HW  HW  EP  OW  HW  HW  EP  OW  HW  HW  EP  OW  
HW  HW  EP  OW  HW  HW  EP  OW  HW  HW  EP  OW  HW  HW  EP  OW  HW  HW  EP  OW  
HW  HW  EP  OW  HW  HW  EP  OW  HW  HW  EP  OW  HW  HW  EP  OW  HW  HW  EP  OW  
HW  HW  EP  OW  HW  HW  EP  OW  HW  HW  EP  OW  HW  HW  EP  OW  HW  HW  EP  OW  
HW  HW  EP  OW  HW  HW  EP  OW  HW  HW  EP  OW  HW  HW  EP  OW  HW  HW  EP  OW  
HW  HW  EP  OW  HW  HW  EP  OW  HW  HW  EP  OW  HW  HW  EP  OW  HW  HW  EP  OW  
HW  HW  EP  OW  HW  HW  EP  OW  HW  HW  EP  OW  HW  HW  EP  OW  HW  HW  EP  OW  
HW  HW  EP  OW  HW  HW  EP  OW  HW  HW  EP  OW  HW  HW  EP  OW  HW  HW  EP  OW  
HW  HW  EP  OW  HW  HW  EP  OW  HW  HW  EP  OW  HW  HW  EP  OW  HW  HW  EP  OW  
HW  HW  EP  OW  HW  HW  EP  OW  HW  HW  EP  OW  HW  HW  EP  OW  HW  HW  EP  OW  
HW  HW  EP  OW  HW  HW  EP  OW  HW  HW  EP  OW  HW  HW  EP  OW  HW  HW  EP  OW  
HW  HW  EP  OW  HW  HW  EP  OW  HW  HW  EP  OW  HW  HW  EP  OW  HW  HW  EP  OW  
HW  HW  EP  OW  HW  HW  EP  OW  HW  HW  EP  OW  HW  HW  EP  OW  HW  HW  EP  OW  
HW  HW  EP  OW  HW  HW  EP  OW  HW  HW  EP  OW  HW  HW  EP  OW  HW  HW  EP  OW  
HW  HW  EP  OW  HW  HW  EP  OW  HW  HW  EP  OW  HW  HW  EP  OW  HW  HW  EP  OW  
HW  HW  EP  OW  HW  HW  EP  OW  HW  HW  EP  OW  HW  HW  EP  OW  HW  HW  EP  OW  
HW  HW  EP  OW  HW  HW  EP  OW  HW  HW  EP  OW  HW  HW  EP  OW  HW  HW  EP  OW  
HW  HW  EP  OW  HW  HW  EP  OW  HW  HW  EP  OW  HW  HW  EP  OW  HW  HW  EP  OW  
HW  HW  EP  OW  HW  HW  EP  OW  HW  HW  EP  OW  HW  HW  EP  OW  HW  HW  EP  OW  
HW  HW  EP  OW  HW  HW  EP  OW  HW  HW  EP  OW  HW  HW  EP  OW  HW  HW  EP  OW  
HW  HW  EP  OW  HW  HW  EP  OW  HW  HW  EP  OW  HW  HW  EP  OW  HW  HW  EP  OW  
HW  HW  EP  OW  HW  HW  EP  OW  HW  HW  EP  OW  HW  HW  EP  OW  HW  HW  EP  OW  
HW  HW  EP  OW  HW  HW  EP  OW  HW  HW  EP  OW  HW  HW  EP  OW  HW  HW  EP  OW  
HW  HW  EP  OW  HW  HW  EP  OW  HW  HW  EP  OW  HW  HW  EP  OW  HW  HW  EP  OW  
HW  HW  EP  OW  HW  HW  EP  OW  HW  HW  EP  OW  HW  HW  EP  OW  HW  HW  EP  OW  
HW  HW  EP  OW  HW  HW  EP  OW  HW  HW  EP  OW  HW  HW  EP  OW  HW  HW  EP  OW  
HW  HW  EP  OW  HW  HW  EP  OW  HW  HW  EP  OW  HW  HW  EP  OW  HW  HW  EP  OW  
HW  HW  EP  OW  HW  HW  EP  OW  HW  HW  EP  OW  HW  HW  EP  OW  HW  HW  EP  OW  
HW  HW  EP  OW  HW  HW  EP  OW  HW  HW  EP  OW  HW  HW  EP  OW  HW  HW  EP  OW  
HW  HW  EP  OW  HW  HW  EP  OW  HW  HW  EP  OW  HW  HW  EP  OW  HW  HW  EP  OW  
HW  HW  EP  OW  HW  HW  EP  OW  HW  HW  EP  OW  HW  HW  EP  OW  HW  HW  EP  OW  
HW  HW  EP  OW  HW  HW  EP  OW  HW  HW  EP  OW  HW  HW  EP  OW  HW  HW  EP  OW  
HW  HW  EP  OW  HW  HW  EP  OW  HW  HW  EP  OW  HW  HW  EP  OW  HW  HW  EP  OW  
HW  HW  EP  OW  HW  HW  EP  OW  HW  HW  EP  OW  HW  HW  EP  OW  HW  HW  EP  OW  
HW  HW  EP  OW  HW  HW  EP  OW  HW  HW  EP  OW  HW  HW  EP  OW  HW  HW  EP  OW  
HW  HW  EP  OW  HW  HW  EP  OW  HW  HW  EP  OW  HW  HW  EP  OW  HW  HW  EP  OW  
HW  HW  EP  OW  HW  HW  EP  OW  HW  HW  EP  OW  HW  HW  EP  OW  HW  HW  EP  OW  
HW  HW  EP  OW  HW  HW  EP  OW  HW  HW  EP  OW  HW  HW  EP  OW  HW  HW  EP  OW  
HW  HW  EP  OW  HW  HW  EP  OW  HW  HW  EP  OW  HW  HW  EP  OW  HW  HW  EP  OW  
HW  HW  EP  OW  HW  HW  EP  OW  HW  HW  EP  OW  HW  HW  EP  OW  HW  HW  EP  OW  
HW  HW  EP  OW  HW  HW  EP  OW  HW  HW  EP  OW  HW  HW  EP  OW  HW  HW  EP  OW  
HW  HW  EP  OW  HW  HW  EP  OW  HW  HW  EP  OW  HW  HW  EP  OW  HW  HW  EP  OW  
HW  HW  EP  OW  HW  HW  EP  OW  HW  HW  EP  OW  HW  HW  EP  OW  HW  HW  EP  OW  
HW  HW  EP  OW  HW  HW  EP  OW  HW  HW  EP  OW  HW  HW  EP  OW  HW  HW  EP  OW  
HW  HW  EP  OW  HW  HW  EP  OW  HW  HW  EP  OW  HW  HW  EP  OW  HW  HW  EP  OW  
HW  HW  EP  OW  HW  HW  EP  OW  HW  HW  EP  OW  HW  HW  EP  OW  HW  HW  EP  OW  
HW  HW  EP  OW  HW  HW  EP  OW  HW  HW  EP  OW  HW  HW  EP  OW  HW  HW  EP  OW  
HW  HW  EP  OW  HW  HW  EP  OW  HW  HW  EP  OW  HW  HW  EP  OW  HW  HW  EP  OW  
HW  HW  EP  OW  HW  HW  EP  OW  HW  HW  EP  OW  HW  HW  EP  OW  HW  HW  EP  OW  
HW  HW  EP  OW  HW  HW  EP  OW  HW  HW  EP  OW  HW  HW  EP  OW  HW  HW  EP  OW  
HW  HW  EP  OW  HW  HW  EP  OW  HW  HW  EP  OW  HW  HW  EP  OW  HW  HW  EP  OW  
HW  HW  EP  OW  HW  HW  EP  OW  HW  HW  EP  OW  HW  HW  EP  OW  HW  HW  EP  OW  
HW  HW  EP  OW  HW  HW  EP  OW  HW  HW  EP  OW  HW  HW  EP  OW  HW  HW  EP  OW  
HW  HW  EP  OW  HW  HW  EP  OW  HW  HW  EP  OW  HW  HW  EP  OW  HW  HW  EP  OW  
HW  HW  EP  OW  HW  HW  EP  OW  HW  HW  EP  OW  HW  HW  EP  OW  HW  HW  EP  OW  
HW  HW  EP  OW  HW  HW  EP  OW  HW  HW  EP  OW  HW  HW  EP  OW  HW  HW  EP  OW  
HW  HW  EP  OW  HW  HW  EP  OW  HW  HW  EP  OW  HW  HW  EP  OW  HW  HW  EP  OW  
HW  HW  EP  OW  HW  HW  EP  OW  HW  HW  EP  OW  HW  HW  EP  OW  HW  HW  EP  OW  
HW  HW  EP  OW  HW  HW  EP  OW  HW  HW  EP  OW  HW  HW  EP  OW  HW  HW  EP  OW  
HW  HW  EP  OW  HW  HW  EP  OW  HW  HW  EP  OW  HW  HW  EP  OW  HW  HW  EP  OW  
HW  HW  EP  OW  HW  HW  EP  OW  HW  HW  EP  OW  HW  HW  EP  OW  HW  HW  EP  OW  
HW  HW  EP  OW  HW  HW  EP  OW  HW  HW  EP  OW  HW  HW  EP  OW  HW  HW  EP  OW  
HW  HW  EP  OW  HW  HW  EP  OW  HW  HW  EP  OW  HW  HW  EP  OW  HW  HW  EP  OW  
HW  HW  EP  OW  HW  HW  EP  OW  HW  HW  EP  OW  HW  HW  EP  OW  HW  HW  EP  OW  
HW  HW  EP  OW  HW  HW  EP  OW  HW  HW  EP  OW  HW  HW  EP  OW  HW  HW  EP  OW  
HW  HW  EP  OW  HW  HW  EP  OW  HW  HW  EP  OW  HW  HW  EP  OW  HW  HW  EP  OW  
HW  HW  EP  OW  HW  HW  EP  OW  HW  HW  EP  OW  HW  HW  EP  OW  HW  HW  EP  OW  
HW  HW  EP  OW  HW  HW  EP  OW  HW  HW  EP  OW  HW  HW  EP  OW  HW  HW  EP  OW  
HW  HW  EP  OW  HW  HW  EP  OW  HW  HW  EP  OW  HW  HW  EP  OW  HW  HW  EP  OW  
HW  HW  EP  OW  HW  HW  EP  OW  HW  HW  EP  OW  HW  HW  EP  OW  HW  HW  EP  OW  
HW  HW  EP  OW  HW  HW  EP  OW  HW  HW  EP  OW  HW  HW  EP  OW  HW  HW  EP  OW  
HW  HW  EP  OW  HW  HW  EP  OW  HW  HW  EP  OW  HW  HW  EP  OW  HW  HW  EP  OW  
HW  HW  EP  OW  HW  HW  EP  OW  HW  HW  EP  OW  HW  HW  EP  OW  HW  HW  EP  OW  
HW  HW  EP  OW  HW  HW  EP  OW  HW  HW  EP  OW  HW  HW  EP  OW  HW  HW  EP  OW  
HW  HW  EP  OW  HW  HW  EP  OW  HW  HW  EP  OW  HW  HW  EP  OW  HW  HW  EP  OW  
HW  HW  EP  OW  HW  HW  EP  OW  HW  HW  EP  OW  HW  HW  EP  OW  HW  HW  EP  OW  
HW  HW  EP  OW  HW  HW  EP  OW  HW  HW  EP  OW  HW  HW  EP  OW  HW  HW  EP  OW  
HW  HW  EP  OW  HW  HW  EP  OW  HW  HW  EP  OW  HW  HW  EP  OW  HW  HW  EP  OW  
HW  HW  EP  OW  HW  HW  EP  OW  HW  HW  EP  OW  HW  HW  EP  OW  HW  HW  EP  OW  
HW  HW  EP  OW  HW  HW  EP  OW  HW  HW  EP  OW  HW  HW  EP  OW  HW  HW  EP  OW  
HW  HW  EP  OW  HW  HW  EP  OW  HW  HW  EP  OW  HW  HW  EP  OW  HW  HW  EP  OW  
HW  HW  EP  OW  HW  HW  EP  OW  HW  HW  EP  OW  HW  HW  EP  OW  HW  HW  EP  OW  
HW  HW  EP  OW  HW  HW  EP  OW  HW  HW  EP  OW  HW  HW  EP  OW  HW  HW  EP  OW  
HW  HW  EP  OW  HW  HW  EP  OW  HW  HW  EP  OW  HW  HW  EP  OW  HW  HW  EP  OW  
HW  HW  EP  OW  HW  HW  EP  OW  HW  HW  EP  OW  HW  HW  EP  OW  HW  HW  EP  OW  
HW  HW  EP  OW  HW  HW  EP  OW  HW  HW  EP  OW  HW  HW  EP  OW  HW  HW  EP  OW  
HW  HW  EP  OW  HW  HW  EP  OW  HW  HW  EP  OW  HW  HW  EP  OW  HW  HW  EP  OW  
HW  HW  EP  OW  HW  HW  EP  OW  HW  HW  EP  OW  HW  HW  EP  OW  HW  HW  EP  OW  
HW  HW  EP  OW  HW  HW  EP  OW  HW  HW  EP  OW  HW  HW  EP  OW  HW  HW  EP  OW  
HW  HW  EP  OW  HW  HW  EP  OW  HW  HW  EP  OW  HW  HW  EP  OW  HW  HW  EP  OW  
HW  HW  EP  OW  HW  HW  EP  OW  HW  HW  EP  OW  HW  HW  EP  OW  HW  HW  EP  OW  
HW  HW  EP  OW  HW  HW  EP  OW  HW  HW  EP  OW  HW  HW  EP  OW  HW  HW  EP  OW  
HW  HW  EP  OW  HW  HW  EP  OW  HW  HW  EP  OW  HW  HW  EP  OW  HW  HW  EP  OW  
HW  HW  EP  OW  HW  HW  EP  OW  HW  HW  EP  OW  HW  HW  EP  OW  HW  HW  EP  OW  
HW  HW  EP  OW  HW  HW  EP  OW  HW  HW  EP  OW  HW  HW  EP  OW  HW  HW  EP  OW  
HW  HW  EP  OW  HW  HW  EP  OW  HW  HW  EP  OW  HW  HW  EP  OW  HW  HW  EP  OW  
HW  HW  EP  OW  HW  HW  EP  OW  HW  HW  EP  OW  HW  HW  EP  OW  HW  HW  EP  OW  
HW  HW  EP  OW  HW  HW  EP  OW  HW  HW  EP  OW  HW  HW  EP  OW  HW  HW  EP  OW  
HW  HW  EP  OW  HW  HW  EP  OW  HW  HW  EP  OW  HW  HW  EP  OW  HW  HW  EP  OW  
HW  HW  EP  OW  HW  HW  EP  OW  HW  HW  EP  OW  HW  HW  EP  OW  HW  HW  EP  OW  
HW  HW  EP  OW  HW  HW  EP  OW  HW  HW  EP  OW  HW  HW  EP  OW  HW  HW  EP  OW  
HW  HW  EP  OW  HW  HW  EP  OW  HW  HW  EP  OW  HW  HW  EP  OW  HW  HW  EP  OW  
HW  HW  EP  OW  HW  HW  EP  OW  HW  HW  EP  OW  HW  HW  EP  OW  HW  HW  EP  OW  
HW  HW  EP  OW  HW  HW  EP  OW  HW  HW  EP  OW  HW  HW  EP  OW  HW  HW  EP  OW  
HW  HW  EP  OW  HW  HW  EP  OW  HW  HW  EP  OW  HW  HW  EP  OW  HW  HW  EP  OW  
HW  HW  EP  OW  HW  HW  EP  OW  HW  HW  EP  OW  HW  HW  EP  OW  HW  HW  EP  OW  
HW  HW  EP  OW  HW  HW  EP  OW  HW  HW  EP  OW  HW  HW  EP  OW  HW  HW  EP  OW  
HW  HW  EP  OW  HW  HW  EP  OW  HW  HW  EP  OW  HW  HW  EP  OW  HW  HW  EP  OW  
HW  HW  EP  OW  HW  HW  EP  OW  HW  HW  EP  OW  HW  HW  EP  OW  HW  HW  EP  OW  
HW  HW  EP  OW  HW  HW  EP  OW  HW  HW  EP  OW  HW  HW  EP  OW  HW  HW  EP  OW  
HW  HW  EP  OW  HW  HW  EP  OW  HW  HW  EP  OW  HW  HW  EP  OW  HW  HW  EP  OW  
HW  HW  EP  OW  HW  HW  EP  OW  HW  HW  EP  OW  HW  HW  EP  OW  HW  HW  EP  OW  
HW  HW  EP  OW  HW  HW  EP  OW  HW  HW  EP  OW  HW  HW  EP  OW  HW  HW  EP  OW  
HW  HW  EP  OW  HW  HW  EP  OW  HW  HW  EP  OW  HW  HW  EP  OW  HW  HW  EP  OW  
HW  HW  EP  OW  HW  HW  EP  OW  HW  HW  EP  OW  HW  HW  EP  OW  HW  HW  EP  OW  
HW  HW  EP  OW  HW  HW  EP  OW  HW  HW  EP  OW  HW  HW  EP  OW  HW  HW  EP  OW  
HW  HW  EP  OW  HW  HW  EP  OW  HW  HW  EP  OW  HW  HW  EP  OW  HW  HW  EP  OW  
HW  HW  EP  OW  HW  HW  EP  OW  HW  HW  EP  OW  HW  HW  EP  OW  HW  HW  EP  OW  
HW  HW  EP  OW  HW  HW  EP  OW  HW  HW  EP  OW  HW  HW  EP  OW  HW  HW  EP  OW  
HW  HW  EP  OW  HW  HW  EP  OW  HW  HW  EP  OW  HW  HW  EP  OW  HW  HW  EP  OW  
HW  HW  EP  OW  HW  HW  EP  OW  HW  HW  EP  OW  HW  HW  EP  OW  HW  HW  EP  OW  
HW  HW  EP  OW  HW  HW  EP  OW  HW  HW  EP  OW  HW  HW  EP  OW  HW  HW  EP  OW  
HW  HW  EP  OW  HW  HW  EP  OW  HW  HW  EP  OW  HW  HW  EP  OW  HW  HW  EP  OW  
HW  HW  EP  OW  HW  HW  EP  OW  HW  HW  EP  OW  HW  HW  EP  OW  HW  HW  EP  OW  
HW  HW  EP  OW  HW  HW  EP  OW  HW  HW  EP  OW  HW  HW  EP  OW  HW  HW  EP  OW  
HW  HW  EP  OW  HW  HW  EP  OW  HW  HW  EP  OW  HW  HW  EP  OW  HW  HW  EP  OW  
HW  HW  EP  OW  HW  HW  EP  OW  HW  HW  EP  OW  HW  HW  EP  OW  HW  HW  EP  OW  
HW  HW  EP  OW  HW  HW  EP  OW  HW  HW  EP  OW  HW  HW  EP  OW  HW  HW  EP  OW  
HW  HW  EP  OW  HW  HW  EP  OW  HW  HW  EP  OW  HW  HW  EP  OW  HW  HW  EP  OW  
HW  HW  EP  OW  HW  HW  EP  OW  HW  HW  EP  OW  HW  HW  EP  OW  HW  HW  EP  OW  
HW  HW  EP  OW  HW  HW  EP  OW  HW  HW  EP  OW  HW  HW  EP  OW  HW  HW  EP  OW  
HW  HW  EP  OW  HW  HW  EP  OW  HW  HW  EP  OW  HW  HW  EP  OW  HW  HW  EP  OW  
HW  HW  EP  OW  HW  HW  EP  OW  HW  HW  EP  OW  HW  HW  EP  OW  HW  HW  EP  OW  
HW  HW  EP  OW  HW  HW  EP  OW  HW  HW  EP  OW  HW  HW  EP  OW  HW  HW  EP  OW  
HW  HW  EP  OW  HW  HW  EP  OW  HW  HW  EP  OW  HW  HW  EP  OW  HW  HW  EP  OW  
HW  HW  EP  OW  HW  HW  EP  OW  HW  HW  EP  OW  HW  HW  EP  OW  HW  HW  EP  OW  
HW  HW  EP  OW  HW  HW  EP  OW  HW  HW  EP  OW  HW  HW  EP  OW  HW  HW  EP  OW  
HW  HW  EP  OW  HW  HW  EP  OW  HW  HW  EP  OW  HW  HW  EP  OW  HW  HW  EP  OW  
HW  HW  EP  OW  HW  HW  EP  OW  HW  HW  EP  OW  HW  HW  EP  OW  HW  HW  EP  OW  
HW  HW  EP  OW  HW  HW  EP  OW  HW  HW  EP  OW  HW  HW  EP  OW  HW  HW  EP  OW  
HW  HW  EP  OW  HW  HW  EP  OW  HW  HW  EP  OW  HW  HW  EP  OW  HW  HW  EP  OW  
HW  HW  EP  OW  HW  HW  EP  OW  HW  HW  EP  OW  HW  HW  EP  OW  HW  HW  EP  OW  
HW  HW  EP  OW  HW  HW  EP  OW  HW  HW  EP  OW  HW  HW  EP  OW  HW  HW  EP  OW  
HW  HW  EP  OW  HW  HW  EP  OW  HW  HW  EP  OW  HW  HW  EP  OW  HW  HW  EP  OW  
HW  HW  EP  OW  HW  HW  EP  OW  HW  HW  EP  OW  HW  HW  EP  OW  HW  HW  EP  OW  
HW  HW  EP  OW  HW  HW  EP  OW  HW  HW  EP  OW  HW  HW  EP  OW  HW  HW  EP  OW  
HW  HW  EP  OW  HW  HW  EP  OW  HW  HW  EP  OW  HW  HW  EP  OW  HW  HW  EP  OW  
HW  HW  EP  OW  HW  HW  EP  OW  HW  HW  EP  OW  HW  HW  EP  OW  HW  HW  EP  OW  
HW  HW  EP  OW  HW  HW  EP  OW  HW  HW  EP  OW  HW  HW  EP  OW  HW  HW  EP  OW  
HW  HW  EP  OW  HW  HW  EP  OW  HW  HW  EP  OW  HW  HW  EP  OW  HW  HW  EP  OW  
HW  HW  EP  OW  HW  HW  EP  OW  HW  HW  EP  OW  HW  HW  EP  OW  HW  HW  EP  OW  
HW  HW  EP  OW  HW  HW  EP  OW  HW  HW  EP  OW  HW  HW  EP  OW  HW  HW  EP  OW  
HW  HW  EP  OW  HW  HW  EP  OW  HW  HW  EP  OW  HW  HW  EP  OW  HW  HW  EP  OW  
HW  HW  EP  OW  HW  HW  EP  OW  HW  HW  EP  OW  HW  HW  EP  OW  HW  HW  EP  OW  
HW  HW  EP  OW  HW  HW  EP  OW  HW  HW  EP  OW  HW  HW  EP  OW  HW  HW  EP  OW  
HW  HW  EP  OW  HW  HW  EP  OW  HW  HW  EP  OW  HW  HW  EP  OW  HW  HW  EP  OW  
HW  HW  EP  OW  HW  HW  EP  OW  HW  HW  EP  OW  HW  HW  EP  OW  HW  HW  EP  OW  
HW  HW  EP  OW  HW  HW  EP  OW  HW  HW  EP  OW  HW  HW  EP  OW  HW  HW  EP  OW  
HW  HW  EP  OW  HW  HW  EP  OW  HW  HW  EP  OW  HW  HW  EP  OW  HW  HW  EP  OW  
HW  HW  EP  OW  HW  HW  EP  OW  HW  HW  EP  OW  HW  HW  EP  OW  HW  HW  EP  OW  
HW  HW  EP  OW  HW  HW  EP  OW  HW  HW  EP  OW  HW  HW  EP  OW  HW  HW  EP  OW  
HW  HW  EP  OW  HW  HW  EP  OW  HW  HW  EP  OW  HW  HW  EP  OW  HW  HW  EP  OW  
HW  HW  EP  OW  HW  HW  EP  OW  HW  HW  EP  OW  HW  HW  EP  OW  HW  HW  EP  OW  
HW  HW  EP  OW  HW  HW  EP  OW  HW  HW  EP  OW  HW  HW  EP  OW  HW  HW  EP  OW  
HW  HW  EP  OW  HW  HW  EP  OW  HW  HW  EP  OW  HW  HW  EP  OW  HW  HW  EP  OW  
HW  HW  EP  OW  HW  HW  EP  OW  HW  HW  EP  OW  HW  HW  EP  OW  HW  HW  EP  OW  
HW  HW  EP  OW  HW  HW  EP  OW  HW  HW  EP  OW  HW  HW  EP  OW  HW  HW  EP  OW  
HW  HW  EP  OW  HW  HW  EP  OW  HW  HW  EP  OW  HW  HW  EP  OW  HW  HW  EP  OW  
HW  HW  EP  OW  HW  HW  EP  OW  HW  HW  EP  OW  HW  HW  EP  OW  HW  HW  EP  OW  
HW  HW  EP  OW  HW  HW  EP  OW  HW  HW  EP  OW  HW  HW  EP  OW  HW  HW  EP  OW  
HW  HW  EP  OW  HW  HW  EP  OW  HW  HW  EP  OW  HW  HW  EP  OW  HW  HW  EP  OW  
HW  HW  EP  OW  HW  HW  EP  OW  HW  HW  EP  OW  HW  HW  EP  OW  HW  HW  EP  OW  
HW  HW  EP  OW  HW  HW  EP  OW  HW  HW  EP  OW  HW  HW  EP  OW  HW  HW  EP  OW  
HW  HW  EP  OW  HW  HW  EP  OW  HW  HW  EP  OW  HW  HW  EP  OW  HW  HW  EP  OW  
HW  HW  EP  OW  HW  HW  EP  OW  HW  HW  EP  OW  HW  HW  EP  OW  HW  HW  EP  OW  
HW  HW  EP  OW  HW  HW  EP  OW  HW  HW  EP  OW  HW  HW  EP  OW  HW  HW  EP  OW  
HW  HW  EP  OW  HW  HW  EP  OW  HW  HW  EP  OW  HW  HW  EP  OW  HW  HW  EP  OW  
HW  HW  EP  OW  HW  HW  EP  OW  HW  HW  EP  OW  HW  HW  EP  OW  HW  HW  EP  OW  
HW  HW  EP  OW  HW  HW  EP  OW  HW  HW  EP  OW  HW  HW  EP  OW  HW  HW  EP  OW  
HW  HW  EP  OW  HW  HW  EP  OW  HW  HW  EP  OW  HW  HW  EP  OW  HW  HW  EP  OW  
HW  HW  EP  OW  HW  HW  EP  OW  HW  HW  EP  OW  HW  HW  EP  OW  HW  HW  EP  OW  
HW  HW  EP  OW  HW  HW  EP  OW  HW  HW  EP  OW  HW  HW  EP  OW  HW  HW  EP  OW  
HW  HW  EP  OW  HW  HW  EP  OW  HW  HW  EP  OW  HW  HW  EP  OW  HW  HW  EP  OW  
HW  HW  EP  OW  HW  HW  EP  OW  HW  HW  EP  OW  HW  HW  EP  OW  HW  HW  EP  OW  
HW  HW  EP  OW  HW  HW  EP  OW  HW  HW  EP  OW  HW  HW  EP  OW  HW  HW  EP  OW  
HW  HW  EP  OW  HW  HW  EP  OW  HW  HW  EP  OW  HW  HW  EP  OW  HW  HW  EP  OW  
HW  HW  EP  OW  HW  HW  EP  OW  HW  HW  EP  OW  HW  HW  EP  OW  HW  HW  EP  OW  
HW  HW  EP  OW  HW  HW  EP  OW  HW  HW  EP  OW  HW  HW  EP  OW  HW  HW  EP  OW  
HW  HW  EP  OW  HW  HW  EP  OW  HW  HW  EP  OW  HW  HW  EP  OW  HW  HW  EP  OW  
HW  HW  EP  OW  HW  HW  EP  OW  HW  HW  EP  OW  HW  HW  EP  OW  HW  HW  EP  OW  
HW  HW  EP  OW  HW  HW  EP  OW  HW  HW  EP  OW  HW  HW  EP  OW  HW  HW  EP  OW  
HW  HW  EP  OW  HW  HW  EP  OW  HW  HW  EP  OW  HW  HW  EP  OW  HW  HW  EP  OW  
HW  HW  EP  OW  HW  HW  EP  OW  HW  HW  EP  OW  HW  HW  EP  OW  HW  HW  EP  OW  
HW  HW  EP  OW  HW  HW  EP  OW  HW  HW  EP  OW  HW  HW  EP  OW  HW  HW  EP  OW  
HW  HW  EP  OW  HW  HW  EP  OW  HW  HW  EP  OW  HW  HW  EP  OW  HW  HW  EP  OW  
HW  HW  EP  OW  HW  HW  EP  OW  HW  HW  EP  OW  HW  HW  EP  OW  HW  HW  EP  OW  
HW  HW  EP  OW  HW  HW  EP  OW  HW  HW  EP  OW  HW  HW  EP  OW  HW  HW  EP  OW  
HW  HW  EP  OW  HW  HW  EP  OW  HW  HW  EP  OW  HW  HW  EP  OW  HW  HW  EP  OW  
HW  HW  EP  OW  HW  HW  EP  OW  HW  HW  EP  OW  HW  HW  EP  OW  HW  HW  EP  OW  
HW  HW  EP  OW  HW  HW  EP  OW  HW  HW  EP  OW  HW  HW  EP  OW  HW  HW  EP  OW  
HW  HW  EP  OW  HW  HW  EP  OW  HW  HW  EP  OW  HW  HW  EP  OW  HW  HW  EP  OW  
HW  HW  EP  OW  HW  HW  EP  OW  HW  HW  EP  OW  HW  HW  EP  OW  HW  HW  EP  OW  
HW  HW  EP  OW  HW  HW  EP  OW  HW  HW  EP  OW  HW  HW  EP  OW  HW  HW  EP  OW  
HW  HW  EP  OW  HW  HW  EP  OW  HW  HW  EP  OW  HW  HW  EP  OW  HW  HW  EP  OW  
HW  HW  EP  OW  HW  HW  EP  OW  HW  HW  EP  OW  HW  HW  EP  OW  HW  HW  EP  OW  
HW  HW  EP  OW  HW  HW  EP  OW  HW  HW  EP  OW  HW  HW  EP  OW  HW  HW  EP  OW  
HW  HW  EP  OW  HW  HW  EP  OW  HW  HW  EP  OW  HW  HW  EP  OW  HW  HW  EP  OW  
HW  HW  EP  OW  HW  HW  EP  OW  HW  HW  EP  OW  HW  HW  EP  OW  HW  HW  EP  OW  
HW  HW  EP  OW  HW  HW  EP  OW  HW  HW  EP  OW  HW  HW  EP  OW  HW  HW  EP  OW  
HW  HW  EP  OW  HW  HW  EP  OW  HW  HW  EP  OW  HW  HW  EP  OW  HW  HW  EP  OW  
HW  HW  EP  OW  HW  HW  EP  OW  HW  HW  EP  OW  HW  HW  EP  OW  HW  HW  EP  OW  
HW  HW  EP  OW  HW  HW  EP  OW  HW  HW  EP  OW  HW  HW  EP  OW  HW  HW  EP  OW  
HW  HW  EP  OW  HW  HW  EP  OW  HW  HW  EP  OW  HW  HW  EP  OW  HW  HW  EP  OW  
HW  HW  EP  OW  HW  HW  EP  OW  HW  HW  EP  OW  HW  HW  EP  OW  HW  HW  EP  OW  
HW  HW  EP  OW  HW  HW  EP  OW  HW  HW  EP  OW  HW  HW  EP  OW  HW  HW  EP  OW  
HW  HW  EP  OW  HW  HW  EP  OW  HW  HW  EP  OW  HW  HW  EP  OW  HW  HW  EP  OW  
HW  HW  EP  OW  HW  HW  EP  OW  HW  HW  EP  OW  HW  HW  EP  OW  HW  HW  EP  OW  
HW  HW  EP  OW  HW  HW  EP  OW  HW  HW  EP  OW  HW  HW  EP  OW  HW  HW  EP  OW  
HW  HW  EP  OW  HW  HW  EP  OW  HW  HW  EP  OW  HW  HW  EP  OW  HW  HW  EP  OW  
HW  HW  EP  OW  HW  HW  EP  OW  HW  HW  EP  OW  HW  HW  EP  OW  HW  HW  EP  OW  
HW  HW  EP  OW  HW  HW  EP  OW  HW  HW  EP  OW  HW  HW  EP  OW  HW  HW  EP  OW  
HW  HW  EP  OW  HW  HW  EP  OW  HW  HW  EP  OW  HW  HW  EP  OW  HW  HW  EP  OW  
HW  HW  EP  OW  HW  HW  EP  OW  HW  HW  EP  OW  HW  HW  EP  OW  HW  HW  EP  OW  
HW  HW  EP  OW  HW  HW  EP  OW  HW  HW  EP  OW  HW  HW  EP  OW  HW  HW  EP  OW  
HW  HW  EP  OW  HW  HW  EP  OW  HW  HW  EP  OW  HW  HW  EP  OW  HW  HW  EP  OW  
HW  HW  EP  OW  HW  HW  EP  OW  HW  HW  EP  OW  HW  HW  EP  OW  HW  HW  EP  OW  
HW  HW  EP  OW  HW  HW  EP  OW  HW  HW  EP  OW  HW  HW  EP  OW  HW  HW  EP  OW  
HW  HW  EP  OW  HW  HW  EP  OW  HW  HW  EP  OW  HW  HW  EP  OW  HW  HW  EP  OW  
HW  HW  EP  OW  HW  HW  EP  OW  HW  HW  EP  OW  HW  HW  EP  OW  HW  HW  EP  OW  
HW  HW  EP  OW  HW  HW  EP  OW  HW  HW  EP  OW  HW  HW  EP  OW  HW  HW  EP  OW  
HW  HW  EP  OW  HW  HW  EP  OW  HW  HW  EP  OW  HW  HW  EP  OW  HW  HW  EP  OW  
HW  HW  EP  OW  HW  HW  EP  OW  HW  HW  EP  OW  HW  HW  EP  OW  HW  HW  EP  OW  
HW  HW  EP  OW  HW  HW  EP  OW  HW  HW  EP  OW  HW  HW  EP  OW  HW  HW  EP  OW  
HW  HW  EP  OW  HW  HW  EP  OW  HW  HW  EP  OW  HW  HW  EP  OW  HW  HW  EP  OW  
HW  HW  EP  OW  HW  HW  EP  OW  HW  HW  EP  OW  HW  HW  EP  OW  HW  HW  EP  OW  
HW  HW  EP  OW  HW  HW  EP  OW  HW  HW  EP  OW  HW  HW  EP  OW  HW  HW  EP  OW  
HW  HW  EP  OW  HW  HW  EP  OW  HW  HW  EP  OW  HW  HW  EP  OW  HW  HW  EP  OW  
HW  HW  EP  OW  HW  HW  EP  OW  HW  HW  EP  OW  HW  HW  EP  OW  HW  HW  EP  OW  
HW  HW  EP  OW  HW  HW  EP  OW  HW  HW  EP  OW  HW  HW  EP  OW  HW  HW  EP  OW  
HW  HW  EP  OW  HW  HW  EP  OW  HW  HW  EP  OW  HW  HW  EP  OW  HW  HW  EP  OW  
HW  HW  EP  OW  HW  HW  EP  OW  HW  HW  EP  OW  HW  HW  EP  OW  HW  HW  EP  OW  
HW  HW  EP  OW  HW  HW  EP  OW  HW  HW  EP  OW  HW  HW  EP  OW  HW  HW  EP  OW  
HW  HW  EP  OW  HW  HW  EP  OW  HW  HW  EP  OW  HW  HW  EP  OW  HW  HW  EP  OW  
HW  HW  EP  OW  HW  HW  EP  OW  HW  HW  EP  OW  HW  HW  EP  OW  HW  HW  EP  OW  
HW  HW  EP  OW  HW  HW  EP  OW  HW  HW  EP  OW  HW  HW  EP  OW  HW  HW  EP  OW  
HW  HW  EP  OW  HW  HW  EP  OW  HW  HW  EP  OW  HW  HW  EP  OW  HW  HW  EP  OW  
HW  HW  EP  OW  HW  HW  EP  OW  HW  HW  EP  OW  HW  HW  EP  OW  HW  HW  EP  OW  
HW  HW  EP  OW  HW  HW  EP  OW  HW  HW  EP  OW  HW  HW  EP  OW  HW  HW  EP  OW  
HW  HW  EP  OW  HW  HW  EP  OW  HW  HW  EP  OW  HW  HW  EP  OW  HW  HW  EP  OW  
HW  HW  EP  OW  HW  HW  EP  OW  HW  HW  EP  OW  HW  HW  EP  OW  HW  HW  EP  OW  
HW  HW  EP  OW  HW  HW  EP  OW  HW  HW  EP  OW  HW  HW  EP  OW  HW  HW  EP  OW  
HW  HW  EP  OW  HW  HW  EP  OW  HW  HW  EP  OW  HW  HW  EP  OW  HW  HW  EP  OW  
HW  HW  EP  OW  HW  HW  EP  OW  HW  HW  EP  OW  HW  HW  EP  OW  HW  HW  EP  OW  
HW  HW  EP  OW  HW  HW  EP  OW  HW  HW  EP  OW  HW  HW  EP  OW  HW  HW  EP  OW  
HW  HW  EP  OW  HW  HW  EP  OW  HW  HW  EP  OW  HW  HW  EP  OW  HW  HW  EP  OW  
HW  HW  EP  OW  HW  HW  EP  OW  HW  HW  EP  OW  HW  HW  EP  OW  HW  HW  EP  OW  
HW  HW  EP  OW  HW  HW  EP  OW  HW  HW  EP  OW  HW  HW  EP  OW  HW  HW  EP  OW  
HW  HW  EP  OW  HW  HW  EP  OW  HW  HW  EP  OW  HW  HW  EP  OW  HW  HW  EP  OW  
HW  HW  EP  OW  HW  HW  EP  OW  HW  HW  EP  OW  HW  HW  EP  OW  HW  HW  EP  OW  
HW  HW  EP  OW  HW  HW  EP  OW  HW  HW  EP  OW  HW  HW  EP  OW  HW  HW  EP  OW  
HW  HW  EP  OW  HW  HW  EP  OW  HW  HW  EP  OW  HW  HW  EP  OW  HW  HW  EP  OW  
HW  HW  EP  OW  HW  HW  EP  OW  HW  HW  EP  OW  HW  HW  EP  OW  HW  HW  EP  OW  
HW  HW  EP  OW  HW  HW  EP  OW  HW  HW  EP  OW  HW  HW  EP  OW  HW  HW  EP  OW  
HW  HW  EP  OW  HW  HW  EP  OW  HW  HW  EP  OW  HW  HW  EP  OW  HW  HW  EP  OW  
HW  HW  EP  OW  HW  HW  EP  OW  HW  HW  EP  OW  HW  HW  EP  OW  HW  HW  EP  OW  
HW  HW  EP  OW  HW  HW  EP  OW  HW  HW  EP  OW  HW  HW  EP  OW  HW  HW  EP  OW  
HW  HW  EP  OW  HW  HW  EP  OW  HW  HW  EP  OW  HW  HW  EP  OW  HW  HW  EP  OW  
HW  HW  EP  OW  HW  HW  EP  OW  HW  HW  EP  OW  HW  HW  EP  OW  HW  HW  EP  OW  
HW  HW  EP  OW  HW  HW  EP  OW  HW  HW  EP  OW  HW  HW  EP  OW  HW  HW  EP  OW  
HW  HW  EP  OW  HW  HW  EP  OW  HW  HW  EP  OW  HW  HW  EP  OW  HW  HW  EP  OW  
HW  HW  EP  OW  HW  HW  EP  OW  HW  HW  EP  OW  HW  HW  EP  OW  HW  HW  EP  OW  
HW  HW  EP  OW  HW  HW  EP  OW  HW  HW  EP  OW  HW  HW  EP  OW  HW  HW  EP  OW  
HW  HW  EP  OW  HW  HW  EP  OW  HW  HW  EP  OW  HW  HW  EP  OW  HW  HW  EP  OW  
HW  HW  EP  OW  HW  HW  EP  OW  HW  HW  EP  OW  HW  HW  EP  OW  HW  HW  EP  OW  
HW  HW  EP  OW  HW  HW  EP  OW  HW  HW  EP  OW  HW  HW  EP  OW  HW  HW  EP  OW  
HW  HW  EP  OW  HW  HW  EP  OW  HW  HW  EP  OW  HW  HW  EP  OW  HW  HW  EP  OW  
HW  HW  EP  OW  HW  HW  EP  OW  HW  HW  EP  OW  HW  HW  EP  OW  HW  HW  EP  OW  
HW  HW  EP  OW  HW  HW  EP  OW  HW  HW  EP  OW  HW  HW  EP  OW  HW  HW  EP  OW  
HW  HW  EP  OW  HW  HW  EP  OW  HW  HW  EP  OW  HW  HW  EP  OW  HW  HW  EP  OW  
HW  HW  EP  OW  HW  HW  EP  OW  HW  HW  EP  OW  HW  HW  EP  OW  HW  HW  EP  OW  
HW  HW  EP  OW  HW  HW  EP  OW  HW  HW  EP  OW  HW  HW  EP  OW  HW  HW  EP  OW  
HW  HW  EP  OW  HW  HW  EP  OW  HW  HW  EP  OW  HW  HW  EP  OW  HW  HW  EP  OW  
HW  HW  EP  OW  HW  HW  EP  OW  HW  HW  EP  OW  HW  HW  EP  OW  HW  HW  EP  OW  
HW  HW  EP  OW  HW  HW  EP  OW  HW  HW  EP  OW  HW  HW  EP  OW  HW  HW  EP  OW  
HW  HW  EP  OW  HW  HW  EP  OW  HW  HW  EP  OW  HW  HW  EP  OW  HW  HW  EP  OW  
HW  HW  EP  OW  HW  HW  EP  OW  HW  HW  EP  OW  HW  HW  EP  OW  HW  HW  EP  OW  
HW  HW  EP  OW  HW  HW  EP  OW  HW  HW  EP  OW  HW  HW  EP  OW  HW  HW  EP  OW  
HW  HW  EP  OW  HW  HW  EP  OW  HW  HW  EP  OW  HW  HW  EP  OW  HW  HW  EP  OW  
HW  HW  EP  OW  HW  HW  EP  OW  HW  HW  EP  OW  HW  HW  EP  OW  HW  HW  EP  OW  
HW  HW  EP  OW  HW  HW  EP  OW  HW  HW  EP  OW  HW  HW  EP  OW  HW  HW  EP  OW  
HW  HW  EP  OW  HW  HW  EP  OW  HW  HW  EP  OW  HW  HW  EP  OW  HW  HW  EP  OW  
HW  HW  EP  OW  HW  HW  EP  OW  HW  HW  EP  OW  HW  HW  EP  OW  HW  HW  EP  OW  
HW  HW  EP  OW  HW  HW  EP  OW  HW  HW  EP  OW  HW  HW  EP  OW  HW  HW  EP  OW  
HW  HW  EP  OW  HW  HW  EP  OW  HW  HW  EP  OW  HW  HW  EP  OW  HW  HW  EP  OW  
HW  HW  EP  OW  HW  HW  EP  OW  HW  HW  EP  OW  HW  HW  EP  OW  HW  HW  EP  OW  
HW  HW  EP  OW  HW  HW  EP  OW  HW  HW  EP  OW  HW  HW  EP  OW  HW  HW  EP  OW  
HW  HW  EP  OW  HW  HW  EP  OW  HW  HW  EP  OW  HW  HW  EP  OW  HW  HW  EP  OW  
HW  HW  EP  OW  HW  HW  EP  OW  HW  HW  EP  OW  HW  HW  EP  OW  HW  HW  EP  OW  
HW  HW  EP  OW  HW  HW  EP  OW  HW  HW  EP  OW  HW  HW  EP  OW  HW  HW  EP  OW  
HW  HW  EP  OW  HW  HW  EP  OW  HW  HW  EP  OW  HW  HW  EP  OW  HW  HW  EP  OW  
HW  HW  EP  OW  HW  HW  EP  OW  HW  HW  EP  OW  HW  HW  EP  OW  HW  HW  EP  OW  
HW  HW  EP  OW  HW  HW  EP  OW  HW  HW  EP  OW  HW  HW  EP  OW  HW  HW  EP  OW  
HW  HW  EP  OW  HW  HW  EP  OW  HW  HW  EP  OW  HW  HW  EP  OW  HW  HW  EP  OW  
HW  HW  EP  OW  HW  HW  EP  OW  HW  HW  EP  OW  HW  HW  EP  OW  HW  HW  EP  OW  
HW  HW  EP  OW  HW  HW  EP  OW  HW  HW  EP  OW  HW  HW  EP  OW  HW  HW  EP  OW  
HW  HW  EP  OW  HW  HW  EP  OW  HW  HW  EP  OW  HW  HW  EP  OW  HW  HW  EP  OW  
HW  HW  EP  OW  HW  HW  EP  OW  HW  HW  EP  OW  HW  HW  EP  OW  HW  HW  EP  OW  
HW  HW  EP  OW  HW  HW  EP  OW  HW  HW  EP  OW  HW  HW  EP  OW  HW  HW  EP  OW  
HW  HW  EP  OW  HW  HW  EP  OW  HW  HW  EP  OW  HW  HW  EP  OW  HW  HW  EP  OW  
HW  HW  EP  OW  HW  HW  EP  OW  HW  HW  EP  OW  HW  HW  EP  OW  HW  HW  EP  OW  
HW  HW  EP  OW  HW  HW  EP  OW  HW  HW  EP  OW  HW  HW  EP  OW  HW  HW  EP  OW  
HW  HW  EP  OW  HW  HW  EP  OW  HW  HW  EP  OW  HW  HW  EP  OW  HW  HW  EP  OW  
HW  HW  EP  OW  HW  HW  EP  OW  HW  HW  EP  OW  HW  HW  EP  OW  HW  HW  EP  OW  
HW  HW  EP  OW  HW  HW  EP  OW  HW  HW  EP  OW  HW  HW  EP  OW  HW  HW  EP  OW  
HW  HW  EP  OW  HW  HW  EP  OW  HW  HW  EP  OW  HW  HW  EP  OW  HW  HW  EP  OW  
HW  HW  EP  OW  HW  HW  EP  OW  HW  HW  EP  OW  HW  HW  EP  OW  HW  HW  EP  OW  
HW  HW  EP  OW  HW  HW  EP  OW  HW  HW  EP  OW  HW  HW  EP  OW  HW  HW  EP  OW  
HW  HW  EP  OW  HW  HW  EP  OW  HW  HW  EP  OW  HW  HW  EP  OW  HW  HW  EP  OW  
HW  HW  EP  OW  HW  HW  EP  OW  HW  HW  EP  OW  HW  HW  EP  OW  HW  HW  EP  OW  
HW  HW  EP  OW  HW  HW  EP  OW  HW  HW  EP  OW  HW  HW  EP  OW  HW  HW  EP  OW  
HW  HW  EP  OW  HW  HW  EP  OW  HW  HW  EP  OW  HW  HW  EP  OW  HW  HW  EP  OW  
HW  HW  EP  OW  HW  HW  EP  OW  HW  HW  EP  OW  HW  HW  EP  OW  HW  HW  EP  OW  
HW  HW  EP  OW  HW  HW  EP  OW  HW  HW  EP  OW  HW  HW  EP  OW  HW  HW  EP  OW  
HW  HW  EP  OW  HW  HW  EP  OW  HW  HW  EP  OW  HW  HW  EP  OW  HW  HW  EP  OW  
HW  HW  EP  OW  HW  HW  EP  OW  HW  HW  EP  OW  HW  HW  EP  OW  HW  HW  EP  OW  
HW  HW  EP  OW  HW  HW  EP  OW  HW  HW  EP  OW  HW  HW  EP  OW  HW  HW  EP  OW  
HW  HW  EP  OW  HW  HW  EP  OW  HW  HW  EP  OW  HW  HW  EP  OW  HW  HW  EP  OW  
HW  HW  EP  OW  HW  HW  EP  OW  HW  HW  EP  OW  HW  HW  EP  OW  HW  HW  EP  OW  
HW  HW  EP  OW  HW  HW  EP  OW  HW  HW  EP  OW  HW  HW  EP  OW  HW  HW  EP  OW  
HW  HW  EP  OW  HW  HW  EP  OW  HW  HW  EP  OW  HW  HW  EP  OW  HW  HW  EP  OW  
HW  HW  EP  OW  HW  HW  EP  OW  HW  HW  EP  OW  HW  HW  EP  OW  HW  HW  EP  OW  
HW  HW  EP  OW  HW  HW  EP  OW  HW  HW  EP  OW  HW  HW  EP  OW  HW  HW  EP  OW  
HW  HW  EP  OW  HW  HW  EP  OW  HW  HW  EP  OW  HW  HW  EP  OW  HW  HW  EP  OW  
HW  HW  EP  OW  HW  HW  EP  OW  HW  HW  EP  OW  HW  HW  EP  OW  HW  HW  EP  OW  
HW  HW  EP  OW  HW  HW  EP  OW  HW  HW  EP  OW  HW  HW  EP  OW  HW  HW  EP  OW  
HW  HW  EP  OW  HW  HW  EP  OW  HW  HW  EP  OW  HW  HW  EP  OW  HW  HW  EP  OW  
HW  HW  EP  OW  HW  HW  EP  OW  HW  HW  EP  OW  HW  HW  EP  OW  HW  HW  EP  OW  
HW  HW  EP  OW  HW  HW  EP  OW  HW  HW  EP  OW  HW  HW  EP  OW  HW  HW  EP  OW  
HW  HW  EP  OW  HW  HW  EP  OW  HW  HW  EP  OW  HW  HW  EP  OW  HW  HW  EP  OW  
HW  HW  EP  OW  HW  HW  EP  OW  HW  HW  EP  OW  HW  HW  EP  OW  HW  HW  EP  OW  
HW  HW  EP  OW  HW  HW  EP  OW  HW  HW  EP  OW  HW  HW  EP  OW  HW  HW  EP  OW  
HW  HW  EP  OW  HW  HW  EP  OW  HW  HW  EP  OW  HW  HW  EP  OW  HW  HW  EP  OW  
HW  HW  EP  OW  HW  HW  EP  OW  HW  HW  EP  OW  HW  HW  EP  OW  HW  HW  EP  OW  
HW  HW  EP  OW  HW  HW  EP  OW  HW  HW  EP  OW  HW  HW  EP  OW  HW  HW  EP  OW  
HW  HW  EP  OW  HW  HW  EP  OW  HW  HW  EP  OW  HW  HW  EP  OW  HW  HW  EP  OW  
HW  HW  EP  OW  HW  HW  EP  OW  HW  HW  EP  OW  HW  HW  EP  OW  HW  HW  EP  OW  
HW  HW  EP  OW  HW  HW  EP  OW  HW  HW  EP  OW  HW  HW  EP  OW  HW  HW  EP  OW  
HW  HW  EP  OW  HW  HW  EP  OW  HW  HW  EP  OW  HW  HW  EP  OW  HW  HW  EP  OW  
HW  HW  EP  OW  HW  HW  EP  OW  HW  HW  EP  OW  HW  HW  EP  OW  HW  HW  EP  OW  
HW  HW  EP  OW  HW  HW  EP  OW  HW  HW  EP  OW  HW  HW  EP  OW  HW  HW  EP  OW  
HW  HW  EP  OW  HW  HW  EP  OW  HW  HW  EP  OW  HW  HW  EP  OW  HW  HW  EP  OW  
HW  HW  EP  OW  HW  HW  EP  OW  HW  HW  EP  OW  HW  HW  EP  OW  HW  HW  EP  OW  
HW  HW  EP  OW  HW  HW  EP  OW  HW  HW  EP  OW  HW  HW  EP  OW  HW  HW  EP  OW  
HW  HW  EP  OW  HW  HW  EP  OW  HW  HW  EP  OW  HW  HW  EP  OW  HW  HW  EP  OW  
HW  HW  EP  OW  HW  HW  EP  OW  HW  HW  EP  OW  HW  HW  EP  OW  HW  HW  EP  OW  
HW  HW  EP  OW  HW  HW  EP  OW  HW  HW  EP  OW  HW  HW  EP  OW  HW  HW  EP  OW  
HW  HW  EP  OW  HW  HW  EP  OW  HW  HW  EP  OW  HW  HW  EP  OW  HW  HW  EP  OW  
HW  HW  EP  OW  HW  HW  EP  OW  HW  HW  EP  OW  HW  HW  EP  OW  HW  HW  EP  OW  
HW  HW  EP  OW  HW  HW  EP  OW  HW  HW  EP  OW  HW  HW  EP  OW  HW  HW  EP  OW  
HW  HW  EP  OW  HW  HW  EP  OW  HW  HW  EP  OW  HW  HW  EP  OW  HW  HW  EP  OW  
HW  HW  EP  OW  HW  HW  EP  OW  HW  HW  EP  OW  HW  HW  EP  OW  HW  HW  EP  OW  
HW  HW  EP  OW  HW  HW  EP  OW  HW  HW  EP  OW  HW  HW  EP  OW  HW  HW  EP  OW  
HW  HW  EP  OW  HW  HW  EP  OW  HW  HW  EP  OW  HW  HW  EP  OW  HW  HW  EP  OW  
HW  HW  EP  OW  HW  HW  EP  OW  HW  HW  EP  OW  HW  HW  EP  OW  HW  HW  EP  OW  
HW  HW  EP  OW  HW  HW  EP  OW  HW  HW  EP  OW  HW  HW  EP  OW  HW  HW  EP  OW  
HW  HW  EP  OW  HW  HW  EP  OW  HW  HW  EP  OW  HW  HW  EP  OW  HW  HW  EP  OW  
HW  HW  EP  OW  HW  HW  EP  OW  HW  HW  EP  OW  HW  HW  EP  OW  HW  HW  EP  OW  
HW  HW  EP  OW  HW  HW  EP  OW  HW  HW  EP  OW  HW  HW  EP  OW  HW  HW  EP  OW  
HW  HW  EP  OW  HW  HW  EP  OW  HW  HW  EP  OW  HW  HW  EP  OW  HW  HW  EP  OW  
HW  HW  EP  OW  HW  HW  EP  OW  HW  HW  EP  OW  HW  HW  EP  OW  HW  HW  EP  OW  
HW  HW  EP  OW  HW  HW  EP  OW  HW  HW  EP  OW  HW  HW  EP  OW  HW  HW  EP  OW  
HW  HW  EP  OW  HW  HW  EP  OW  HW  HW  EP  OW  HW  HW  EP  OW  HW  HW  EP  OW  
HW  HW  EP  OW  HW  HW  EP  OW  HW  HW  EP  OW  HW  HW  EP  OW  HW  HW  EP  OW  
HW  HW  EP  OW  HW  HW  EP  OW  HW  HW  EP  OW  HW  HW  EP  OW  HW  HW  EP  OW  
HW  HW  EP  OW  HW  HW  EP  OW  HW  HW  EP  OW  HW  HW  EP  OW  HW  HW  EP  OW  
HW  HW  EP  OW  HW  HW  EP  OW  HW  HW  EP  OW  HW  HW  EP  OW  HW  HW  EP  OW  
HW  HW  EP  OW  HW  HW  EP  OW  HW  HW  EP  OW  HW  HW  EP  OW  HW  HW  EP  OW  
HW  HW  EP  OW  HW  HW  EP  OW  HW  HW  EP  OW  HW  HW  EP  OW  HW  HW  EP  OW  
HW  HW  EP  OW  HW  HW  EP  OW  HW  HW  EP  OW  HW  HW  EP  OW  HW  HW  EP  OW  
HW  HW  EP  OW  HW  HW  EP  OW  HW  HW  EP  OW  HW  HW  EP  OW  HW  HW  EP  OW  
HW  HW  EP  OW  HW  HW  EP  OW  HW  HW  EP  OW  HW  HW  EP  OW  HW  HW  EP  OW  
HW  HW  EP  OW  HW  HW  EP  OW  HW  HW  EP  OW  HW  HW  EP  OW  HW  HW  EP  OW  
HW  HW  EP  OW  HW  HW  EP  OW  HW  HW  EP  OW  HW  HW  EP  OW  HW  HW  EP  OW  
HW  HW  EP  OW  HW  HW  EP  OW  HW  HW  EP  OW  HW  HW  EP  OW  HW  HW  EP  OW  
HW  HW  EP  OW  HW  HW  EP  OW  HW  HW  EP  OW  HW  HW  EP  OW  HW  HW  EP  OW  
HW  HW  EP  OW  HW  HW  EP  OW  HW  HW  EP  OW  HW  HW  EP  OW  HW  HW  EP  OW  
HW  HW  EP  OW  HW  HW  EP  OW  HW  HW  EP  OW  HW  HW  EP  OW  HW  HW  EP  OW  
HW  HW  EP  OW  HW  HW  EP  OW  HW  HW  EP  OW  HW  HW  EP  OW  HW  HW  EP  OW  
HW  HW  EP  OW  HW  HW  EP  OW  HW  HW  EP  OW  HW  HW  EP  OW  HW  HW  EP  OW  
HW  HW  EP  OW  HW  HW  EP  OW  HW  HW  EP  OW  HW  HW  EP  OW  HW  HW  EP  OW  
HW  HW  EP  OW  HW  HW  EP  OW  HW  HW  EP  OW  HW  HW  EP  OW  HW  HW  EP  OW  
HW  HW  EP  OW  HW  HW  EP  OW  HW  HW  EP  OW  HW  HW  EP  OW  HW  HW  EP  OW  
HW  HW  EP  OW  HW  HW  EP  OW  HW  HW  EP  OW  HW  HW  EP  OW  HW  HW  EP  OW  
HW  HW  EP  OW  HW  HW  EP  OW  HW  HW  EP  OW  HW  HW  EP  OW  HW  HW  EP  OW  
HW  HW  EP  OW  HW  HW  EP  OW  HW  HW  EP  OW  HW  HW  EP  OW  HW  HW  EP  OW  
HW  HW  EP  OW  HW  HW  EP  OW  HW  HW  EP  OW  HW  HW  EP  OW  HW  HW  EP  OW  
HW  HW  EP  OW  HW  HW  EP  OW  HW  HW  EP  OW  HW  HW  EP  OW  HW  HW  EP  OW  
HW  HW  EP  OW  HW  HW  EP  OW  HW  HW  EP  OW  HW  HW  EP  OW  HW  HW  EP  OW  
HW  HW  EP  OW  HW  HW  EP  OW  HW  HW  EP  OW  HW  HW  EP  OW  HW  HW  EP  OW  
HW  HW  EP  OW  HW  HW  EP  OW  HW  HW  EP  OW  HW  HW  EP  OW  HW  HW  EP  OW  
HW  HW  EP  OW  HW  HW  EP  OW  HW  HW  EP  OW  HW  HW  EP  OW  HW  HW  EP  OW  
HW  HW  EP  OW  HW  HW  EP  OW  HW  HW  EP  OW  HW  HW  EP  OW  HW  HW  EP  OW  
HW  HW  EP  OW  HW  HW  EP  OW  HW  HW  EP  OW  HW  HW  EP  OW  HW  HW  EP  OW  
HW  HW  EP  OW  HW  HW  EP  OW  HW  HW  EP  OW  HW  HW  EP  OW  HW  HW  EP  OW  
HW  HW  EP  OW  HW  HW  EP  OW  HW  HW  EP  OW  HW  HW  EP  OW  HW  HW  EP  OW  
HW  HW  EP  OW  HW  HW  EP  OW  HW  HW  EP  OW  HW  HW  EP  OW  HW  HW  EP  OW  
HW  HW  EP  OW  HW  HW  EP  OW  HW  HW  EP  OW  HW  HW  EP  OW  HW  HW  EP  OW  
HW  HW  EP  OW  HW  HW  EP  OW  HW  HW  EP  OW  HW  HW  EP  OW  HW  HW  EP  OW  
HW  HW  EP  OW  HW  HW  EP  OW  HW  HW  EP  OW  HW  HW  EP  OW  HW  HW  EP  OW  
HW  HW  EP  OW  HW  HW  EP  OW  HW  HW  EP  OW  HW  HW  EP  OW  HW  HW  EP  OW  
HW  HW  EP  OW  HW  HW  EP  OW  HW  HW  EP  OW  HW  HW  EP  OW  HW  HW  EP  OW  
HW  HW  EP  OW  HW  HW  EP  OW  HW  HW  EP  OW  HW  HW  EP  OW  HW  HW  EP  OW  
HW  HW  EP  OW  HW  HW  EP  OW  HW  HW  EP  OW  HW  HW  EP  OW  HW  HW  EP  OW  
HW  HW  EP  OW  HW  HW  EP  OW  HW  HW  EP  OW  HW  HW  EP  OW  HW  HW  EP  OW  
HW  HW  EP  OW  HW  HW  EP  OW  HW  HW  EP  OW  HW  HW  EP  OW  HW  HW  EP  OW  
HW  HW  EP  OW  HW  HW  EP  OW  HW  HW  EP  OW  HW  HW  EP  OW  HW  HW  EP  OW  
HW  HW  EP  OW  HW  HW  EP  OW  HW  HW  EP  OW  HW  HW  EP  OW  HW  HW  EP  OW  
HW  HW  EP  OW  HW  HW  EP  OW  HW  HW  EP  OW  HW  HW  EP  OW  HW  HW  EP  OW  
HW  HW  EP  OW  HW  HW  EP  OW  HW  HW  EP  OW  HW  HW  EP  OW  HW  HW  EP  OW  
HW  HW  EP  OW  HW  HW  EP  OW  HW  HW  EP  OW  HW  HW  EP  OW  HW  HW  EP  OW  
HW  HW  EP  OW  HW  HW  EP  OW  HW  HW  EP  OW  HW  HW  EP  OW  HW  HW  EP  OW  
HW  HW  EP  OW  HW  HW  EP  OW  HW  HW  EP  OW  HW  HW  EP  OW  HW  HW  EP  OW  
HW  HW  EP  OW  HW  HW  EP  OW  HW  HW  EP  OW  HW  HW  EP  OW  HW  HW  EP  OW  
HW  HW  EP  OW  HW  HW  EP  OW  HW  HW  EP  OW  HW  HW  EP  OW  HW  HW  EP  OW  
HW  HW  EP  OW  HW  HW  EP  OW  HW  HW  EP  OW  HW  HW  EP  OW  HW  HW  EP  OW  
HW  HW  EP  OW  HW  HW  EP  OW  HW  HW  EP  OW  HW  HW  EP  OW  HW  HW  EP  OW  
HW  HW  EP  OW  HW  HW  EP  OW  HW  HW  EP  OW  HW  HW  EP  OW  HW  HW  EP  OW  
HW  HW  EP  OW  HW  HW  EP  OW  HW  HW  EP  OW  HW  HW  EP  OW  HW  HW  EP  OW  
HW  HW  EP  OW  HW  HW  EP  OW  HW  HW  EP  OW  HW  HW  EP  OW  HW  HW  EP  OW  
HW  HW  EP  OW  HW  HW  EP  OW  HW  HW  EP  OW  HW  HW  EP  OW  HW  HW  EP  OW  
HW  HW  EP  OW  HW  HW  EP  OW  HW  HW  EP  OW  HW  HW  EP  OW  HW  HW  EP  
%FLAG TREE_CHAIN_CLASSIFICATION                                                 
%FORMAT(20a4)                                                                   
M   M   M   E   E   M   E   S   3   E   B   S   E   E   B   B   E   B   E   S   
B   E   E   E   B   M   E   B   E   S   E   M   M   E   E   M   M   E   E   M   
E   S   3   E   B   S   E   E   B   B   E   B   E   S   B   E   E   E   B   M   
E   B   E   S   E   M   M   E   E   M   M   E   E   M   E   S   3   E   B   S   
E   E   B   B   B   E   E   S   S   E   E   B   M   E   B   E   S   E   M   M   
E   E   M   M   E   E   M   E   S   3   E   B   S   E   S   E   B   E   B   E   
B   E   M   E   B   E   S   E   M   M   E   E   M   M   E   E   M   E   S   3   
E   B   S   E   S   E   B   B   E   E   S   B   E   M   E   B   E   S   E   M   
M   E   E   M   M   E   E   M   E   S   3   E   B   S   E   E   B   B   B   E   
E   S   S   E   E   B   M   E   B   E   S   E   M   M   E   E   M   M   E   E   
M   E   S   3   E   B   S   E   S   E   B   E   B   E   B   E   M   E   B   E   
S   E   M   M   E   E   M   M   E   E   M   E   S   3   E   B   S   E   E   B   
B   B   E   E   S   S   E   E   B   M   E   B   E   S   E   M   M   E   E   M   
M   E   E   M   E   S   3   E   B   S   E   S   E   B   E   B   E   B   E   M   
E   B   E   S   E   M   M   E   E   M   M   E   E   M   E   S   3   E   B   S   
E   E   B   B   B   E   E   S   S   E   E   B   M   E   B   E   S   E   M   M   
E   E   M   M   E   E   M   E   S   3   E   B   S   E   E   B   B   B   E   E   
S   S   E   E   B   M   E   B   E   S   E   M   M   E   E   M   M   E   E   M   
E   S   3   E   B   S   E   S   E   B   E   B   E   B   E   M   E   B   E   S   
E   M   M   E   E   M   M   E   E   M   E   S   3   E   B   S   E   S   E   B   
B   E   E   S   B   E   M   E   B   E   S   E   M   M   E   E   M   M   E   E   
M   E   S   3   E   B   S   E   E   B   B   E   B   E   S   B   E   E   E   B   
M   E   B   E   S   E   M   M   E   E   M   M   E   E   M   E   S   3   E   B   
S   E   S   E   B   B   E   E   S   B   E   M   E   B   E   S   E   M   M   E   
E   M   M   E   E   M   E   S   3   E   B   S   E   E   B   B   E   B   E   S   
B   E   E   E   B   M   E   B   E   S   E   M   M   E   E   M   M   E   E   M   
E   S   3   E   B   S   E   S   E   B   E   B   E   B   E   M   E   B   E   S   
E   M   M   E   E   M   M   E   E   M   E   S   3   E   B   S   E   E   B   B   
E   B   E   S   B   E   E   E   B   M   E   B   E   S   E   M   M   E   E   M   
M   E   E   M   E   S   3   E   B   S   E   E   B   B   E   B   E   S   B   E   
E   E   B   M   E   B   E   S   E   M   M   E   E   M   M   E   E   M   E   S   
3   E   B   S   E   E   B   B   B   E   E   S   S   E   E   B   M   E   B   E   
S   E   M   M   E   E   M   M   E   E   M   E   S   3   E   B   S   E   S   E   
B   E   B   E   B   E   M   E   B   E   S   E   M   M   E   E   M   M   E   E   
M   E   S   3   E   B   S   E   E   B   B   B   E   E   S   S   E   E   B   M   
E   B   E   S   E   M   M   E   E   M   M   E   E   M   E   S   3   E   B   S   
E   S   E   B   E   B   E   B   E   M   E   B   E   S   E   M   M   E   E   M   
M   E   E   M   E   S   3   E   B   S   E   E   B   B   E   B   E   S   B   E   
E   E   B   M   E   B   E   S   E   M   M   E   E   M   M   E   E   M   E   S   
3   E   B   S   E   E   B   B   E   B   E   S   B   E   E   E   B   M   E   B   
E   S   E   M   M   E   E   M   M   E   E   M   E   S   3   E   B   S   E   S   
E   B   B   E   E   S   B   E   M   E   B   E   S   E   M   M   E   E   M   M   
E   E   M   E   S   3   E   B   S   E   E   B   B   B   E   E   S   S   E   E   
B   M   E   B   E   S   E   M   M   E   E   M   M   E   E   M   E   S   3   E   
B   S   E   S   E   B   B   E   E   S   B   E   M   E   B   E   S   E   M   M   
E   E   M   M   E   E   M   E   S   3   E   B   S   E   E   B   B   E   B   E   
S   B   E   E   E   B   M   E   B   E   S   E   M   M   E   E   M   M   E   E   
M   E   S   3   E   B   S   E   S   E   B   B   E   E   S   B   E   M   E   B   
E   S   E   M   M   E   E   M   M   E   E   M   E   S   3   E   B   S   E   E   
B   B   B   E   E   S   S   E   E   B   M   E   B   E   S   E   M   M   E   E   
M   M   E   E   M   E   S   3   E   B   S   E   E   B   B   B   E   E   S   S   
E   E   B   M   E   B   E   S   E   M   M   E   E   M   M   E   E   M   E   S   
3   E   B   S   E   E   B   B   E   B   E   S   B   E   E   E   B   M   E   B   
E   S   E   M   M   E   E   M   M   E   E   M   E   S   3   E   B   S   E   S   
E   B   E   B   E   B   E   M   E   B   E   S   E   M   M   E   E   M   M   E   
E   M   E   S   3   E   B   S   E   S   E   B   E   B   E   B   E   M   E   B   
E   S   E   M   M   E   E   M   M   E   E   M   E   S   3   E   B   S   E   S   
E   B   E   B   E   B   E   M   E   B   E   S   E   M   M   E   E   M   M   E   
E   M   E   S   3   E   B   S   E   S   E   B   B   E   E   S   B   E   M   E   
B   E   S   E   M   M   E   E   M   M   E   E   M   E   S   3   E   B   S   E   
S   E   B   E   B   E   B   E   M   E   B   E   S   E   M   M   E   E   M   M   
E   E   M   E   S   3   E   B   S   E   E   B   B   B   E   E   S   S   E   E   
B   M   E   B   E   S   E   M   M   E   E   M   M   E   E   M   E   S   3   E   
B   S   E   S   E   B   B   E   E   S   B   E   M   E   B   E   S   E   M   M   
E   E   M   M   E   E   M   E   S   3   E   B   S   E   S   E   B   B   E   E   
S   B   E   M   E   B   E   S   E   M   M   E   E   M   M   E   E   M   E   S   
3   E   B   S   E   E   B   B   E   B   E   S   B   E   E   E   B   M   E   B   
E   S   E   M   M   E   E   M   M   E   E   M   E   S   3   E   B   S   E   E   
B   B   E   B   E   S   B   E   E   E   B   M   E   B   E   S   E   M   M   E   
E   M   M   E   E   M   E   S   3   E   B   S   E   E   B   B   E   B   E   S   
B   E   E   E   B   M   E   B   E   S   E   M   M   E   E   M   M   E   E   M   
E   S   3   E   B   S   E   S   E   B   B   E   E   S   B   E   M   E   B   E   
S   E   M   M   E   E   M   M   E   E   M   E   S   3   E   B   S   E   E   B   
B   B   E   E   S   S   E   E   B   M   E   B   E   S   E   M   M   E   E   M   
M   E   E   M   E   S   3   E   B   S   E   S   E   B   B   E   E   S   B   E   
M   E   B   E   S   E   M   M   E   E   M   M   E   E   M   E   S   3   E   B   
S   E   S   E   B   B   E   E   S   B   E   M   E   B   E   S   E   M   M   E   
E   M   M   E   E   M   E   S   3   E   B   S   E   E   B   B   E   B   E   S   
B   E   E   E   B   M   E   B   E   S   E   M   M   E   E   M   M   E   E   M   
E   S   3   E   B   S   E   S   E   B   E   B   E   B   E   M   E   B   E   S   
E   M   M   E   E   M   M   E   E   M   E   S   3   E   B   S   E   E   B   B   
B   E   E   S   S   E   E   B   M   E   B   E   S   E   M   M   E   E   M   M   
E   E   M   E   S   3   E   B   S   E   E   B   B   B   E   E   S   S   E   E   
B   M   E   B   E   S   E   M   M   E   E   M   M   E   E   M   E   S   3   E   
B   S   E   E   B   B   B   E   E   S   S   E   E   B   M   E   B   E   S   E   
M   M   E   E   M   M   E   E   M   E   S   3   E   B   S   E   S   E   B   E   
B   E   B   E   M   E   B   E   S   E   M   M   E   E   M   M   E   E   M   E   
S   3   E   B   S   E   E   B   B   E   B   E   S   B   E   E   E   B   M   E   
B   E   S   E   M   M   E   E   M   M   E   E   M   E   S   3   E   B   S   E   
S   E   B   E   B   E   B   E   M   E   B   E   S   E   M   M   E   E   M   M   
E   E   M   E   S   3   E   B   S   E   S   E   B   B   E   E   S   B   E   M   
E   B   E   S   E   M   M   E   E   M   M   E   E   M   E   S   3   E   B   S   
E   S   E   B   B   E   E   S   B   E   M   E   B   E   S   E   M   M   E   E   
M   M   E   E   M   E   S   3   E   B   S   E   E   B   B   E   B   E   S   B   
E   E   E   B   M   E   B   E   S   E   M   M   E   E   M   M   E   E   M   E   
S   3   E   B   S   E   E   B   B   B   E   E   S   S   E   E   B   M   E   B   
E   S   E   M   M   E   E   M   M   E   E   M   E   S   3   E   B   S   E   S   
E   B   B   E   E   S   B   E   M   E   B   E   S   E   M   M   E   E   M   M   
E   E   M   E   S   3   E   B   S   E   S   E   B   E   B   E   B   E   M   E   
B   E   S   E   M   M   E   E   M   M   E   E   M   E   S   3   E   B   S   E   
E   B   B   B   E   E   S   S   E   E   B   M   E   B   E   S   E   M   M   E   
E   M   M   E   E   M   E   S   3   E   B   S   E   S   E   B   E   B   E   B   
E   M   E   B   E   S   E   M   M   E   E   M   M   E   E   M   E   S   3   E   
B   S   E   E   B   B   E   B   E   S   B   E   E   E   B   M   E   B   E   S   
E   M   M   E   E   M   M   E   E   M   E   S   3   E   B   S   E   E   B   B   
E   B   E   S   B   E   E   E   B   M   E   B   E   S   E   M   M   E   E   M   
M   E   E   M   E   S   3   E   B   S   E   S   E   B   E   B   E   B   E   M   
E   B   E   S   E   M   M   E   E   M   M   E   E   M   E   S   3   E   B   S   
E   S   E   B   B   E   E   S   B   E   M   E   B   E   S   E   M   M   M   M   
M   M   M   M   M   M   M   M   M   M   M   M   M   M   M   M   M   M   M   M   
M   M   M   M   M   M   M   M   M   M   M   M   M   M   M   M   M   M   M   M   
M   M   M   M   M   M   M   M   M   M   M   M   M   M   M   M   M   M   M   M   
M   M   M   M   M   M   M   M   M   M   M   M   M   M   M   M   M   M   M   M   
M   M   M   M   M   M   M   M   M   M   M   M   M   M   M   M   M   M   M   M   
M   M   M   M   M   M   M   M   M   M   M   M   M   M   M   M   M   M   M   M   
M   M   M   M   M   M   M   M   M   BLA BLA BLA BLA BLA BLA BLA BLA BLA BLA BLA 
BLA BLA BLA BLA BLA BLA BLA BLA BLA BLA BLA BLA BLA BLA BLA BLA BLA BLA BLA BLA 
BLA BLA BLA BLA BLA BLA BLA BLA BLA BLA BLA BLA BLA BLA BLA BLA BLA BLA BLA BLA 
BLA BLA BLA BLA BLA BLA BLA BLA BLA BLA BLA BLA BLA BLA BLA BLA BLA BLA BLA BLA 
BLA BLA BLA BLA BLA BLA BLA BLA BLA BLA BLA BLA BLA BLA BLA BLA BLA BLA BLA BLA 
BLA BLA BLA BLA BLA BLA BLA BLA BLA BLA BLA BLA BLA BLA BLA BLA BLA BLA BLA BLA 
BLA BLA BLA BLA BLA BLA BLA BLA BLA BLA BLA BLA BLA BLA BLA BLA BLA BLA BLA BLA 
BLA BLA BLA BLA BLA BLA BLA BLA BLA BLA BLA BLA BLA BLA BLA BLA BLA BLA BLA BLA 
BLA BLA BLA BLA BLA BLA BLA BLA BLA BLA BLA BLA BLA BLA BLA BLA BLA BLA BLA BLA 
BLA BLA BLA BLA BLA BLA BLA BLA BLA BLA BLA BLA BLA BLA BLA BLA BLA BLA BLA BLA 
BLA BLA BLA BLA BLA BLA BLA BLA BLA BLA BLA BLA BLA BLA BLA BLA BLA BLA BLA BLA 
BLA BLA BLA BLA BLA BLA BLA BLA BLA BLA BLA BLA BLA BLA BLA BLA BLA BLA BLA BLA 
BLA BLA BLA BLA BLA BLA BLA BLA BLA BLA BLA BLA BLA BLA BLA BLA BLA BLA BLA BLA 
BLA BLA BLA BLA BLA BLA BLA BLA BLA BLA BLA BLA BLA BLA BLA BLA BLA BLA BLA BLA 
BLA BLA BLA BLA BLA BLA BLA BLA BLA BLA BLA BLA BLA BLA BLA BLA BLA BLA BLA BLA 
BLA BLA BLA BLA BLA BLA BLA BLA BLA BLA BLA BLA BLA BLA BLA BLA BLA BLA BLA BLA 
BLA BLA BLA BLA BLA BLA BLA BLA BLA BLA BLA BLA BLA BLA BLA BLA BLA BLA BLA BLA 
BLA BLA BLA BLA BLA BLA BLA BLA BLA BLA BLA BLA BLA BLA BLA BLA BLA BLA BLA BLA 
BLA BLA BLA BLA BLA BLA BLA BLA BLA BLA BLA BLA BLA BLA BLA BLA BLA BLA BLA BLA 
BLA BLA BLA BLA BLA BLA BLA BLA BLA BLA BLA BLA BLA BLA BLA BLA BLA BLA BLA BLA 
BLA BLA BLA BLA BLA BLA BLA BLA BLA BLA BLA BLA BLA BLA BLA BLA BLA BLA BLA BLA 
BLA BLA BLA BLA BLA BLA BLA BLA BLA BLA BLA BLA BLA BLA BLA BLA BLA BLA BLA BLA 
BLA BLA BLA BLA BLA BLA BLA BLA BLA BLA BLA BLA BLA BLA BLA BLA BLA BLA BLA BLA 
BLA BLA BLA BLA BLA BLA BLA BLA BLA BLA BLA BLA BLA BLA BLA BLA BLA BLA BLA BLA 
BLA BLA BLA BLA BLA BLA BLA BLA BLA BLA BLA BLA BLA BLA BLA BLA BLA BLA BLA BLA 
BLA BLA BLA BLA BLA BLA BLA BLA BLA BLA BLA BLA BLA BLA BLA BLA BLA BLA BLA BLA 
BLA BLA BLA BLA BLA BLA BLA BLA BLA BLA BLA BLA BLA BLA BLA BLA BLA BLA BLA BLA 
BLA BLA BLA BLA BLA BLA BLA BLA BLA BLA BLA BLA BLA BLA BLA BLA BLA BLA BLA BLA 
BLA BLA BLA BLA BLA BLA BLA BLA BLA BLA BLA BLA BLA BLA BLA BLA BLA BLA BLA BLA 
BLA BLA BLA BLA BLA BLA BLA BLA BLA BLA BLA BLA BLA BLA BLA BLA BLA BLA BLA BLA 
BLA BLA BLA BLA BLA BLA BLA BLA BLA BLA BLA BLA BLA BLA BLA BLA BLA BLA BLA BLA 
BLA BLA BLA BLA BLA BLA BLA BLA BLA BLA BLA BLA BLA BLA BLA BLA BLA BLA BLA BLA 
BLA BLA BLA BLA BLA BLA BLA BLA BLA BLA BLA BLA BLA BLA BLA BLA BLA BLA BLA BLA 
BLA BLA BLA BLA BLA BLA BLA BLA BLA BLA BLA BLA BLA BLA BLA BLA BLA BLA BLA BLA 
BLA BLA BLA BLA BLA BLA BLA BLA BLA BLA BLA BLA BLA BLA BLA BLA BLA BLA BLA BLA 
BLA BLA BLA BLA BLA BLA BLA BLA BLA BLA BLA BLA BLA BLA BLA BLA BLA BLA BLA BLA 
BLA BLA BLA BLA BLA BLA BLA BLA BLA BLA BLA BLA BLA BLA BLA BLA BLA BLA BLA BLA 
BLA BLA BLA BLA BLA BLA BLA BLA BLA BLA BLA BLA BLA BLA BLA BLA BLA BLA BLA BLA 
BLA BLA BLA BLA BLA BLA BLA BLA BLA BLA BLA BLA BLA BLA BLA BLA BLA BLA BLA BLA 
BLA BLA BLA BLA BLA BLA BLA BLA BLA BLA BLA BLA BLA BLA BLA BLA BLA BLA BLA BLA 
BLA BLA BLA BLA BLA BLA BLA BLA BLA BLA BLA BLA BLA BLA BLA BLA BLA BLA BLA BLA 
BLA BLA BLA BLA BLA BLA BLA BLA BLA BLA BLA BLA BLA BLA BLA BLA BLA BLA BLA BLA 
BLA BLA BLA BLA BLA BLA BLA BLA BLA BLA BLA BLA BLA BLA BLA BLA BLA BLA BLA BLA 
BLA BLA BLA BLA BLA BLA BLA BLA BLA BLA BLA BLA BLA BLA BLA BLA BLA BLA BLA BLA 
BLA BLA BLA BLA BLA BLA BLA BLA BLA BLA BLA BLA BLA BLA BLA BLA BLA BLA BLA BLA 
BLA BLA BLA BLA BLA BLA BLA BLA BLA BLA BLA BLA BLA BLA BLA BLA BLA BLA BLA BLA 
BLA BLA BLA BLA BLA BLA BLA BLA BLA BLA BLA BLA BLA BLA BLA BLA BLA BLA BLA BLA 
BLA BLA BLA BLA BLA BLA BLA BLA BLA BLA BLA BLA BLA BLA BLA BLA BLA BLA BLA BLA 
BLA BLA BLA BLA BLA BLA BLA BLA BLA BLA BLA BLA BLA BLA BLA BLA BLA BLA BLA BLA 
BLA BLA BLA BLA BLA BLA BLA BLA BLA BLA BLA BLA BLA BLA BLA BLA BLA BLA BLA BLA 
BLA BLA BLA BLA BLA BLA BLA BLA BLA BLA BLA BLA BLA BLA BLA BLA BLA BLA BLA BLA 
BLA BLA BLA BLA BLA BLA BLA BLA BLA BLA BLA BLA BLA BLA BLA BLA BLA BLA BLA BLA 
BLA BLA BLA BLA BLA BLA BLA BLA BLA BLA BLA BLA BLA BLA BLA BLA BLA BLA BLA BLA 
BLA BLA BLA BLA BLA BLA BLA BLA BLA BLA BLA BLA BLA BLA BLA BLA BLA BLA BLA BLA 
BLA BLA BLA BLA BLA BLA BLA BLA BLA BLA BLA BLA BLA BLA BLA BLA BLA BLA BLA BLA 
BLA BLA BLA BLA BLA BLA BLA BLA BLA BLA BLA BLA BLA BLA BLA BLA BLA BLA BLA BLA 
BLA BLA BLA BLA BLA BLA BLA BLA BLA BLA BLA BLA BLA BLA BLA BLA BLA BLA BLA BLA 
BLA BLA BLA BLA BLA BLA BLA BLA BLA BLA BLA BLA BLA BLA BLA BLA BLA BLA BLA BLA 
BLA BLA BLA BLA BLA BLA BLA BLA BLA BLA BLA BLA BLA BLA BLA BLA BLA BLA BLA BLA 
BLA BLA BLA BLA BLA BLA BLA BLA BLA BLA BLA BLA BLA BLA BLA BLA BLA BLA BLA BLA 
BLA BLA BLA BLA BLA BLA BLA BLA BLA BLA BLA BLA BLA BLA BLA BLA BLA BLA BLA BLA 
BLA BLA BLA BLA BLA BLA BLA BLA BLA BLA BLA BLA BLA BLA BLA BLA BLA BLA BLA BLA 
BLA BLA BLA BLA BLA BLA BLA BLA BLA BLA BLA BLA BLA BLA BLA BLA BLA BLA BLA BLA 
BLA BLA BLA BLA BLA BLA BLA BLA BLA BLA BLA BLA BLA BLA BLA BLA BLA BLA BLA BLA 
BLA BLA BLA BLA BLA BLA BLA BLA BLA BLA BLA BLA BLA BLA BLA BLA BLA BLA BLA BLA 
BLA BLA BLA BLA BLA BLA BLA BLA BLA BLA BLA BLA BLA BLA BLA BLA BLA BLA BLA BLA 
BLA BLA BLA BLA BLA BLA BLA BLA BLA BLA BLA BLA BLA BLA BLA BLA BLA BLA BLA BLA 
BLA BLA BLA BLA BLA BLA BLA BLA BLA BLA BLA BLA BLA BLA BLA BLA BLA BLA BLA BLA 
BLA BLA BLA BLA BLA BLA BLA BLA BLA BLA BLA BLA BLA BLA BLA BLA BLA BLA BLA BLA 
BLA BLA BLA BLA BLA BLA BLA BLA BLA BLA BLA BLA BLA BLA BLA BLA BLA BLA BLA BLA 
BLA BLA BLA BLA BLA BLA BLA BLA BLA BLA BLA BLA BLA BLA BLA BLA BLA BLA BLA BLA 
BLA BLA BLA BLA BLA BLA BLA BLA BLA BLA BLA BLA BLA BLA BLA BLA BLA BLA BLA BLA 
BLA BLA BLA BLA BLA BLA BLA BLA BLA BLA BLA BLA BLA BLA BLA BLA BLA BLA BLA BLA 
BLA BLA BLA BLA BLA BLA BLA BLA BLA BLA BLA BLA BLA BLA BLA BLA BLA BLA BLA BLA 
BLA BLA BLA BLA BLA BLA BLA BLA BLA BLA BLA BLA BLA BLA BLA BLA BLA BLA BLA BLA 
BLA BLA BLA BLA BLA BLA BLA BLA BLA BLA BLA BLA BLA BLA BLA BLA BLA BLA BLA BLA 
BLA BLA BLA BLA BLA BLA BLA BLA BLA BLA BLA BLA BLA BLA BLA BLA BLA BLA BLA BLA 
BLA BLA BLA BLA BLA BLA BLA BLA BLA BLA BLA BLA BLA BLA BLA BLA BLA BLA BLA BLA 
BLA BLA BLA BLA BLA BLA BLA BLA BLA BLA BLA BLA BLA BLA BLA BLA BLA BLA BLA BLA 
BLA BLA BLA BLA BLA BLA BLA BLA BLA BLA BLA BLA BLA BLA BLA BLA BLA BLA BLA BLA 
BLA BLA BLA BLA BLA BLA BLA BLA BLA BLA BLA BLA BLA BLA BLA BLA BLA BLA BLA BLA 
BLA BLA BLA BLA BLA BLA BLA BLA BLA BLA BLA BLA BLA BLA BLA BLA BLA BLA BLA BLA 
BLA BLA BLA BLA BLA BLA BLA BLA BLA BLA BLA BLA BLA BLA BLA BLA BLA BLA BLA BLA 
BLA BLA BLA BLA BLA BLA BLA BLA BLA BLA BLA BLA BLA BLA BLA BLA BLA BLA BLA BLA 
BLA BLA BLA BLA BLA BLA BLA BLA BLA BLA BLA BLA BLA BLA BLA BLA BLA BLA BLA BLA 
BLA BLA BLA BLA BLA BLA BLA BLA BLA BLA BLA BLA BLA BLA BLA BLA BLA BLA BLA BLA 
BLA BLA BLA BLA BLA BLA BLA BLA BLA BLA BLA BLA BLA BLA BLA BLA BLA BLA BLA BLA 
BLA BLA BLA BLA BLA BLA BLA BLA BLA BLA BLA BLA BLA BLA BLA BLA BLA BLA BLA BLA 
BLA BLA BLA BLA BLA BLA BLA BLA BLA BLA BLA BLA BLA BLA BLA BLA BLA BLA BLA BLA 
BLA BLA BLA BLA BLA BLA BLA BLA BLA BLA BLA BLA BLA BLA BLA BLA BLA BLA BLA BLA 
BLA BLA BLA BLA BLA BLA BLA BLA BLA BLA BLA BLA BLA BLA BLA BLA BLA BLA BLA BLA 
BLA BLA BLA BLA BLA BLA BLA BLA BLA BLA BLA BLA BLA BLA BLA BLA BLA BLA BLA BLA 
BLA BLA BLA BLA BLA BLA BLA BLA BLA BLA BLA BLA BLA BLA BLA BLA BLA BLA BLA BLA 
BLA BLA BLA BLA BLA BLA BLA BLA BLA BLA BLA BLA BLA BLA BLA BLA BLA BLA BLA BLA 
BLA BLA BLA BLA BLA BLA BLA BLA BLA BLA BLA BLA BLA BLA BLA BLA BLA BLA BLA BLA 
BLA BLA BLA BLA BLA BLA BLA BLA BLA BLA BLA BLA BLA BLA BLA BLA BLA BLA BLA BLA 
BLA BLA BLA BLA BLA BLA BLA BLA BLA BLA BLA BLA BLA BLA BLA BLA BLA BLA BLA BLA 
BLA BLA BLA BLA BLA BLA BLA BLA BLA BLA BLA BLA BLA BLA BLA BLA BLA BLA BLA BLA 
BLA BLA BLA BLA BLA BLA BLA BLA BLA BLA BLA BLA BLA BLA BLA BLA BLA BLA BLA BLA 
BLA BLA BLA BLA BLA BLA BLA BLA BLA BLA BLA BLA BLA BLA BLA BLA BLA BLA BLA BLA 
BLA BLA BLA BLA BLA BLA BLA BLA BLA BLA BLA BLA BLA BLA BLA BLA BLA BLA BLA BLA 
BLA BLA BLA BLA BLA BLA BLA BLA BLA BLA BLA BLA BLA BLA BLA BLA BLA BLA BLA BLA 
BLA BLA BLA BLA BLA BLA BLA BLA BLA BLA BLA BLA BLA BLA BLA BLA BLA BLA BLA BLA 
BLA BLA BLA BLA BLA BLA BLA BLA BLA BLA BLA BLA BLA BLA BLA BLA BLA BLA BLA BLA 
BLA BLA BLA BLA BLA BLA BLA BLA BLA BLA BLA BLA BLA BLA BLA BLA BLA BLA BLA BLA 
BLA BLA BLA BLA BLA BLA BLA BLA BLA BLA BLA BLA BLA BLA BLA BLA BLA BLA BLA BLA 
BLA BLA BLA BLA BLA BLA BLA BLA BLA BLA BLA BLA BLA BLA BLA BLA BLA BLA BLA BLA 
BLA BLA BLA BLA BLA BLA BLA BLA BLA BLA BLA BLA BLA BLA BLA BLA BLA BLA BLA BLA 
BLA BLA BLA BLA BLA BLA BLA BLA BLA BLA BLA BLA BLA BLA BLA BLA BLA BLA BLA BLA 
BLA BLA BLA BLA BLA BLA BLA BLA BLA BLA BLA BLA BLA BLA BLA BLA BLA BLA BLA BLA 
BLA BLA BLA BLA BLA BLA BLA BLA BLA BLA BLA BLA BLA BLA BLA BLA BLA BLA BLA BLA 
BLA BLA BLA BLA BLA BLA BLA BLA BLA BLA BLA BLA BLA BLA BLA BLA BLA BLA BLA BLA 
BLA BLA BLA BLA BLA BLA BLA BLA BLA BLA BLA BLA BLA BLA BLA BLA BLA BLA BLA BLA 
BLA BLA BLA BLA BLA BLA BLA BLA BLA BLA BLA BLA BLA BLA BLA BLA BLA BLA BLA BLA 
BLA BLA BLA BLA BLA BLA BLA BLA BLA BLA BLA BLA BLA BLA BLA BLA BLA BLA BLA BLA 
BLA BLA BLA BLA BLA BLA BLA BLA BLA BLA BLA BLA BLA BLA BLA BLA BLA BLA BLA BLA 
BLA BLA BLA BLA BLA BLA BLA BLA BLA BLA BLA BLA BLA BLA BLA BLA BLA BLA BLA BLA 
BLA BLA BLA BLA BLA BLA BLA BLA BLA BLA BLA BLA BLA BLA BLA BLA BLA BLA BLA BLA 
BLA BLA BLA BLA BLA BLA BLA BLA BLA BLA BLA BLA BLA BLA BLA BLA BLA BLA BLA BLA 
BLA BLA BLA BLA BLA BLA BLA BLA BLA BLA BLA BLA BLA BLA BLA BLA BLA BLA BLA BLA 
BLA BLA BLA BLA BLA BLA BLA BLA BLA BLA BLA BLA BLA BLA BLA BLA BLA BLA BLA BLA 
BLA BLA BLA BLA BLA BLA BLA BLA BLA BLA BLA BLA BLA BLA BLA BLA BLA BLA BLA BLA 
BLA BLA BLA BLA BLA BLA BLA BLA BLA BLA BLA BLA BLA BLA BLA BLA BLA BLA BLA BLA 
BLA BLA BLA BLA BLA BLA BLA BLA BLA BLA BLA BLA BLA BLA BLA BLA BLA BLA BLA BLA 
BLA BLA BLA BLA BLA BLA BLA BLA BLA BLA BLA BLA BLA BLA BLA BLA BLA BLA BLA BLA 
BLA BLA BLA BLA BLA BLA BLA BLA BLA BLA BLA BLA BLA BLA BLA BLA BLA BLA BLA BLA 
BLA BLA BLA BLA BLA BLA BLA BLA BLA BLA BLA BLA BLA BLA BLA BLA BLA BLA BLA BLA 
BLA BLA BLA BLA BLA BLA BLA BLA BLA BLA BLA BLA BLA BLA BLA BLA BLA BLA BLA BLA 
BLA BLA BLA BLA BLA BLA BLA BLA BLA BLA BLA BLA BLA BLA BLA BLA BLA BLA BLA BLA 
BLA BLA BLA BLA BLA BLA BLA BLA BLA BLA BLA BLA BLA BLA BLA BLA BLA BLA BLA BLA 
BLA BLA BLA BLA BLA BLA BLA BLA BLA BLA BLA BLA BLA BLA BLA BLA BLA BLA BLA BLA 
BLA BLA BLA BLA BLA BLA BLA BLA BLA BLA BLA BLA BLA BLA BLA BLA BLA BLA BLA BLA 
BLA BLA BLA BLA BLA BLA BLA BLA BLA BLA BLA BLA BLA BLA BLA BLA BLA BLA BLA BLA 
BLA BLA BLA BLA BLA BLA BLA BLA BLA BLA BLA BLA BLA BLA BLA BLA BLA BLA BLA BLA 
BLA BLA BLA BLA BLA BLA BLA BLA BLA BLA BLA BLA BLA BLA BLA BLA BLA BLA BLA BLA 
BLA BLA BLA BLA BLA BLA BLA BLA BLA BLA BLA BLA BLA BLA BLA BLA BLA BLA BLA BLA 
BLA BLA BLA BLA BLA BLA BLA BLA BLA BLA BLA BLA BLA BLA BLA BLA BLA BLA BLA BLA 
BLA BLA BLA BLA BLA BLA BLA BLA BLA BLA BLA BLA BLA BLA BLA BLA BLA BLA BLA BLA 
BLA BLA BLA BLA BLA BLA BLA BLA BLA BLA BLA BLA BLA BLA BLA BLA BLA BLA BLA BLA 
BLA BLA BLA BLA BLA BLA BLA BLA BLA BLA BLA BLA BLA BLA BLA BLA BLA BLA BLA BLA 
BLA BLA BLA BLA BLA BLA BLA BLA BLA BLA BLA BLA BLA BLA BLA BLA BLA BLA BLA BLA 
BLA BLA BLA BLA BLA BLA BLA BLA BLA BLA BLA BLA BLA BLA BLA BLA BLA BLA BLA BLA 
BLA BLA BLA BLA BLA BLA BLA BLA BLA BLA BLA BLA BLA BLA BLA BLA BLA BLA BLA BLA 
BLA BLA BLA BLA BLA BLA BLA BLA BLA BLA BLA BLA BLA BLA BLA BLA BLA BLA BLA BLA 
BLA BLA BLA BLA BLA BLA BLA BLA BLA BLA BLA BLA BLA BLA BLA BLA BLA BLA BLA BLA 
BLA BLA BLA BLA BLA BLA BLA BLA BLA BLA BLA BLA BLA BLA BLA BLA BLA BLA BLA BLA 
BLA BLA BLA BLA BLA BLA BLA BLA BLA BLA BLA BLA BLA BLA BLA BLA BLA BLA BLA BLA 
BLA BLA BLA BLA BLA BLA BLA BLA BLA BLA BLA BLA BLA BLA BLA BLA BLA BLA BLA BLA 
BLA BLA BLA BLA BLA BLA BLA BLA BLA BLA BLA BLA BLA BLA BLA BLA BLA BLA BLA BLA 
BLA BLA BLA BLA BLA BLA BLA BLA BLA BLA BLA BLA BLA BLA BLA BLA BLA BLA BLA BLA 
BLA BLA BLA BLA BLA BLA BLA BLA BLA BLA BLA BLA BLA BLA BLA BLA BLA BLA BLA BLA 
BLA BLA BLA BLA BLA BLA BLA BLA BLA BLA BLA BLA BLA BLA BLA BLA BLA BLA BLA BLA 
BLA BLA BLA BLA BLA BLA BLA BLA BLA BLA BLA BLA BLA BLA BLA BLA BLA BLA BLA BLA 
BLA BLA BLA BLA BLA BLA BLA BLA BLA BLA BLA BLA BLA BLA BLA BLA BLA BLA BLA BLA 
BLA BLA BLA BLA BLA BLA BLA BLA BLA BLA BLA BLA BLA BLA BLA BLA BLA BLA BLA BLA 
BLA BLA BLA BLA BLA BLA BLA BLA BLA BLA BLA BLA BLA BLA BLA BLA BLA BLA BLA BLA 
BLA BLA BLA BLA BLA BLA BLA BLA BLA BLA BLA BLA BLA BLA BLA BLA BLA BLA BLA BLA 
BLA BLA BLA BLA BLA BLA BLA BLA BLA BLA BLA BLA BLA BLA BLA BLA BLA BLA BLA BLA 
BLA BLA BLA BLA BLA BLA BLA BLA BLA BLA BLA BLA BLA BLA BLA BLA BLA BLA BLA BLA 
BLA BLA BLA BLA BLA BLA BLA BLA BLA BLA BLA BLA BLA BLA BLA BLA BLA BLA BLA BLA 
BLA BLA BLA BLA BLA BLA BLA BLA BLA BLA BLA BLA BLA BLA BLA BLA BLA BLA BLA BLA 
BLA BLA BLA BLA BLA BLA BLA BLA BLA BLA BLA BLA BLA BLA BLA BLA BLA BLA BLA BLA 
BLA BLA BLA BLA BLA BLA BLA BLA BLA BLA BLA BLA BLA BLA BLA BLA BLA BLA BLA BLA 
BLA BLA BLA BLA BLA BLA BLA BLA BLA BLA BLA BLA BLA BLA BLA BLA BLA BLA BLA BLA 
BLA BLA BLA BLA BLA BLA BLA BLA BLA BLA BLA BLA BLA BLA BLA BLA BLA BLA BLA BLA 
BLA BLA BLA BLA BLA BLA BLA BLA BLA BLA BLA BLA BLA BLA BLA BLA BLA BLA BLA BLA 
BLA BLA BLA BLA BLA BLA BLA BLA BLA BLA BLA BLA BLA BLA BLA BLA BLA BLA BLA BLA 
BLA BLA BLA BLA BLA BLA BLA BLA BLA BLA BLA BLA BLA BLA BLA BLA BLA BLA BLA BLA 
BLA BLA BLA BLA BLA BLA BLA BLA BLA BLA BLA BLA BLA BLA BLA BLA BLA BLA BLA BLA 
BLA BLA BLA BLA BLA BLA BLA BLA BLA BLA BLA BLA BLA BLA BLA BLA BLA BLA BLA BLA 
BLA BLA BLA BLA BLA BLA BLA BLA BLA BLA BLA BLA BLA BLA BLA BLA BLA BLA BLA BLA 
BLA BLA BLA BLA BLA BLA BLA BLA BLA BLA BLA BLA BLA BLA BLA BLA BLA BLA BLA BLA 
BLA BLA BLA BLA BLA BLA BLA BLA BLA BLA BLA BLA BLA BLA BLA BLA BLA BLA BLA BLA 
BLA BLA BLA BLA BLA BLA BLA BLA BLA BLA BLA BLA BLA BLA BLA BLA BLA BLA BLA BLA 
BLA BLA BLA BLA BLA BLA BLA BLA BLA BLA BLA BLA BLA BLA BLA BLA BLA BLA BLA BLA 
BLA BLA BLA BLA BLA BLA BLA BLA BLA BLA BLA BLA BLA BLA BLA BLA BLA BLA BLA BLA 
BLA BLA BLA BLA BLA BLA BLA BLA BLA BLA BLA BLA BLA BLA BLA BLA BLA BLA BLA BLA 
BLA BLA BLA BLA BLA BLA BLA BLA BLA BLA BLA BLA BLA BLA BLA BLA BLA BLA BLA BLA 
BLA BLA BLA BLA BLA BLA BLA BLA BLA BLA BLA BLA BLA BLA BLA BLA BLA BLA BLA BLA 
BLA BLA BLA BLA BLA BLA BLA BLA BLA BLA BLA BLA BLA BLA BLA BLA BLA BLA BLA BLA 
BLA BLA BLA BLA BLA BLA BLA BLA BLA BLA BLA BLA BLA BLA BLA BLA BLA BLA BLA BLA 
BLA BLA BLA BLA BLA BLA BLA BLA BLA BLA BLA BLA BLA BLA BLA BLA BLA BLA BLA BLA 
BLA BLA BLA BLA BLA BLA BLA BLA BLA BLA BLA BLA BLA BLA BLA BLA BLA BLA BLA BLA 
BLA BLA BLA BLA BLA BLA BLA BLA BLA BLA BLA BLA BLA BLA BLA BLA BLA BLA BLA BLA 
BLA BLA BLA BLA BLA BLA BLA BLA BLA BLA BLA BLA BLA BLA BLA BLA BLA BLA BLA BLA 
BLA BLA BLA BLA BLA BLA BLA BLA BLA BLA BLA BLA BLA BLA BLA BLA BLA BLA BLA BLA 
BLA BLA BLA BLA BLA BLA BLA BLA BLA BLA BLA BLA BLA BLA BLA BLA BLA BLA BLA BLA 
BLA BLA BLA BLA BLA BLA BLA BLA BLA BLA BLA BLA BLA BLA BLA BLA BLA BLA BLA BLA 
BLA BLA BLA BLA BLA BLA BLA BLA BLA BLA BLA BLA BLA BLA BLA BLA BLA BLA BLA BLA 
BLA BLA BLA BLA BLA BLA BLA BLA BLA BLA BLA BLA BLA BLA BLA BLA BLA BLA BLA BLA 
BLA BLA BLA BLA BLA BLA BLA BLA BLA BLA BLA BLA BLA BLA BLA BLA BLA BLA BLA BLA 
BLA BLA BLA BLA BLA BLA BLA BLA BLA BLA BLA BLA BLA BLA BLA BLA BLA BLA BLA BLA 
BLA BLA BLA BLA BLA BLA BLA BLA BLA BLA BLA BLA BLA BLA BLA BLA BLA BLA BLA BLA 
BLA BLA BLA BLA BLA BLA BLA BLA BLA BLA BLA BLA BLA BLA BLA BLA BLA BLA BLA BLA 
BLA BLA BLA BLA BLA BLA BLA BLA BLA BLA BLA BLA BLA BLA BLA BLA BLA BLA BLA BLA 
BLA BLA BLA BLA BLA BLA BLA BLA BLA BLA BLA BLA BLA BLA BLA BLA BLA BLA BLA BLA 
BLA BLA BLA BLA BLA BLA BLA BLA BLA BLA BLA BLA BLA BLA BLA BLA BLA BLA BLA BLA 
BLA BLA BLA BLA BLA BLA BLA BLA BLA BLA BLA BLA BLA BLA BLA BLA BLA BLA BLA BLA 
BLA BLA BLA BLA BLA BLA BLA BLA BLA BLA BLA BLA BLA BLA BLA BLA BLA BLA BLA BLA 
BLA BLA BLA BLA BLA BLA BLA BLA BLA BLA BLA BLA BLA BLA BLA BLA BLA BLA BLA BLA 
BLA BLA BLA BLA BLA BLA BLA BLA BLA BLA BLA BLA BLA BLA BLA BLA BLA BLA BLA BLA 
BLA BLA BLA BLA BLA BLA BLA BLA BLA BLA BLA BLA BLA BLA BLA BLA BLA BLA BLA BLA 
BLA BLA BLA BLA BLA BLA BLA BLA BLA BLA BLA BLA BLA BLA BLA BLA BLA BLA BLA BLA 
BLA BLA BLA BLA BLA BLA BLA BLA BLA BLA BLA BLA BLA BLA BLA BLA BLA BLA BLA BLA 
BLA BLA BLA BLA BLA BLA BLA BLA BLA BLA BLA BLA BLA BLA BLA BLA BLA BLA BLA BLA 
BLA BLA BLA BLA BLA BLA BLA BLA BLA BLA BLA BLA BLA BLA BLA BLA BLA BLA BLA BLA 
BLA BLA BLA BLA BLA BLA BLA BLA BLA BLA BLA BLA BLA BLA BLA BLA BLA BLA BLA BLA 
BLA BLA BLA BLA BLA BLA BLA BLA BLA BLA BLA BLA BLA BLA BLA BLA BLA BLA BLA BLA 
BLA BLA BLA BLA BLA BLA BLA BLA BLA BLA BLA BLA BLA BLA BLA BLA BLA BLA BLA BLA 
BLA BLA BLA BLA BLA BLA BLA BLA BLA BLA BLA BLA BLA BLA BLA BLA BLA BLA BLA BLA 
BLA BLA BLA BLA BLA BLA BLA BLA BLA BLA BLA BLA BLA BLA BLA BLA BLA BLA BLA BLA 
BLA BLA BLA BLA BLA BLA BLA BLA BLA BLA BLA BLA BLA BLA BLA BLA BLA BLA BLA BLA 
BLA BLA BLA BLA BLA BLA BLA BLA BLA BLA BLA BLA BLA BLA BLA BLA BLA BLA BLA BLA 
BLA BLA BLA BLA BLA BLA BLA BLA BLA BLA BLA BLA BLA BLA BLA BLA BLA BLA BLA BLA 
BLA BLA BLA BLA BLA BLA BLA BLA BLA BLA BLA BLA BLA BLA BLA BLA BLA BLA BLA BLA 
BLA BLA BLA BLA BLA BLA BLA BLA BLA BLA BLA BLA BLA BLA BLA BLA BLA BLA BLA BLA 
BLA BLA BLA BLA BLA BLA BLA BLA BLA BLA BLA BLA BLA BLA BLA BLA BLA BLA BLA BLA 
BLA BLA BLA BLA BLA BLA BLA BLA BLA BLA BLA BLA BLA BLA BLA BLA BLA BLA BLA BLA 
BLA BLA BLA BLA BLA BLA BLA BLA BLA BLA BLA BLA BLA BLA BLA BLA BLA BLA BLA BLA 
BLA BLA BLA BLA BLA BLA BLA BLA BLA BLA BLA BLA BLA BLA BLA BLA BLA BLA BLA BLA 
BLA BLA BLA BLA BLA BLA BLA BLA BLA BLA BLA BLA BLA BLA BLA BLA BLA BLA BLA BLA 
BLA BLA BLA BLA BLA BLA BLA BLA BLA BLA BLA BLA BLA BLA BLA BLA BLA BLA BLA BLA 
BLA BLA BLA BLA BLA BLA BLA BLA BLA BLA BLA BLA BLA BLA BLA BLA BLA BLA BLA BLA 
BLA BLA BLA BLA BLA BLA BLA BLA BLA BLA BLA BLA BLA BLA BLA BLA BLA BLA BLA BLA 
BLA BLA BLA BLA BLA BLA BLA BLA BLA BLA BLA BLA BLA BLA BLA BLA BLA BLA BLA BLA 
BLA BLA BLA BLA BLA BLA BLA BLA BLA BLA BLA BLA BLA BLA BLA BLA BLA BLA BLA BLA 
BLA BLA BLA BLA BLA BLA BLA BLA BLA BLA BLA BLA BLA BLA BLA BLA BLA BLA BLA BLA 
BLA BLA BLA BLA BLA BLA BLA BLA BLA BLA BLA BLA BLA BLA BLA BLA BLA BLA BLA BLA 
BLA BLA BLA BLA BLA BLA BLA BLA BLA BLA BLA BLA BLA BLA BLA BLA BLA BLA BLA BLA 
BLA BLA BLA BLA BLA BLA BLA BLA BLA BLA BLA BLA BLA BLA BLA BLA BLA BLA BLA BLA 
BLA BLA BLA BLA BLA BLA BLA BLA BLA BLA BLA BLA BLA BLA BLA BLA BLA BLA BLA BLA 
BLA BLA BLA BLA BLA BLA BLA BLA BLA BLA BLA BLA BLA BLA BLA BLA BLA BLA BLA BLA 
BLA BLA BLA BLA BLA BLA BLA BLA BLA BLA BLA BLA BLA BLA BLA BLA BLA BLA BLA BLA 
BLA BLA BLA BLA BLA BLA BLA BLA BLA BLA BLA BLA BLA BLA BLA BLA BLA BLA BLA BLA 
BLA BLA BLA BLA BLA BLA BLA BLA BLA BLA BLA BLA BLA BLA BLA BLA BLA BLA BLA BLA 
BLA BLA BLA BLA BLA BLA BLA BLA BLA BLA BLA BLA BLA BLA BLA BLA BLA BLA BLA BLA 
BLA BLA BLA BLA BLA BLA BLA BLA BLA BLA BLA BLA BLA BLA BLA BLA BLA BLA BLA BLA 
BLA BLA BLA BLA BLA BLA BLA BLA BLA BLA BLA BLA BLA BLA BLA BLA BLA BLA BLA BLA 
BLA BLA BLA BLA BLA BLA BLA BLA BLA BLA BLA BLA BLA BLA BLA BLA BLA BLA BLA BLA 
BLA BLA BLA BLA BLA BLA BLA BLA BLA BLA BLA BLA BLA BLA BLA BLA BLA BLA BLA BLA 
BLA BLA BLA BLA BLA BLA BLA BLA BLA BLA BLA BLA BLA BLA BLA BLA BLA BLA BLA BLA 
BLA BLA BLA BLA BLA BLA BLA BLA BLA BLA BLA BLA BLA BLA BLA BLA BLA BLA BLA BLA 
BLA BLA BLA BLA BLA BLA BLA BLA BLA BLA BLA BLA BLA BLA BLA BLA BLA BLA BLA BLA 
BLA BLA BLA BLA BLA BLA BLA BLA BLA BLA BLA BLA BLA BLA BLA BLA BLA BLA BLA BLA 
BLA BLA BLA BLA BLA BLA BLA BLA BLA BLA BLA BLA BLA BLA BLA BLA BLA BLA BLA BLA 
BLA BLA BLA BLA BLA BLA BLA BLA BLA BLA BLA BLA BLA BLA BLA BLA BLA BLA BLA BLA 
BLA BLA BLA BLA BLA BLA BLA BLA BLA BLA BLA BLA BLA BLA BLA BLA BLA BLA BLA BLA 
BLA BLA BLA BLA BLA BLA BLA BLA BLA BLA BLA BLA BLA BLA BLA BLA BLA BLA BLA BLA 
BLA BLA BLA BLA BLA BLA BLA BLA BLA BLA BLA BLA BLA BLA BLA BLA BLA BLA BLA BLA 
BLA BLA BLA BLA BLA BLA BLA BLA BLA BLA BLA BLA BLA BLA BLA BLA BLA BLA BLA BLA 
BLA BLA BLA BLA BLA BLA BLA BLA BLA BLA BLA BLA BLA BLA BLA BLA BLA BLA BLA BLA 
BLA BLA BLA BLA BLA BLA BLA BLA BLA BLA BLA BLA BLA BLA BLA BLA BLA BLA BLA BLA 
BLA BLA BLA BLA BLA BLA BLA BLA BLA BLA BLA BLA BLA BLA BLA BLA BLA BLA BLA BLA 
BLA BLA BLA BLA BLA BLA BLA BLA BLA BLA BLA BLA BLA BLA BLA BLA BLA BLA BLA BLA 
BLA BLA BLA BLA BLA BLA BLA BLA BLA BLA BLA BLA BLA BLA BLA BLA BLA BLA BLA BLA 
BLA BLA BLA BLA BLA BLA BLA BLA BLA BLA BLA BLA BLA BLA BLA BLA BLA BLA BLA BLA 
BLA BLA BLA BLA BLA BLA BLA BLA BLA BLA BLA BLA BLA BLA BLA BLA BLA BLA BLA BLA 
BLA BLA BLA BLA BLA BLA BLA BLA BLA BLA BLA BLA BLA BLA BLA BLA BLA BLA BLA BLA 
BLA BLA BLA BLA BLA BLA BLA BLA BLA BLA BLA BLA BLA BLA BLA BLA BLA BLA BLA BLA 
BLA BLA BLA BLA BLA BLA BLA BLA BLA BLA BLA BLA BLA BLA BLA BLA BLA BLA BLA BLA 
BLA BLA BLA BLA BLA BLA BLA BLA BLA BLA BLA BLA BLA BLA BLA BLA BLA BLA BLA BLA 
BLA BLA BLA BLA BLA BLA BLA BLA BLA BLA BLA BLA BLA BLA BLA BLA BLA BLA BLA BLA 
BLA BLA BLA BLA BLA BLA BLA BLA BLA BLA BLA BLA BLA BLA BLA BLA BLA BLA BLA BLA 
BLA BLA BLA BLA BLA BLA BLA BLA BLA BLA BLA BLA BLA BLA BLA BLA BLA BLA BLA BLA 
BLA BLA BLA BLA BLA BLA BLA BLA BLA BLA BLA BLA BLA BLA BLA BLA BLA BLA BLA BLA 
BLA BLA BLA BLA BLA BLA BLA BLA BLA BLA BLA BLA BLA BLA BLA BLA BLA BLA BLA BLA 
BLA BLA BLA BLA BLA BLA BLA BLA BLA BLA BLA BLA BLA BLA BLA BLA BLA BLA BLA BLA 
BLA BLA BLA BLA BLA BLA BLA BLA BLA BLA BLA BLA BLA BLA BLA BLA BLA BLA BLA BLA 
BLA BLA BLA BLA BLA BLA BLA BLA BLA BLA BLA BLA BLA BLA BLA BLA BLA BLA BLA BLA 
BLA BLA BLA BLA BLA BLA BLA BLA BLA BLA BLA BLA BLA BLA BLA BLA BLA BLA BLA BLA 
BLA BLA BLA BLA BLA BLA BLA BLA BLA BLA BLA BLA BLA BLA BLA BLA BLA BLA BLA BLA 
BLA BLA BLA BLA BLA BLA BLA BLA BLA BLA BLA BLA BLA BLA BLA BLA BLA BLA BLA BLA 
BLA BLA BLA BLA BLA BLA BLA BLA BLA BLA BLA BLA BLA BLA BLA BLA BLA BLA BLA BLA 
BLA BLA BLA BLA BLA BLA BLA BLA BLA BLA BLA BLA BLA BLA BLA BLA BLA BLA BLA BLA 
BLA BLA BLA BLA BLA BLA BLA BLA BLA BLA BLA BLA BLA BLA BLA BLA BLA BLA BLA BLA 
BLA BLA BLA BLA BLA BLA BLA BLA BLA BLA BLA BLA BLA BLA BLA BLA BLA BLA BLA BLA 
BLA BLA BLA BLA BLA BLA BLA BLA BLA BLA BLA BLA BLA BLA BLA BLA BLA BLA BLA BLA 
BLA BLA BLA BLA BLA BLA BLA BLA BLA BLA BLA BLA BLA BLA BLA BLA BLA BLA BLA BLA 
BLA BLA BLA BLA BLA BLA BLA BLA BLA BLA BLA BLA BLA BLA BLA BLA BLA BLA BLA BLA 
BLA BLA BLA BLA BLA BLA BLA BLA BLA BLA BLA BLA BLA BLA BLA BLA BLA BLA BLA BLA 
BLA BLA BLA BLA BLA BLA BLA BLA BLA BLA BLA BLA BLA BLA BLA BLA BLA BLA BLA BLA 
BLA BLA BLA BLA BLA BLA BLA BLA BLA BLA BLA BLA BLA BLA BLA BLA BLA BLA BLA BLA 
BLA BLA BLA BLA BLA BLA BLA BLA BLA BLA BLA BLA BLA BLA BLA BLA BLA BLA BLA BLA 
BLA BLA BLA BLA BLA BLA BLA BLA BLA BLA BLA BLA BLA BLA BLA BLA BLA BLA BLA BLA 
BLA BLA BLA BLA BLA BLA BLA BLA BLA BLA BLA BLA BLA BLA BLA BLA BLA BLA BLA BLA 
BLA BLA BLA BLA BLA BLA BLA BLA BLA BLA BLA BLA BLA BLA BLA BLA BLA BLA BLA BLA 
BLA BLA BLA BLA BLA BLA BLA BLA BLA BLA BLA BLA BLA BLA BLA BLA BLA BLA BLA BLA 
BLA BLA BLA BLA BLA BLA BLA BLA BLA BLA BLA BLA BLA BLA BLA BLA BLA BLA BLA BLA 
BLA BLA BLA BLA BLA BLA BLA BLA BLA BLA BLA BLA BLA BLA BLA BLA BLA BLA BLA BLA 
BLA BLA BLA BLA BLA BLA BLA BLA BLA BLA BLA BLA BLA BLA BLA BLA BLA BLA BLA BLA 
BLA BLA BLA BLA BLA BLA BLA BLA BLA BLA BLA BLA BLA BLA BLA BLA BLA BLA BLA BLA 
BLA BLA BLA BLA BLA BLA BLA BLA BLA BLA BLA BLA BLA BLA BLA BLA BLA BLA BLA BLA 
BLA BLA BLA BLA BLA BLA BLA BLA BLA BLA BLA BLA BLA BLA BLA BLA BLA BLA BLA BLA 
BLA BLA BLA BLA BLA BLA BLA BLA BLA BLA BLA BLA BLA BLA BLA BLA BLA BLA BLA BLA 
BLA BLA BLA BLA BLA BLA BLA BLA BLA BLA BLA BLA BLA BLA BLA BLA BLA BLA BLA BLA 
BLA BLA BLA BLA BLA BLA BLA BLA BLA BLA BLA BLA BLA BLA BLA BLA BLA BLA BLA BLA 
BLA BLA BLA BLA BLA BLA BLA BLA BLA BLA BLA BLA BLA BLA BLA BLA BLA BLA BLA BLA 
BLA BLA BLA BLA BLA BLA BLA BLA BLA BLA BLA BLA BLA BLA BLA BLA BLA BLA BLA BLA 
BLA BLA BLA BLA BLA BLA BLA BLA BLA BLA BLA BLA BLA BLA BLA BLA BLA BLA BLA BLA 
BLA BLA BLA BLA BLA BLA BLA BLA BLA BLA BLA BLA BLA BLA BLA BLA BLA BLA BLA BLA 
BLA BLA BLA BLA BLA BLA BLA BLA BLA BLA BLA BLA BLA BLA BLA BLA BLA BLA BLA BLA 
BLA BLA BLA BLA BLA BLA BLA BLA BLA BLA BLA BLA BLA BLA BLA BLA BLA BLA BLA BLA 
BLA BLA BLA BLA BLA BLA BLA BLA BLA BLA BLA BLA BLA BLA BLA BLA BLA BLA BLA BLA 
BLA BLA BLA BLA BLA BLA BLA BLA BLA BLA BLA BLA BLA BLA BLA BLA BLA BLA BLA BLA 
BLA BLA BLA BLA BLA BLA BLA BLA BLA BLA BLA BLA BLA BLA BLA BLA BLA BLA BLA BLA 
BLA BLA BLA BLA BLA BLA BLA BLA BLA BLA BLA BLA BLA BLA BLA BLA BLA BLA BLA BLA 
BLA BLA BLA BLA BLA BLA BLA BLA BLA BLA BLA BLA BLA BLA BLA BLA BLA BLA BLA BLA 
BLA BLA BLA BLA BLA BLA BLA BLA BLA BLA BLA BLA BLA BLA BLA BLA BLA BLA BLA BLA 
BLA BLA BLA BLA BLA BLA BLA BLA BLA BLA BLA BLA BLA BLA BLA BLA BLA BLA BLA BLA 
BLA BLA BLA BLA BLA BLA BLA BLA BLA BLA BLA BLA BLA BLA BLA BLA BLA BLA BLA BLA 
BLA BLA BLA BLA BLA BLA BLA BLA BLA BLA BLA BLA BLA BLA BLA BLA BLA BLA BLA BLA 
BLA BLA BLA BLA BLA BLA BLA BLA BLA BLA BLA BLA BLA BLA BLA BLA BLA BLA BLA BLA 
BLA BLA BLA BLA BLA BLA BLA BLA BLA BLA BLA BLA BLA BLA BLA BLA BLA BLA BLA BLA 
BLA BLA BLA BLA BLA BLA BLA BLA BLA BLA BLA BLA BLA BLA BLA BLA BLA BLA BLA BLA 
BLA BLA BLA BLA BLA BLA BLA BLA BLA BLA BLA BLA BLA BLA BLA BLA BLA BLA BLA BLA 
BLA BLA BLA BLA BLA BLA BLA BLA BLA BLA BLA BLA BLA BLA BLA BLA BLA BLA BLA BLA 
BLA BLA BLA BLA BLA BLA BLA BLA BLA BLA BLA BLA BLA BLA BLA BLA BLA BLA BLA BLA 
BLA BLA BLA BLA BLA BLA BLA BLA BLA BLA BLA BLA BLA BLA BLA BLA BLA BLA BLA BLA 
BLA BLA BLA BLA BLA BLA BLA BLA BLA BLA BLA BLA BLA BLA BLA BLA BLA BLA BLA BLA 
BLA BLA BLA BLA BLA BLA BLA BLA BLA BLA BLA BLA BLA BLA BLA BLA BLA BLA BLA BLA 
BLA BLA BLA BLA BLA BLA BLA BLA BLA BLA BLA BLA BLA BLA BLA BLA BLA BLA BLA BLA 
BLA BLA BLA BLA BLA BLA BLA BLA BLA BLA BLA BLA BLA BLA BLA BLA BLA BLA BLA BLA 
BLA BLA BLA BLA BLA BLA BLA BLA BLA BLA BLA BLA BLA BLA BLA BLA BLA BLA BLA BLA 
BLA BLA BLA BLA BLA BLA BLA BLA BLA BLA BLA BLA BLA BLA BLA BLA BLA BLA BLA BLA 
BLA BLA BLA BLA BLA BLA BLA BLA BLA BLA BLA BLA BLA BLA BLA BLA BLA BLA BLA BLA 
BLA BLA BLA BLA BLA BLA BLA BLA BLA BLA BLA BLA BLA BLA BLA BLA BLA BLA BLA BLA 
BLA BLA BLA BLA BLA BLA BLA BLA BLA BLA BLA BLA BLA BLA BLA BLA BLA BLA BLA BLA 
BLA BLA BLA BLA BLA BLA BLA BLA BLA BLA BLA BLA BLA BLA BLA BLA BLA BLA BLA BLA 
BLA BLA BLA BLA BLA BLA BLA BLA BLA BLA BLA BLA BLA BLA BLA BLA BLA BLA BLA BLA 
BLA BLA BLA BLA BLA BLA BLA BLA BLA BLA BLA BLA BLA BLA BLA BLA BLA BLA BLA BLA 
BLA BLA BLA BLA BLA BLA BLA BLA BLA BLA BLA BLA BLA BLA BLA BLA BLA BLA BLA BLA 
BLA BLA BLA BLA BLA BLA BLA BLA BLA BLA BLA BLA BLA BLA BLA BLA BLA BLA BLA BLA 
BLA BLA BLA BLA BLA BLA BLA BLA BLA BLA BLA BLA BLA BLA BLA BLA BLA BLA BLA BLA 
BLA BLA BLA BLA BLA BLA BLA BLA BLA BLA BLA BLA BLA BLA BLA BLA BLA BLA BLA BLA 
BLA BLA BLA BLA BLA BLA BLA BLA BLA BLA BLA BLA BLA BLA BLA BLA BLA BLA BLA BLA 
BLA BLA BLA BLA BLA BLA BLA BLA BLA BLA BLA BLA BLA BLA BLA BLA BLA BLA BLA BLA 
BLA BLA BLA BLA BLA BLA BLA BLA BLA BLA BLA BLA BLA BLA BLA BLA BLA BLA BLA BLA 
BLA BLA BLA BLA BLA BLA BLA BLA BLA BLA BLA BLA BLA BLA BLA BLA BLA BLA BLA BLA 
BLA BLA BLA BLA BLA BLA BLA BLA BLA BLA BLA BLA BLA BLA BLA BLA BLA BLA BLA BLA 
BLA BLA BLA BLA BLA BLA BLA BLA BLA BLA BLA BLA BLA BLA BLA BLA BLA BLA BLA BLA 
BLA BLA BLA BLA BLA BLA BLA BLA BLA BLA BLA BLA BLA BLA BLA BLA BLA BLA BLA BLA 
BLA BLA BLA BLA BLA BLA BLA BLA BLA BLA BLA BLA BLA BLA BLA BLA BLA BLA BLA BLA 
BLA BLA BLA BLA BLA BLA BLA BLA BLA BLA BLA BLA BLA BLA BLA BLA BLA BLA BLA BLA 
BLA BLA BLA BLA BLA BLA BLA BLA BLA BLA BLA BLA BLA BLA BLA BLA BLA BLA BLA BLA 
BLA BLA BLA BLA BLA BLA BLA BLA BLA BLA BLA BLA BLA BLA BLA BLA BLA BLA BLA BLA 
BLA BLA BLA BLA BLA BLA BLA BLA BLA BLA BLA BLA BLA BLA BLA BLA BLA BLA BLA BLA 
BLA BLA BLA BLA BLA BLA BLA BLA BLA BLA BLA BLA BLA BLA BLA BLA BLA BLA BLA BLA 
BLA BLA BLA BLA BLA BLA BLA BLA BLA BLA BLA BLA BLA BLA BLA BLA BLA BLA BLA BLA 
BLA BLA BLA BLA BLA BLA BLA BLA BLA BLA BLA BLA BLA BLA BLA BLA BLA BLA BLA BLA 
BLA BLA BLA BLA BLA BLA BLA BLA BLA BLA BLA BLA BLA BLA BLA BLA BLA BLA BLA BLA 
BLA BLA BLA BLA BLA BLA BLA BLA BLA BLA BLA BLA BLA BLA BLA BLA BLA BLA BLA BLA 
BLA BLA BLA BLA BLA BLA BLA BLA BLA BLA BLA BLA BLA BLA BLA BLA BLA BLA BLA BLA 
BLA BLA BLA BLA BLA BLA BLA BLA BLA BLA BLA BLA BLA BLA BLA BLA BLA BLA BLA BLA 
BLA BLA BLA BLA BLA BLA BLA BLA BLA BLA BLA BLA BLA BLA BLA BLA BLA BLA BLA BLA 
BLA BLA BLA BLA BLA BLA BLA BLA BLA BLA BLA BLA BLA BLA BLA BLA BLA BLA BLA BLA 
BLA BLA BLA BLA BLA BLA BLA BLA BLA BLA BLA BLA BLA BLA BLA BLA BLA BLA BLA BLA 
BLA BLA BLA BLA BLA BLA BLA BLA BLA BLA BLA BLA BLA BLA BLA BLA BLA BLA BLA BLA 
BLA BLA BLA BLA BLA BLA BLA BLA BLA BLA BLA BLA BLA BLA BLA BLA BLA BLA BLA BLA 
BLA BLA BLA BLA BLA BLA BLA BLA BLA BLA BLA BLA BLA BLA BLA BLA BLA BLA BLA BLA 
BLA BLA BLA BLA BLA BLA BLA BLA BLA BLA BLA BLA BLA BLA BLA BLA BLA BLA BLA BLA 
BLA BLA BLA BLA BLA BLA BLA BLA BLA BLA BLA BLA BLA BLA BLA BLA BLA BLA BLA BLA 
BLA BLA BLA BLA BLA BLA BLA BLA BLA BLA BLA BLA BLA BLA BLA BLA BLA BLA BLA BLA 
BLA BLA BLA BLA BLA BLA BLA BLA BLA BLA BLA BLA BLA BLA BLA BLA BLA BLA BLA BLA 
BLA BLA BLA BLA BLA BLA BLA BLA BLA BLA BLA BLA BLA BLA BLA BLA BLA BLA BLA BLA 
BLA BLA BLA BLA BLA BLA BLA BLA BLA BLA BLA BLA BLA BLA BLA BLA BLA BLA BLA BLA 
BLA BLA BLA BLA BLA BLA BLA BLA BLA BLA BLA BLA BLA BLA BLA BLA BLA BLA BLA BLA 
BLA BLA BLA BLA BLA BLA BLA BLA BLA BLA BLA BLA BLA BLA BLA BLA BLA BLA BLA BLA 
BLA BLA BLA BLA BLA BLA BLA BLA BLA BLA BLA BLA BLA BLA BLA BLA BLA BLA BLA BLA 
BLA BLA BLA BLA BLA BLA BLA BLA BLA BLA BLA BLA BLA BLA BLA BLA BLA BLA BLA BLA 
BLA BLA BLA BLA BLA BLA BLA BLA BLA BLA BLA BLA BLA BLA BLA BLA BLA BLA BLA BLA 
BLA BLA BLA BLA BLA BLA BLA BLA BLA BLA BLA BLA BLA BLA BLA BLA BLA BLA BLA BLA 
BLA BLA BLA BLA BLA BLA BLA BLA BLA BLA BLA BLA BLA BLA BLA BLA BLA BLA BLA BLA 
BLA BLA BLA BLA BLA BLA BLA BLA BLA BLA BLA BLA BLA BLA BLA BLA BLA BLA BLA BLA 
BLA BLA BLA BLA BLA BLA BLA BLA BLA BLA BLA BLA BLA BLA BLA BLA BLA BLA BLA BLA 
BLA BLA BLA BLA BLA BLA BLA BLA BLA BLA BLA BLA BLA BLA BLA BLA BLA BLA BLA BLA 
BLA BLA BLA BLA BLA BLA BLA BLA BLA BLA BLA BLA BLA BLA BLA BLA BLA BLA BLA BLA 
BLA BLA BLA BLA BLA BLA BLA BLA BLA BLA BLA BLA BLA BLA BLA BLA BLA BLA BLA BLA 
BLA BLA BLA BLA BLA BLA BLA BLA BLA BLA BLA BLA BLA BLA BLA BLA BLA BLA BLA BLA 
BLA BLA BLA BLA BLA BLA BLA BLA BLA BLA BLA BLA BLA BLA BLA BLA BLA BLA BLA BLA 
BLA BLA BLA BLA BLA BLA BLA BLA BLA BLA BLA BLA BLA BLA BLA BLA BLA BLA BLA BLA 
BLA BLA BLA BLA BLA BLA BLA BLA BLA BLA BLA BLA BLA BLA BLA BLA BLA BLA BLA BLA 
BLA BLA BLA BLA BLA BLA BLA BLA BLA BLA BLA BLA BLA BLA BLA BLA BLA BLA BLA BLA 
BLA BLA BLA BLA BLA BLA BLA BLA BLA BLA BLA BLA BLA BLA BLA BLA BLA BLA BLA BLA 
BLA BLA BLA BLA BLA BLA BLA BLA BLA BLA BLA BLA BLA BLA BLA BLA BLA BLA BLA BLA 
BLA BLA BLA BLA BLA BLA BLA BLA BLA BLA BLA BLA BLA BLA BLA BLA BLA BLA BLA BLA 
BLA BLA BLA BLA BLA BLA BLA BLA BLA BLA BLA BLA BLA BLA BLA BLA BLA BLA BLA BLA 
BLA BLA BLA BLA BLA BLA BLA BLA BLA BLA BLA BLA BLA BLA BLA BLA BLA BLA BLA BLA 
BLA BLA BLA BLA BLA BLA BLA BLA BLA BLA BLA BLA BLA BLA BLA BLA BLA BLA BLA BLA 
BLA BLA BLA BLA BLA BLA BLA BLA BLA BLA BLA BLA BLA BLA BLA BLA BLA BLA BLA BLA 
BLA BLA BLA BLA BLA BLA BLA BLA BLA BLA BLA BLA BLA BLA BLA BLA BLA BLA BLA BLA 
BLA BLA BLA BLA BLA BLA BLA BLA BLA BLA BLA BLA BLA BLA BLA BLA BLA BLA BLA BLA 
BLA BLA BLA BLA BLA BLA BLA BLA BLA BLA BLA BLA BLA BLA BLA BLA BLA BLA BLA BLA 
BLA BLA BLA BLA BLA BLA BLA BLA BLA BLA BLA BLA BLA BLA BLA BLA BLA BLA BLA BLA 
BLA BLA BLA BLA BLA BLA BLA BLA BLA BLA BLA BLA BLA BLA BLA BLA BLA BLA BLA BLA 
BLA BLA BLA BLA BLA BLA BLA BLA BLA BLA BLA BLA BLA BLA BLA BLA BLA BLA BLA BLA 
BLA BLA BLA BLA BLA BLA BLA BLA BLA BLA BLA BLA BLA BLA BLA BLA BLA BLA BLA BLA 
BLA BLA BLA BLA BLA BLA BLA BLA BLA BLA BLA BLA BLA BLA BLA BLA BLA BLA BLA BLA 
BLA BLA BLA BLA BLA BLA BLA BLA BLA BLA BLA BLA BLA BLA BLA BLA BLA BLA BLA BLA 
BLA BLA BLA BLA BLA BLA BLA BLA BLA BLA BLA BLA BLA BLA BLA BLA BLA BLA BLA BLA 
BLA BLA BLA BLA BLA BLA BLA BLA BLA BLA BLA BLA BLA BLA BLA BLA BLA BLA BLA BLA 
BLA BLA BLA BLA BLA BLA BLA BLA BLA BLA BLA BLA BLA BLA BLA BLA BLA BLA BLA BLA 
BLA BLA BLA BLA BLA BLA BLA BLA BLA BLA BLA BLA BLA BLA BLA BLA BLA BLA BLA BLA 
BLA BLA BLA BLA BLA BLA BLA BLA BLA BLA BLA BLA BLA BLA BLA BLA BLA BLA BLA BLA 
BLA BLA BLA BLA BLA BLA BLA BLA BLA BLA BLA BLA BLA BLA BLA BLA BLA BLA BLA BLA 
BLA BLA BLA BLA BLA BLA BLA BLA BLA BLA BLA BLA BLA BLA BLA BLA BLA BLA BLA BLA 
BLA BLA BLA BLA BLA BLA BLA BLA BLA BLA BLA BLA BLA BLA BLA BLA BLA BLA BLA BLA 
BLA BLA BLA BLA BLA BLA BLA BLA BLA BLA BLA BLA BLA BLA BLA BLA BLA BLA BLA BLA 
BLA BLA BLA BLA BLA BLA BLA BLA BLA BLA BLA BLA BLA BLA BLA BLA BLA BLA BLA BLA 
BLA BLA BLA BLA BLA BLA BLA BLA BLA BLA BLA BLA BLA BLA BLA BLA BLA BLA BLA BLA 
BLA BLA BLA BLA BLA BLA BLA BLA BLA BLA BLA BLA BLA BLA BLA BLA BLA BLA BLA BLA 
BLA BLA BLA BLA BLA BLA BLA BLA BLA BLA BLA BLA BLA BLA BLA BLA BLA BLA BLA BLA 
BLA BLA BLA BLA BLA BLA BLA BLA BLA BLA BLA BLA BLA BLA BLA BLA BLA BLA BLA BLA 
BLA BLA BLA BLA BLA BLA BLA BLA BLA BLA BLA BLA BLA BLA BLA BLA BLA BLA BLA BLA 
BLA BLA BLA BLA BLA BLA BLA BLA BLA BLA BLA BLA BLA BLA BLA BLA BLA BLA BLA BLA 
BLA BLA BLA BLA BLA BLA BLA BLA BLA BLA BLA BLA BLA BLA BLA BLA BLA BLA BLA BLA 
BLA BLA BLA BLA BLA BLA BLA BLA BLA BLA BLA BLA BLA BLA BLA BLA BLA BLA BLA BLA 
BLA BLA BLA BLA BLA BLA BLA BLA BLA BLA BLA BLA BLA BLA BLA BLA BLA BLA BLA BLA 
BLA BLA BLA BLA BLA BLA BLA BLA BLA BLA BLA BLA BLA BLA BLA BLA BLA BLA BLA BLA 
BLA BLA BLA BLA BLA BLA BLA BLA BLA BLA BLA BLA BLA BLA BLA BLA BLA BLA BLA BLA 
BLA BLA BLA BLA BLA BLA BLA BLA BLA BLA BLA BLA BLA BLA BLA BLA BLA BLA BLA BLA 
BLA BLA BLA BLA BLA BLA BLA BLA BLA BLA BLA BLA BLA BLA BLA BLA BLA BLA BLA BLA 
BLA BLA BLA BLA BLA BLA BLA BLA BLA BLA BLA BLA BLA BLA BLA BLA BLA BLA BLA BLA 
BLA BLA BLA BLA BLA BLA BLA BLA BLA BLA BLA BLA BLA BLA BLA BLA BLA BLA BLA BLA 
BLA BLA BLA BLA BLA BLA BLA BLA BLA BLA BLA BLA BLA BLA BLA BLA BLA BLA BLA BLA 
BLA BLA BLA BLA BLA BLA BLA BLA BLA BLA BLA BLA BLA BLA BLA BLA BLA BLA BLA BLA 
BLA BLA BLA BLA BLA BLA BLA BLA BLA BLA BLA BLA BLA BLA BLA BLA BLA BLA BLA BLA 
BLA BLA BLA BLA BLA BLA BLA BLA BLA BLA BLA BLA BLA BLA BLA BLA BLA BLA BLA BLA 
BLA BLA BLA BLA BLA BLA BLA BLA BLA BLA BLA BLA BLA BLA BLA BLA BLA BLA BLA BLA 
BLA BLA BLA BLA BLA BLA BLA BLA BLA BLA BLA BLA BLA BLA BLA BLA BLA BLA BLA BLA 
BLA BLA BLA BLA BLA BLA BLA BLA BLA BLA BLA BLA BLA BLA BLA BLA BLA BLA BLA BLA 
BLA BLA BLA BLA BLA BLA BLA BLA BLA BLA BLA BLA BLA BLA BLA BLA BLA BLA BLA BLA 
BLA BLA BLA BLA BLA BLA BLA BLA BLA BLA BLA BLA BLA BLA BLA BLA BLA BLA BLA BLA 
BLA BLA BLA BLA BLA BLA BLA BLA BLA BLA BLA BLA BLA BLA BLA BLA BLA BLA BLA BLA 
BLA BLA BLA BLA BLA BLA BLA BLA BLA BLA BLA BLA BLA BLA BLA BLA BLA BLA BLA BLA 
BLA BLA BLA BLA BLA BLA BLA BLA BLA BLA BLA BLA BLA BLA BLA BLA BLA BLA BLA BLA 
BLA BLA BLA BLA BLA BLA BLA BLA BLA BLA BLA BLA BLA BLA BLA BLA BLA BLA BLA BLA 
BLA BLA BLA BLA BLA BLA BLA BLA BLA BLA BLA BLA BLA BLA BLA BLA BLA BLA BLA BLA 
BLA BLA BLA BLA BLA BLA BLA BLA BLA BLA BLA BLA BLA BLA BLA BLA BLA BLA BLA BLA 
BLA BLA BLA BLA BLA BLA BLA BLA BLA BLA BLA BLA BLA BLA BLA BLA BLA BLA BLA BLA 
BLA BLA BLA BLA BLA BLA BLA BLA BLA BLA BLA BLA BLA BLA BLA BLA BLA BLA BLA BLA 
BLA BLA BLA BLA BLA BLA BLA BLA BLA BLA BLA BLA BLA BLA BLA BLA BLA BLA BLA BLA 
BLA BLA BLA BLA BLA BLA BLA BLA BLA BLA BLA BLA BLA BLA BLA BLA BLA BLA BLA BLA 
BLA BLA BLA BLA BLA BLA BLA BLA BLA BLA BLA BLA BLA BLA BLA BLA BLA BLA BLA BLA 
BLA BLA BLA BLA BLA BLA BLA BLA BLA BLA BLA BLA BLA BLA BLA BLA BLA BLA BLA BLA 
BLA BLA BLA BLA BLA BLA BLA BLA BLA BLA BLA BLA BLA BLA BLA BLA BLA BLA BLA BLA 
BLA BLA BLA BLA BLA BLA BLA BLA BLA BLA BLA BLA BLA BLA BLA BLA BLA BLA BLA BLA 
BLA BLA BLA BLA BLA BLA BLA BLA BLA BLA BLA BLA BLA BLA BLA BLA BLA BLA BLA BLA 
BLA BLA BLA BLA BLA BLA BLA BLA BLA BLA BLA BLA BLA BLA BLA BLA BLA BLA BLA BLA 
BLA BLA BLA BLA BLA BLA BLA BLA BLA BLA BLA BLA BLA BLA BLA BLA BLA BLA BLA BLA 
BLA BLA BLA BLA BLA BLA BLA BLA BLA BLA BLA BLA BLA BLA BLA BLA BLA BLA BLA BLA 
BLA BLA BLA BLA BLA BLA BLA BLA BLA BLA BLA BLA BLA BLA BLA BLA BLA BLA BLA BLA 
BLA BLA BLA BLA BLA BLA BLA BLA BLA BLA BLA BLA BLA BLA BLA BLA BLA BLA BLA BLA 
BLA BLA BLA BLA BLA BLA BLA BLA BLA BLA BLA BLA BLA BLA BLA BLA BLA BLA BLA BLA 
BLA BLA BLA BLA BLA BLA BLA BLA BLA BLA BLA BLA BLA BLA BLA BLA BLA BLA BLA BLA 
BLA BLA BLA BLA BLA BLA BLA BLA BLA BLA BLA BLA BLA BLA BLA BLA BLA BLA BLA BLA 
BLA BLA BLA BLA BLA BLA BLA BLA BLA BLA BLA BLA BLA BLA BLA BLA BLA BLA BLA BLA 
BLA BLA BLA BLA BLA BLA BLA BLA BLA BLA BLA BLA BLA BLA BLA BLA BLA BLA BLA BLA 
BLA BLA BLA BLA BLA BLA BLA BLA BLA BLA BLA BLA BLA BLA BLA BLA BLA BLA BLA BLA 
BLA BLA BLA BLA BLA BLA BLA BLA BLA BLA BLA BLA BLA BLA BLA BLA BLA BLA BLA BLA 
BLA BLA BLA BLA BLA BLA BLA BLA BLA BLA BLA BLA BLA BLA BLA BLA BLA BLA BLA BLA 
BLA BLA BLA BLA BLA BLA BLA BLA BLA BLA BLA BLA BLA BLA BLA BLA BLA BLA BLA BLA 
BLA BLA BLA BLA BLA BLA BLA BLA BLA BLA BLA BLA BLA BLA BLA BLA BLA BLA BLA BLA 
BLA BLA BLA BLA BLA BLA BLA BLA BLA BLA BLA BLA BLA BLA BLA BLA BLA BLA BLA BLA 
BLA BLA BLA BLA BLA BLA BLA BLA BLA BLA BLA BLA BLA BLA BLA BLA BLA BLA BLA BLA 
BLA BLA BLA BLA BLA BLA BLA BLA BLA BLA BLA BLA BLA BLA BLA BLA BLA BLA BLA BLA 
BLA BLA BLA BLA BLA BLA BLA BLA BLA BLA BLA BLA BLA BLA BLA BLA BLA BLA BLA BLA 
BLA BLA BLA BLA BLA BLA BLA BLA BLA BLA BLA BLA BLA BLA BLA BLA BLA BLA BLA BLA 
BLA BLA BLA BLA BLA BLA BLA BLA BLA BLA BLA BLA BLA BLA BLA BLA BLA BLA BLA BLA 
BLA BLA BLA BLA BLA BLA BLA BLA BLA BLA BLA BLA BLA BLA BLA BLA BLA BLA BLA BLA 
BLA BLA BLA BLA BLA BLA BLA BLA BLA BLA BLA BLA BLA BLA BLA BLA BLA BLA BLA BLA 
BLA BLA BLA BLA BLA BLA BLA BLA BLA BLA BLA BLA BLA BLA BLA BLA BLA BLA BLA BLA 
BLA BLA BLA BLA BLA BLA BLA BLA BLA BLA BLA BLA BLA BLA BLA BLA BLA BLA BLA BLA 
BLA BLA BLA BLA BLA BLA BLA BLA BLA BLA BLA BLA BLA BLA BLA BLA BLA BLA BLA BLA 
BLA BLA BLA BLA BLA BLA BLA BLA BLA BLA BLA BLA BLA BLA BLA BLA BLA BLA BLA BLA 
BLA BLA BLA BLA BLA BLA BLA BLA BLA BLA BLA BLA BLA BLA BLA BLA BLA BLA BLA BLA 
BLA BLA BLA BLA BLA BLA BLA BLA BLA BLA BLA BLA BLA BLA BLA BLA BLA BLA BLA BLA 
BLA BLA BLA BLA BLA BLA BLA BLA BLA BLA BLA BLA BLA BLA BLA BLA BLA BLA BLA BLA 
BLA BLA BLA BLA BLA BLA BLA BLA BLA BLA BLA BLA BLA BLA BLA BLA BLA BLA BLA BLA 
BLA BLA BLA BLA BLA BLA BLA BLA BLA BLA BLA BLA BLA BLA BLA BLA BLA BLA BLA BLA 
BLA BLA BLA BLA BLA BLA BLA BLA BLA BLA BLA BLA BLA BLA BLA BLA BLA BLA BLA BLA 
BLA BLA BLA BLA BLA BLA BLA BLA BLA BLA BLA BLA BLA BLA BLA BLA BLA BLA BLA BLA 
BLA BLA BLA BLA BLA BLA BLA BLA BLA BLA BLA BLA BLA BLA BLA BLA BLA BLA BLA BLA 
BLA BLA BLA BLA BLA BLA BLA BLA BLA BLA BLA BLA BLA BLA BLA BLA BLA BLA BLA BLA 
BLA BLA BLA BLA BLA BLA BLA BLA BLA BLA BLA BLA BLA BLA BLA BLA BLA BLA BLA BLA 
BLA BLA BLA BLA BLA BLA BLA BLA BLA BLA BLA BLA BLA BLA BLA BLA BLA BLA BLA BLA 
BLA BLA BLA BLA BLA BLA BLA BLA BLA BLA BLA BLA BLA BLA BLA BLA BLA BLA BLA BLA 
BLA BLA BLA BLA BLA BLA BLA BLA BLA BLA BLA BLA BLA BLA BLA BLA BLA BLA BLA BLA 
BLA BLA BLA BLA BLA BLA BLA BLA BLA BLA BLA BLA BLA BLA BLA BLA BLA BLA BLA BLA 
BLA BLA BLA BLA BLA BLA BLA BLA BLA BLA BLA BLA BLA BLA BLA BLA BLA BLA BLA BLA 
BLA BLA BLA BLA BLA BLA BLA BLA BLA BLA BLA BLA BLA BLA BLA BLA BLA BLA BLA BLA 
BLA BLA BLA BLA BLA BLA BLA BLA BLA BLA BLA BLA BLA BLA BLA BLA BLA BLA BLA BLA 
BLA BLA BLA BLA BLA BLA BLA BLA BLA BLA BLA BLA BLA BLA BLA BLA BLA BLA BLA BLA 
BLA BLA BLA BLA BLA BLA BLA BLA BLA BLA BLA BLA BLA BLA BLA BLA BLA BLA BLA BLA 
BLA BLA BLA BLA BLA BLA BLA BLA BLA BLA BLA BLA BLA BLA BLA BLA BLA BLA BLA BLA 
BLA BLA BLA BLA BLA BLA BLA BLA BLA BLA BLA BLA BLA BLA BLA BLA BLA BLA BLA BLA 
BLA BLA BLA BLA BLA BLA BLA BLA BLA BLA BLA BLA BLA BLA BLA BLA BLA BLA BLA BLA 
BLA BLA BLA BLA BLA BLA BLA BLA BLA BLA BLA BLA BLA BLA BLA BLA BLA BLA BLA BLA 
BLA BLA BLA BLA BLA BLA BLA BLA BLA BLA BLA BLA BLA BLA BLA BLA BLA BLA BLA BLA 
BLA BLA BLA BLA BLA BLA BLA BLA BLA BLA BLA BLA BLA BLA BLA BLA BLA BLA BLA BLA 
BLA BLA BLA BLA BLA BLA BLA BLA BLA BLA BLA BLA BLA BLA BLA BLA BLA BLA BLA BLA 
BLA BLA BLA BLA BLA BLA BLA BLA BLA BLA BLA BLA BLA BLA BLA BLA BLA BLA BLA BLA 
BLA BLA BLA BLA BLA BLA BLA BLA BLA BLA BLA BLA BLA BLA BLA BLA BLA BLA BLA BLA 
BLA BLA BLA BLA BLA BLA BLA BLA BLA BLA BLA BLA BLA BLA BLA BLA BLA BLA BLA BLA 
BLA BLA BLA BLA BLA BLA BLA BLA BLA BLA BLA BLA BLA BLA BLA BLA BLA BLA BLA BLA 
BLA BLA BLA BLA BLA BLA BLA BLA BLA BLA BLA BLA BLA BLA BLA BLA BLA BLA BLA BLA 
BLA BLA BLA BLA BLA BLA BLA BLA BLA BLA BLA BLA BLA BLA BLA BLA BLA BLA BLA BLA 
BLA BLA BLA BLA BLA BLA BLA BLA BLA BLA BLA BLA BLA BLA BLA BLA BLA BLA BLA BLA 
BLA BLA BLA BLA BLA BLA BLA BLA BLA BLA BLA BLA BLA BLA BLA BLA BLA BLA BLA BLA 
BLA BLA BLA BLA BLA BLA BLA BLA BLA BLA BLA BLA BLA BLA BLA BLA BLA BLA BLA BLA 
BLA BLA BLA BLA BLA BLA BLA BLA BLA BLA BLA BLA BLA BLA BLA BLA BLA BLA BLA BLA 
BLA BLA BLA BLA BLA BLA BLA BLA BLA BLA BLA BLA BLA BLA BLA BLA BLA BLA BLA BLA 
BLA BLA BLA BLA BLA BLA BLA BLA BLA BLA BLA BLA BLA BLA BLA BLA BLA BLA BLA BLA 
BLA BLA BLA BLA BLA BLA BLA BLA BLA BLA BLA BLA BLA BLA BLA BLA BLA BLA BLA BLA 
BLA BLA BLA BLA BLA BLA BLA BLA BLA BLA BLA BLA BLA BLA BLA BLA BLA BLA BLA BLA 
BLA BLA BLA BLA BLA BLA BLA BLA BLA BLA BLA BLA BLA BLA BLA BLA BLA BLA BLA BLA 
BLA BLA BLA BLA BLA BLA BLA BLA BLA BLA BLA BLA BLA BLA BLA BLA BLA BLA BLA BLA 
BLA BLA BLA BLA BLA BLA BLA BLA BLA BLA BLA BLA BLA BLA BLA BLA BLA BLA BLA BLA 
BLA BLA BLA BLA BLA BLA BLA BLA BLA BLA BLA BLA BLA BLA BLA BLA BLA BLA BLA BLA 
BLA BLA BLA BLA BLA BLA BLA BLA BLA BLA BLA BLA BLA BLA BLA BLA BLA BLA BLA BLA 
BLA BLA BLA BLA BLA BLA BLA BLA BLA BLA BLA BLA BLA BLA BLA BLA BLA BLA BLA BLA 
BLA BLA BLA BLA BLA BLA BLA BLA BLA BLA BLA BLA BLA BLA BLA BLA BLA BLA BLA BLA 
BLA BLA BLA BLA BLA BLA BLA BLA BLA BLA BLA BLA BLA BLA BLA BLA BLA BLA BLA BLA 
BLA BLA BLA BLA BLA BLA BLA BLA BLA BLA BLA BLA BLA BLA BLA BLA BLA BLA BLA BLA 
BLA BLA BLA BLA BLA BLA BLA BLA BLA BLA BLA BLA BLA BLA BLA BLA BLA BLA BLA BLA 
BLA BLA BLA BLA BLA BLA BLA BLA BLA BLA BLA BLA BLA BLA BLA BLA BLA BLA BLA BLA 
BLA BLA BLA BLA BLA BLA BLA BLA BLA BLA BLA BLA BLA BLA BLA BLA BLA BLA BLA BLA 
BLA BLA BLA BLA BLA BLA BLA BLA BLA BLA BLA BLA BLA BLA BLA BLA BLA BLA BLA BLA 
BLA BLA BLA BLA BLA BLA BLA BLA BLA BLA BLA BLA BLA BLA BLA BLA BLA BLA BLA BLA 
BLA BLA BLA BLA BLA BLA BLA BLA BLA BLA BLA BLA BLA BLA BLA BLA BLA BLA BLA BLA 
BLA BLA BLA BLA BLA BLA BLA BLA BLA BLA BLA BLA BLA BLA BLA BLA BLA BLA BLA BLA 
BLA BLA BLA BLA BLA BLA BLA BLA BLA BLA BLA BLA BLA BLA BLA BLA BLA BLA BLA BLA 
BLA BLA BLA BLA BLA BLA BLA BLA BLA BLA BLA BLA BLA BLA BLA BLA BLA BLA BLA BLA 
BLA BLA BLA BLA BLA BLA BLA BLA BLA BLA BLA BLA BLA BLA BLA BLA BLA BLA BLA BLA 
BLA BLA BLA BLA BLA BLA BLA BLA BLA BLA BLA BLA BLA BLA BLA BLA BLA BLA BLA BLA 
BLA BLA BLA BLA BLA BLA BLA BLA BLA BLA BLA BLA BLA BLA BLA BLA BLA BLA BLA BLA 
BLA BLA BLA BLA BLA BLA BLA BLA BLA BLA BLA BLA BLA BLA BLA BLA BLA BLA BLA BLA 
BLA BLA BLA BLA BLA BLA BLA BLA BLA BLA BLA BLA BLA BLA BLA BLA BLA BLA BLA BLA 
BLA BLA BLA BLA BLA BLA BLA BLA BLA BLA BLA BLA BLA BLA BLA BLA BLA BLA BLA BLA 
BLA BLA BLA BLA BLA BLA BLA BLA BLA BLA BLA BLA BLA BLA BLA BLA BLA BLA BLA BLA 
BLA BLA BLA BLA BLA BLA BLA BLA BLA BLA BLA BLA BLA BLA BLA BLA BLA BLA BLA BLA 
BLA BLA BLA BLA BLA BLA BLA BLA BLA BLA BLA BLA BLA BLA BLA BLA BLA BLA BLA BLA 
BLA BLA BLA BLA BLA BLA BLA BLA BLA BLA BLA BLA BLA BLA BLA BLA BLA BLA BLA BLA 
BLA BLA BLA BLA BLA BLA BLA BLA BLA BLA BLA BLA BLA BLA BLA BLA BLA BLA BLA BLA 
BLA BLA BLA BLA BLA BLA BLA BLA BLA BLA BLA BLA BLA BLA BLA BLA BLA BLA BLA BLA 
BLA BLA BLA BLA BLA BLA BLA BLA BLA BLA BLA BLA BLA BLA BLA BLA BLA BLA BLA BLA 
BLA BLA BLA BLA BLA BLA BLA BLA BLA BLA BLA BLA BLA BLA BLA BLA BLA BLA BLA BLA 
BLA BLA BLA BLA BLA BLA BLA BLA BLA BLA BLA BLA BLA BLA BLA BLA BLA BLA BLA BLA 
BLA BLA BLA BLA BLA BLA BLA BLA BLA BLA BLA BLA BLA BLA BLA BLA BLA BLA BLA BLA 
BLA BLA BLA BLA BLA BLA BLA BLA BLA BLA BLA BLA BLA BLA BLA BLA BLA BLA BLA BLA 
BLA BLA BLA BLA BLA BLA BLA BLA BLA BLA BLA BLA BLA BLA BLA BLA BLA BLA BLA BLA 
BLA BLA BLA BLA BLA BLA BLA BLA BLA BLA BLA BLA BLA BLA BLA BLA BLA BLA BLA BLA 
BLA BLA BLA BLA BLA BLA BLA BLA BLA BLA BLA BLA BLA BLA BLA BLA BLA BLA BLA BLA 
BLA BLA BLA BLA BLA BLA BLA BLA BLA BLA BLA BLA BLA BLA BLA BLA BLA BLA BLA BLA 
BLA BLA BLA BLA BLA BLA BLA BLA BLA BLA BLA BLA BLA BLA BLA BLA BLA BLA BLA BLA 
BLA BLA BLA BLA BLA BLA BLA BLA BLA BLA BLA BLA BLA BLA BLA BLA BLA BLA BLA BLA 
BLA BLA BLA BLA BLA BLA BLA BLA BLA BLA BLA BLA BLA BLA BLA BLA BLA BLA BLA BLA 
BLA BLA BLA BLA BLA BLA BLA BLA BLA BLA BLA BLA BLA BLA BLA BLA BLA BLA BLA BLA 
BLA BLA BLA BLA BLA BLA BLA BLA BLA BLA BLA BLA BLA BLA BLA BLA BLA BLA BLA BLA 
BLA BLA BLA BLA BLA BLA BLA BLA BLA BLA BLA BLA BLA BLA BLA BLA BLA BLA BLA BLA 
BLA BLA BLA BLA BLA BLA BLA BLA BLA BLA BLA BLA BLA BLA BLA BLA BLA BLA BLA BLA 
BLA BLA BLA BLA BLA BLA BLA BLA BLA BLA BLA BLA BLA BLA BLA BLA BLA BLA BLA BLA 
BLA BLA BLA BLA BLA BLA BLA BLA BLA BLA BLA BLA BLA BLA BLA BLA BLA BLA BLA BLA 
BLA BLA BLA BLA BLA BLA BLA BLA BLA BLA BLA BLA BLA BLA BLA BLA BLA BLA BLA BLA 
BLA BLA BLA BLA BLA BLA BLA BLA BLA BLA BLA BLA BLA BLA BLA BLA BLA BLA BLA BLA 
BLA BLA BLA BLA BLA BLA BLA BLA BLA BLA BLA BLA BLA BLA BLA BLA BLA BLA BLA BLA 
BLA BLA BLA BLA BLA BLA BLA BLA BLA BLA BLA BLA BLA BLA BLA BLA BLA BLA BLA BLA 
BLA BLA BLA BLA BLA BLA BLA BLA BLA BLA BLA BLA BLA BLA BLA BLA BLA BLA BLA BLA 
BLA BLA BLA BLA BLA BLA BLA BLA BLA BLA BLA BLA BLA BLA BLA BLA BLA BLA BLA BLA 
BLA BLA BLA BLA BLA BLA BLA BLA BLA BLA BLA BLA BLA BLA BLA BLA BLA BLA BLA BLA 
BLA BLA BLA BLA BLA BLA BLA BLA BLA BLA BLA BLA BLA BLA BLA BLA BLA BLA BLA BLA 
BLA BLA BLA BLA BLA BLA BLA BLA BLA BLA BLA BLA BLA BLA BLA BLA BLA BLA BLA BLA 
BLA BLA BLA BLA BLA BLA BLA BLA BLA BLA BLA BLA BLA BLA BLA BLA BLA BLA BLA BLA 
BLA BLA BLA BLA BLA BLA BLA BLA BLA BLA BLA BLA BLA BLA BLA BLA BLA BLA BLA BLA 
BLA BLA BLA BLA BLA BLA BLA BLA BLA BLA BLA BLA BLA BLA BLA BLA BLA BLA BLA BLA 
BLA BLA BLA BLA BLA BLA BLA BLA BLA BLA BLA BLA BLA BLA BLA BLA BLA BLA BLA BLA 
BLA BLA BLA BLA BLA BLA BLA BLA BLA BLA BLA BLA BLA BLA BLA BLA BLA BLA BLA BLA 
BLA BLA BLA BLA BLA BLA BLA BLA BLA BLA BLA BLA BLA BLA BLA BLA BLA BLA BLA BLA 
BLA BLA BLA BLA BLA BLA BLA BLA BLA BLA BLA BLA BLA BLA BLA BLA BLA BLA BLA BLA 
BLA BLA BLA BLA BLA BLA BLA BLA BLA BLA BLA BLA BLA BLA BLA BLA BLA BLA BLA BLA 
BLA BLA BLA BLA BLA BLA BLA BLA BLA BLA BLA BLA BLA BLA BLA BLA BLA BLA BLA BLA 
BLA BLA BLA BLA BLA BLA BLA BLA BLA BLA BLA BLA BLA BLA BLA BLA BLA BLA BLA BLA 
BLA BLA BLA BLA BLA BLA BLA BLA BLA BLA BLA BLA BLA BLA BLA BLA BLA BLA BLA BLA 
BLA BLA BLA BLA BLA BLA BLA BLA BLA BLA BLA BLA BLA BLA BLA BLA BLA BLA BLA BLA 
BLA BLA BLA BLA BLA BLA BLA BLA BLA BLA BLA BLA BLA BLA BLA BLA BLA BLA BLA BLA 
BLA BLA BLA BLA BLA BLA BLA BLA BLA BLA BLA BLA BLA BLA BLA BLA BLA BLA BLA BLA 
BLA BLA BLA BLA BLA BLA BLA BLA BLA BLA BLA BLA BLA BLA BLA BLA BLA BLA BLA BLA 
BLA BLA BLA BLA BLA BLA BLA BLA BLA BLA BLA BLA BLA BLA BLA BLA BLA BLA BLA BLA 
BLA BLA BLA BLA BLA BLA BLA BLA BLA BLA BLA BLA BLA BLA BLA BLA BLA BLA BLA BLA 
BLA BLA BLA BLA BLA BLA BLA BLA BLA BLA BLA BLA BLA BLA BLA BLA BLA BLA BLA BLA 
BLA BLA BLA BLA BLA BLA BLA BLA BLA BLA BLA BLA BLA BLA BLA BLA BLA BLA BLA BLA 
BLA BLA BLA BLA BLA BLA BLA BLA BLA BLA BLA BLA BLA BLA BLA BLA BLA BLA BLA BLA 
BLA BLA BLA BLA BLA BLA BLA BLA BLA BLA BLA BLA BLA BLA BLA BLA BLA BLA BLA BLA 
BLA BLA BLA BLA BLA BLA BLA BLA BLA BLA BLA BLA BLA BLA BLA BLA BLA BLA BLA BLA 
BLA BLA BLA BLA BLA BLA BLA BLA BLA BLA BLA BLA BLA BLA BLA BLA BLA BLA BLA BLA 
BLA BLA BLA BLA BLA BLA BLA BLA BLA BLA BLA BLA BLA BLA BLA BLA BLA BLA BLA BLA 
BLA BLA BLA BLA BLA BLA BLA BLA BLA BLA BLA BLA BLA BLA BLA BLA BLA BLA BLA BLA 
BLA BLA BLA BLA BLA BLA BLA BLA BLA BLA BLA BLA BLA BLA BLA BLA BLA BLA BLA BLA 
BLA BLA BLA BLA BLA BLA BLA BLA BLA BLA BLA BLA BLA BLA BLA BLA BLA BLA BLA BLA 
BLA BLA BLA BLA BLA BLA BLA BLA BLA BLA BLA BLA BLA BLA BLA BLA BLA BLA BLA BLA 
BLA BLA BLA BLA BLA BLA BLA BLA BLA BLA BLA BLA BLA BLA BLA BLA BLA BLA BLA BLA 
BLA BLA BLA BLA BLA BLA BLA BLA BLA BLA BLA BLA BLA BLA BLA BLA BLA BLA BLA BLA 
BLA BLA BLA BLA BLA BLA BLA BLA BLA BLA BLA BLA BLA BLA BLA BLA BLA BLA BLA BLA 
BLA BLA BLA BLA BLA BLA BLA BLA BLA BLA BLA BLA BLA BLA BLA BLA BLA BLA BLA BLA 
BLA BLA BLA BLA BLA BLA BLA BLA BLA BLA BLA BLA BLA BLA BLA BLA BLA BLA BLA BLA 
BLA BLA BLA BLA BLA BLA BLA BLA BLA BLA BLA BLA BLA BLA BLA BLA BLA BLA BLA BLA 
BLA BLA BLA BLA BLA BLA BLA BLA BLA BLA BLA BLA BLA BLA BLA BLA BLA BLA BLA BLA 
BLA BLA BLA BLA BLA BLA BLA BLA BLA BLA BLA BLA BLA BLA BLA BLA BLA BLA BLA BLA 
BLA BLA BLA BLA BLA BLA BLA BLA BLA BLA BLA BLA BLA BLA BLA BLA BLA BLA BLA BLA 
BLA BLA BLA BLA BLA BLA BLA BLA BLA BLA BLA BLA BLA BLA BLA BLA BLA BLA BLA BLA 
BLA BLA BLA BLA BLA BLA BLA BLA BLA BLA BLA BLA BLA BLA BLA BLA BLA BLA BLA BLA 
BLA BLA BLA BLA BLA BLA BLA BLA BLA BLA BLA BLA BLA BLA BLA BLA BLA BLA BLA BLA 
BLA BLA BLA BLA BLA BLA BLA BLA BLA BLA BLA BLA BLA BLA BLA BLA BLA BLA BLA BLA 
BLA BLA BLA BLA BLA BLA BLA BLA BLA BLA BLA BLA BLA BLA BLA BLA BLA BLA BLA BLA 
BLA BLA BLA BLA BLA BLA BLA BLA BLA BLA BLA BLA BLA BLA BLA BLA BLA BLA BLA BLA 
BLA BLA BLA BLA BLA BLA BLA BLA BLA BLA BLA BLA BLA BLA BLA BLA BLA BLA BLA BLA 
BLA BLA BLA BLA BLA BLA BLA BLA BLA BLA BLA BLA BLA BLA BLA BLA BLA BLA BLA BLA 
BLA BLA BLA BLA BLA BLA BLA BLA BLA BLA BLA BLA BLA BLA BLA BLA BLA BLA BLA BLA 
BLA BLA BLA BLA BLA BLA BLA BLA BLA BLA BLA BLA BLA BLA BLA BLA BLA BLA BLA BLA 
BLA BLA BLA BLA BLA BLA BLA BLA BLA BLA BLA BLA BLA BLA BLA BLA BLA BLA BLA BLA 
BLA BLA BLA BLA BLA BLA BLA BLA BLA BLA BLA BLA BLA BLA BLA BLA BLA BLA BLA BLA 
BLA BLA BLA BLA BLA BLA BLA BLA BLA BLA BLA BLA BLA BLA BLA BLA BLA BLA BLA BLA 
BLA BLA BLA BLA BLA BLA BLA BLA BLA BLA BLA BLA BLA BLA BLA BLA BLA BLA BLA BLA 
BLA BLA BLA BLA BLA BLA BLA BLA BLA BLA BLA BLA BLA BLA BLA BLA BLA BLA BLA BLA 
BLA BLA BLA BLA BLA BLA BLA BLA BLA BLA BLA BLA BLA BLA BLA BLA BLA BLA BLA BLA 
BLA BLA BLA BLA BLA BLA BLA BLA BLA BLA BLA BLA BLA BLA BLA BLA BLA BLA BLA BLA 
BLA BLA BLA BLA BLA BLA BLA BLA BLA BLA BLA BLA BLA BLA BLA BLA BLA BLA BLA BLA 
BLA BLA BLA BLA BLA BLA BLA BLA BLA BLA BLA BLA BLA BLA BLA BLA BLA BLA BLA BLA 
BLA BLA BLA BLA BLA BLA BLA BLA BLA BLA BLA BLA BLA BLA BLA BLA BLA BLA BLA BLA 
BLA BLA BLA BLA BLA BLA BLA BLA BLA BLA BLA BLA BLA BLA BLA BLA BLA BLA BLA BLA 
BLA BLA BLA BLA BLA BLA BLA BLA BLA BLA BLA BLA BLA BLA BLA BLA BLA BLA BLA BLA 
BLA BLA BLA BLA BLA BLA BLA BLA BLA BLA BLA BLA BLA BLA BLA BLA BLA BLA BLA BLA 
BLA BLA BLA BLA BLA BLA BLA BLA BLA BLA BLA BLA BLA BLA BLA BLA BLA BLA BLA BLA 
BLA BLA BLA BLA BLA BLA BLA BLA BLA BLA BLA BLA BLA BLA BLA BLA BLA BLA BLA BLA 
BLA BLA BLA BLA BLA BLA BLA BLA BLA BLA BLA BLA BLA BLA BLA BLA BLA BLA BLA BLA 
BLA BLA BLA BLA BLA BLA BLA BLA BLA BLA BLA BLA BLA BLA BLA BLA BLA BLA BLA BLA 
BLA BLA BLA BLA BLA BLA BLA BLA BLA BLA BLA BLA BLA BLA BLA BLA BLA BLA BLA BLA 
BLA BLA BLA BLA BLA BLA BLA BLA BLA BLA BLA BLA BLA BLA BLA BLA BLA BLA BLA BLA 
BLA BLA BLA BLA BLA BLA BLA BLA BLA BLA BLA BLA BLA BLA BLA BLA BLA BLA BLA BLA 
BLA BLA BLA BLA BLA BLA BLA BLA BLA BLA BLA BLA BLA BLA BLA BLA BLA BLA BLA BLA 
BLA BLA BLA BLA BLA BLA BLA BLA BLA BLA BLA BLA BLA BLA BLA BLA BLA BLA BLA BLA 
BLA BLA BLA BLA BLA BLA BLA BLA BLA BLA BLA BLA BLA BLA BLA BLA BLA BLA BLA BLA 
BLA BLA BLA BLA BLA BLA BLA BLA BLA BLA BLA BLA BLA BLA BLA BLA BLA BLA BLA BLA 
BLA BLA BLA BLA BLA BLA BLA BLA BLA BLA BLA BLA BLA BLA BLA BLA BLA BLA BLA BLA 
BLA BLA BLA BLA BLA BLA BLA BLA BLA BLA BLA BLA BLA BLA BLA BLA BLA BLA BLA BLA 
BLA BLA BLA BLA BLA BLA BLA BLA BLA BLA BLA BLA BLA BLA BLA BLA BLA BLA BLA BLA 
BLA BLA BLA BLA BLA BLA BLA BLA BLA BLA BLA BLA BLA BLA BLA BLA BLA BLA BLA BLA 
BLA BLA BLA BLA BLA BLA BLA BLA BLA BLA BLA BLA BLA BLA BLA BLA BLA BLA BLA BLA 
BLA BLA BLA BLA BLA BLA BLA BLA BLA BLA BLA BLA BLA BLA BLA BLA BLA BLA BLA BLA 
BLA BLA BLA BLA BLA BLA BLA BLA BLA BLA BLA BLA BLA BLA BLA BLA BLA BLA BLA BLA 
BLA BLA BLA BLA BLA BLA BLA BLA BLA BLA BLA BLA BLA BLA BLA BLA BLA BLA BLA BLA 
BLA BLA BLA BLA BLA BLA BLA BLA BLA BLA BLA BLA BLA BLA BLA BLA BLA BLA BLA BLA 
BLA BLA BLA BLA BLA BLA BLA BLA BLA BLA BLA BLA BLA BLA BLA BLA BLA BLA BLA BLA 
BLA BLA BLA BLA BLA BLA BLA BLA BLA BLA BLA BLA BLA BLA BLA BLA BLA BLA BLA BLA 
BLA BLA BLA BLA BLA BLA BLA BLA BLA BLA BLA BLA BLA BLA BLA BLA BLA BLA BLA BLA 
BLA BLA BLA BLA BLA BLA BLA BLA BLA BLA BLA BLA BLA BLA BLA BLA BLA BLA BLA BLA 
BLA BLA BLA BLA BLA BLA BLA BLA BLA BLA BLA BLA BLA BLA BLA BLA BLA BLA BLA BLA 
BLA BLA BLA BLA BLA BLA BLA BLA BLA BLA BLA BLA BLA BLA BLA BLA BLA BLA BLA BLA 
BLA BLA BLA BLA BLA BLA BLA BLA BLA BLA BLA BLA BLA BLA BLA BLA BLA BLA BLA BLA 
BLA BLA BLA BLA BLA BLA BLA BLA BLA BLA BLA BLA BLA BLA BLA BLA BLA BLA BLA BLA 
BLA BLA BLA BLA BLA BLA BLA BLA BLA BLA BLA BLA BLA BLA BLA BLA BLA BLA BLA BLA 
BLA BLA BLA BLA BLA BLA BLA BLA BLA BLA BLA BLA BLA BLA BLA BLA BLA BLA BLA BLA 
BLA BLA BLA BLA BLA BLA BLA BLA BLA BLA BLA BLA BLA BLA BLA BLA BLA BLA BLA BLA 
BLA BLA BLA BLA BLA BLA BLA BLA BLA BLA BLA BLA BLA BLA BLA BLA BLA BLA BLA BLA 
BLA BLA BLA BLA BLA BLA BLA BLA BLA BLA BLA BLA BLA BLA BLA BLA BLA BLA BLA BLA 
BLA BLA BLA BLA BLA BLA BLA BLA BLA BLA BLA BLA BLA BLA BLA BLA BLA BLA BLA BLA 
BLA BLA BLA BLA BLA BLA BLA BLA BLA BLA BLA BLA BLA BLA BLA BLA BLA BLA BLA BLA 
BLA BLA BLA BLA BLA BLA BLA BLA BLA BLA BLA BLA BLA BLA BLA BLA BLA BLA BLA BLA 
BLA BLA BLA BLA BLA BLA BLA BLA BLA BLA BLA BLA BLA BLA BLA BLA BLA BLA BLA BLA 
BLA BLA BLA BLA BLA BLA BLA BLA BLA BLA BLA BLA BLA BLA BLA BLA BLA BLA BLA BLA 
BLA BLA BLA BLA BLA BLA BLA BLA BLA BLA BLA BLA BLA BLA BLA BLA BLA BLA BLA BLA 
BLA BLA BLA BLA BLA BLA BLA BLA BLA BLA BLA BLA BLA BLA BLA BLA BLA BLA BLA BLA 
BLA BLA BLA BLA BLA BLA BLA BLA BLA BLA BLA BLA BLA BLA BLA BLA BLA BLA BLA BLA 
BLA BLA BLA BLA BLA BLA BLA BLA BLA BLA BLA BLA BLA BLA BLA BLA BLA BLA BLA BLA 
BLA BLA BLA BLA BLA BLA BLA BLA BLA BLA BLA BLA BLA BLA BLA BLA BLA BLA BLA BLA 
BLA BLA BLA BLA BLA BLA BLA BLA BLA BLA BLA BLA BLA BLA BLA BLA BLA BLA BLA BLA 
BLA BLA BLA BLA BLA BLA BLA BLA BLA BLA BLA BLA BLA BLA BLA BLA BLA BLA BLA BLA 
BLA BLA BLA BLA BLA BLA BLA BLA BLA BLA BLA BLA BLA BLA BLA BLA BLA BLA BLA BLA 
BLA BLA BLA BLA BLA BLA BLA BLA BLA BLA BLA BLA BLA BLA BLA BLA BLA BLA BLA BLA 
BLA BLA BLA BLA BLA BLA BLA BLA BLA BLA BLA BLA BLA BLA BLA BLA BLA BLA BLA BLA 
BLA BLA BLA BLA BLA BLA BLA BLA BLA BLA BLA BLA BLA BLA BLA BLA BLA BLA BLA BLA 
BLA BLA BLA BLA BLA BLA BLA BLA BLA BLA BLA BLA BLA BLA BLA BLA BLA BLA BLA BLA 
BLA BLA BLA BLA BLA BLA BLA BLA BLA BLA BLA BLA BLA BLA BLA BLA BLA BLA BLA BLA 
BLA BLA BLA BLA BLA BLA BLA BLA BLA BLA BLA BLA BLA BLA BLA BLA BLA BLA BLA BLA 
BLA BLA BLA BLA BLA BLA BLA BLA BLA BLA BLA BLA BLA BLA BLA BLA BLA BLA BLA BLA 
BLA BLA BLA BLA BLA BLA BLA BLA BLA BLA BLA BLA BLA BLA BLA BLA BLA BLA BLA BLA 
BLA BLA BLA BLA BLA BLA BLA BLA BLA BLA BLA BLA BLA BLA BLA BLA BLA BLA BLA BLA 
BLA BLA BLA BLA BLA BLA BLA BLA BLA BLA BLA BLA BLA BLA BLA BLA BLA BLA BLA BLA 
BLA BLA BLA BLA BLA BLA BLA BLA BLA BLA BLA BLA BLA BLA BLA BLA BLA BLA BLA BLA 
BLA BLA BLA BLA BLA BLA BLA BLA BLA BLA BLA BLA BLA BLA BLA BLA BLA BLA BLA BLA 
BLA BLA BLA BLA BLA BLA BLA BLA BLA BLA BLA BLA BLA BLA BLA BLA BLA BLA BLA BLA 
BLA BLA BLA BLA BLA BLA BLA BLA BLA BLA BLA BLA BLA BLA BLA BLA BLA BLA BLA BLA 
BLA BLA BLA BLA BLA BLA BLA BLA BLA BLA BLA BLA BLA BLA BLA BLA BLA BLA BLA BLA 
BLA BLA BLA BLA BLA BLA BLA BLA BLA BLA BLA BLA BLA BLA BLA BLA BLA BLA BLA BLA 
BLA BLA BLA BLA BLA BLA BLA BLA BLA BLA BLA BLA BLA BLA BLA BLA BLA BLA BLA BLA 
BLA BLA BLA BLA BLA BLA BLA BLA BLA BLA BLA BLA BLA BLA BLA BLA BLA BLA BLA BLA 
BLA BLA BLA BLA BLA BLA BLA BLA BLA BLA BLA BLA BLA BLA BLA BLA BLA BLA BLA BLA 
BLA BLA BLA BLA BLA BLA BLA BLA BLA BLA BLA BLA BLA BLA BLA BLA BLA BLA BLA BLA 
BLA BLA BLA BLA BLA BLA BLA BLA BLA BLA BLA BLA BLA BLA BLA BLA BLA BLA BLA BLA 
BLA BLA BLA BLA BLA BLA BLA BLA BLA BLA BLA BLA BLA BLA BLA BLA BLA BLA BLA BLA 
BLA BLA BLA BLA BLA BLA BLA BLA BLA BLA BLA BLA BLA BLA BLA BLA BLA BLA BLA BLA 
BLA BLA BLA BLA BLA BLA BLA BLA BLA BLA BLA BLA BLA BLA BLA BLA BLA BLA BLA BLA 
BLA BLA BLA BLA BLA BLA BLA BLA BLA BLA BLA BLA BLA BLA BLA BLA BLA BLA BLA BLA 
BLA BLA BLA BLA BLA BLA BLA BLA BLA BLA BLA BLA BLA BLA BLA BLA BLA BLA BLA BLA 
BLA BLA BLA BLA BLA BLA BLA BLA BLA BLA BLA BLA BLA BLA BLA BLA BLA BLA BLA BLA 
BLA BLA BLA BLA BLA BLA BLA BLA BLA BLA BLA BLA BLA BLA BLA BLA BLA BLA BLA BLA 
BLA BLA BLA BLA BLA BLA BLA BLA BLA BLA BLA BLA BLA BLA BLA BLA BLA BLA BLA BLA 
BLA BLA BLA BLA BLA BLA BLA BLA BLA BLA BLA BLA BLA BLA BLA BLA BLA BLA BLA BLA 
BLA BLA BLA BLA BLA BLA BLA BLA BLA BLA BLA BLA BLA BLA BLA BLA BLA BLA BLA BLA 
BLA BLA BLA BLA BLA BLA BLA BLA BLA BLA BLA BLA BLA BLA BLA BLA BLA BLA BLA BLA 
BLA BLA BLA BLA BLA BLA BLA BLA BLA BLA BLA BLA BLA BLA BLA BLA BLA BLA BLA BLA 
BLA BLA BLA BLA BLA BLA BLA BLA BLA BLA BLA BLA BLA BLA BLA BLA BLA BLA BLA BLA 
BLA BLA BLA BLA BLA BLA BLA BLA BLA BLA BLA BLA BLA BLA BLA BLA BLA BLA BLA BLA 
BLA BLA BLA BLA BLA BLA BLA BLA BLA BLA BLA BLA BLA BLA BLA BLA BLA BLA BLA BLA 
BLA BLA BLA BLA BLA BLA BLA BLA BLA BLA BLA BLA BLA BLA BLA BLA BLA BLA BLA BLA 
BLA BLA BLA BLA BLA BLA BLA BLA BLA BLA BLA BLA BLA BLA BLA BLA BLA BLA BLA BLA 
BLA BLA BLA BLA BLA BLA BLA BLA BLA BLA BLA BLA BLA BLA BLA BLA BLA BLA BLA BLA 
BLA BLA BLA BLA BLA BLA BLA BLA BLA BLA BLA BLA BLA BLA BLA BLA BLA BLA BLA BLA 
BLA BLA BLA BLA BLA BLA BLA BLA BLA BLA BLA BLA BLA BLA BLA BLA BLA BLA BLA BLA 
BLA BLA BLA BLA BLA BLA BLA BLA BLA BLA BLA BLA BLA BLA BLA BLA BLA BLA BLA BLA 
BLA BLA BLA BLA BLA BLA BLA BLA BLA BLA BLA BLA BLA BLA BLA BLA BLA BLA BLA BLA 
BLA BLA BLA BLA BLA BLA BLA BLA BLA BLA BLA BLA BLA BLA BLA BLA BLA BLA BLA BLA 
BLA BLA BLA BLA BLA BLA BLA BLA BLA BLA BLA BLA BLA BLA BLA BLA BLA BLA BLA BLA 
BLA BLA BLA BLA BLA BLA BLA BLA BLA BLA BLA BLA BLA BLA BLA BLA BLA BLA BLA BLA 
BLA BLA BLA BLA BLA BLA BLA BLA BLA BLA BLA BLA BLA BLA BLA BLA BLA BLA BLA BLA 
BLA BLA BLA BLA BLA BLA BLA BLA BLA BLA BLA BLA BLA BLA BLA BLA BLA BLA BLA BLA 
BLA BLA BLA BLA BLA BLA BLA BLA BLA BLA BLA BLA BLA BLA BLA BLA BLA BLA BLA BLA 
BLA BLA BLA BLA BLA BLA BLA BLA BLA BLA BLA BLA BLA BLA BLA BLA BLA BLA BLA BLA 
BLA BLA BLA BLA BLA BLA BLA BLA BLA BLA BLA BLA BLA BLA BLA BLA BLA BLA BLA BLA 
BLA BLA BLA BLA BLA BLA BLA BLA BLA BLA BLA BLA BLA BLA BLA BLA BLA BLA BLA BLA 
BLA BLA BLA BLA BLA BLA BLA BLA BLA BLA BLA BLA BLA BLA BLA BLA BLA BLA BLA BLA 
BLA BLA BLA BLA BLA BLA BLA BLA BLA BLA BLA BLA BLA BLA BLA BLA BLA BLA BLA BLA 
BLA BLA BLA BLA BLA BLA BLA BLA BLA BLA BLA BLA BLA BLA BLA BLA BLA BLA BLA BLA 
BLA BLA BLA BLA BLA BLA BLA BLA BLA BLA BLA BLA BLA BLA BLA BLA BLA BLA BLA BLA 
BLA BLA BLA BLA BLA BLA BLA BLA BLA BLA BLA BLA BLA BLA BLA BLA BLA BLA BLA BLA 
BLA BLA BLA BLA BLA BLA BLA BLA BLA BLA BLA BLA BLA BLA BLA BLA BLA BLA BLA BLA 
BLA BLA BLA BLA BLA BLA BLA BLA BLA BLA BLA BLA BLA BLA BLA BLA BLA BLA BLA BLA 
BLA BLA BLA BLA BLA BLA BLA BLA BLA BLA BLA BLA BLA BLA BLA BLA BLA BLA BLA BLA 
BLA BLA BLA BLA BLA BLA BLA BLA BLA BLA BLA BLA BLA BLA BLA BLA BLA BLA BLA BLA 
BLA BLA BLA BLA BLA BLA BLA BLA BLA BLA BLA BLA BLA BLA BLA BLA BLA BLA BLA BLA 
BLA BLA BLA BLA BLA BLA BLA BLA BLA BLA BLA BLA BLA BLA BLA BLA BLA BLA BLA BLA 
BLA BLA BLA BLA BLA BLA BLA BLA BLA BLA BLA BLA BLA BLA BLA BLA BLA BLA BLA BLA 
BLA BLA BLA BLA BLA BLA BLA BLA BLA BLA BLA BLA BLA BLA BLA BLA BLA BLA BLA BLA 
BLA BLA BLA BLA BLA BLA BLA BLA BLA BLA BLA BLA BLA BLA BLA BLA BLA BLA BLA BLA 
BLA BLA BLA BLA BLA BLA BLA BLA BLA BLA BLA BLA BLA BLA BLA BLA BLA BLA BLA BLA 
BLA BLA BLA BLA BLA BLA BLA BLA BLA BLA BLA BLA BLA BLA BLA BLA BLA BLA BLA BLA 
BLA BLA BLA BLA BLA BLA BLA BLA BLA BLA BLA BLA BLA BLA BLA BLA BLA BLA BLA BLA 
BLA BLA BLA BLA BLA BLA BLA BLA BLA BLA BLA BLA BLA BLA BLA BLA BLA BLA BLA BLA 
BLA BLA BLA BLA BLA BLA BLA BLA BLA BLA BLA BLA BLA BLA BLA BLA BLA BLA BLA BLA 
BLA BLA BLA BLA BLA BLA BLA BLA BLA BLA BLA BLA BLA BLA BLA BLA BLA BLA BLA BLA 
BLA BLA BLA BLA BLA BLA BLA BLA BLA BLA BLA BLA BLA BLA BLA BLA BLA BLA BLA BLA 
BLA BLA BLA BLA BLA BLA BLA BLA BLA BLA BLA BLA BLA BLA BLA BLA BLA BLA BLA BLA 
BLA BLA BLA BLA BLA BLA BLA BLA BLA BLA BLA BLA BLA BLA BLA BLA BLA BLA BLA BLA 
BLA BLA BLA BLA BLA BLA BLA BLA BLA BLA BLA BLA BLA BLA BLA BLA BLA BLA BLA BLA 
BLA BLA BLA BLA BLA BLA BLA BLA BLA BLA BLA BLA BLA BLA BLA BLA BLA BLA BLA BLA 
BLA BLA BLA BLA BLA BLA BLA BLA BLA BLA BLA BLA BLA BLA BLA BLA BLA BLA BLA BLA 
BLA BLA BLA BLA BLA BLA BLA BLA BLA BLA BLA BLA BLA BLA BLA BLA BLA BLA BLA BLA 
BLA BLA BLA BLA BLA BLA BLA BLA BLA BLA BLA BLA BLA BLA BLA BLA BLA BLA BLA BLA 
BLA BLA BLA BLA BLA BLA BLA BLA BLA BLA BLA BLA BLA BLA BLA BLA BLA BLA BLA BLA 
BLA BLA BLA BLA BLA BLA BLA BLA BLA BLA BLA BLA BLA BLA BLA BLA BLA BLA BLA BLA 
BLA BLA BLA BLA BLA BLA BLA BLA BLA BLA BLA BLA BLA BLA BLA BLA BLA BLA BLA BLA 
BLA BLA BLA BLA BLA BLA BLA BLA BLA BLA BLA BLA BLA BLA BLA BLA BLA BLA BLA BLA 
BLA BLA BLA BLA BLA BLA BLA BLA BLA BLA BLA BLA BLA BLA BLA BLA BLA BLA BLA BLA 
BLA BLA BLA BLA BLA BLA BLA BLA BLA BLA BLA BLA BLA BLA BLA BLA BLA BLA BLA BLA 
BLA BLA BLA BLA BLA BLA BLA BLA BLA BLA BLA BLA BLA BLA BLA BLA BLA BLA BLA BLA 
BLA BLA BLA BLA BLA BLA BLA BLA BLA BLA BLA BLA BLA BLA BLA BLA BLA BLA BLA BLA 
BLA BLA BLA BLA BLA BLA BLA BLA BLA BLA BLA BLA BLA BLA BLA BLA BLA BLA BLA BLA 
BLA BLA BLA BLA BLA BLA BLA BLA BLA BLA BLA BLA BLA BLA BLA BLA BLA BLA BLA BLA 
BLA BLA BLA BLA BLA BLA BLA BLA BLA BLA BLA BLA BLA BLA BLA BLA BLA BLA BLA BLA 
BLA BLA BLA BLA BLA BLA BLA BLA BLA BLA BLA BLA BLA BLA BLA BLA BLA BLA BLA BLA 
BLA BLA BLA BLA BLA BLA BLA BLA BLA BLA BLA BLA BLA BLA BLA BLA BLA BLA BLA BLA 
BLA BLA BLA BLA BLA BLA BLA BLA BLA BLA BLA BLA BLA BLA BLA BLA BLA BLA BLA BLA 
BLA BLA BLA BLA BLA BLA BLA BLA BLA BLA BLA BLA BLA BLA BLA BLA BLA BLA BLA BLA 
BLA BLA BLA BLA BLA BLA BLA BLA BLA BLA BLA BLA BLA BLA BLA BLA BLA BLA BLA BLA 
BLA BLA BLA BLA BLA BLA BLA BLA BLA BLA BLA BLA BLA BLA BLA BLA BLA BLA BLA BLA 
BLA BLA BLA BLA BLA BLA BLA BLA BLA BLA BLA BLA BLA BLA BLA BLA BLA BLA BLA BLA 
BLA BLA BLA BLA BLA BLA BLA BLA BLA BLA BLA BLA BLA BLA BLA BLA BLA BLA BLA BLA 
BLA BLA BLA BLA BLA BLA BLA BLA BLA BLA BLA BLA BLA BLA BLA BLA BLA BLA BLA BLA 
BLA BLA BLA BLA BLA BLA BLA BLA BLA BLA BLA BLA BLA BLA BLA BLA BLA BLA BLA BLA 
BLA BLA BLA BLA BLA BLA BLA BLA BLA BLA BLA BLA BLA BLA BLA BLA BLA BLA BLA BLA 
BLA BLA BLA BLA BLA BLA BLA BLA BLA BLA BLA BLA BLA BLA BLA BLA BLA BLA BLA BLA 
BLA BLA BLA BLA BLA BLA BLA BLA BLA BLA BLA BLA BLA BLA BLA BLA BLA BLA BLA BLA 
BLA BLA BLA BLA BLA BLA BLA BLA BLA BLA BLA BLA BLA BLA BLA BLA BLA BLA BLA BLA 
BLA BLA BLA BLA BLA BLA BLA BLA BLA BLA BLA BLA BLA BLA BLA BLA BLA BLA BLA BLA 
BLA BLA BLA BLA BLA BLA BLA BLA BLA BLA BLA BLA BLA BLA BLA BLA BLA BLA BLA BLA 
BLA BLA BLA BLA BLA BLA BLA BLA BLA BLA BLA BLA BLA BLA BLA BLA BLA BLA BLA BLA 
BLA BLA BLA BLA BLA BLA BLA BLA BLA BLA BLA BLA BLA BLA BLA BLA BLA BLA BLA BLA 
BLA BLA BLA BLA BLA BLA BLA BLA BLA BLA BLA BLA BLA BLA BLA BLA BLA BLA BLA BLA 
BLA BLA BLA BLA BLA BLA BLA BLA BLA BLA BLA BLA BLA BLA BLA BLA BLA BLA BLA BLA 
BLA BLA BLA BLA BLA BLA BLA BLA BLA BLA BLA BLA BLA BLA BLA BLA BLA BLA BLA BLA 
BLA BLA BLA BLA BLA BLA BLA BLA BLA BLA BLA BLA BLA BLA BLA BLA BLA BLA BLA BLA 
BLA BLA BLA BLA BLA BLA BLA BLA BLA BLA BLA BLA BLA BLA BLA BLA BLA BLA BLA BLA 
BLA BLA BLA BLA BLA BLA BLA BLA BLA BLA BLA BLA BLA BLA BLA BLA BLA BLA BLA BLA 
BLA BLA BLA BLA BLA BLA BLA BLA BLA BLA BLA BLA BLA BLA BLA BLA BLA BLA BLA BLA 
BLA BLA BLA BLA BLA BLA BLA BLA BLA BLA BLA BLA BLA BLA BLA BLA BLA BLA BLA BLA 
BLA BLA BLA BLA BLA BLA BLA BLA BLA BLA BLA BLA BLA BLA BLA BLA BLA BLA BLA BLA 
BLA BLA BLA BLA BLA BLA BLA BLA BLA BLA BLA BLA BLA BLA BLA BLA BLA BLA BLA BLA 
BLA BLA BLA BLA BLA BLA BLA BLA BLA BLA BLA BLA BLA BLA BLA BLA BLA BLA BLA BLA 
BLA BLA BLA BLA BLA BLA BLA BLA BLA BLA BLA BLA BLA BLA BLA BLA BLA BLA BLA BLA 
BLA BLA BLA BLA BLA BLA BLA BLA BLA BLA BLA BLA BLA BLA BLA BLA BLA BLA BLA BLA 
BLA BLA BLA BLA BLA BLA BLA BLA BLA BLA BLA BLA BLA BLA BLA BLA BLA BLA BLA BLA 
BLA BLA BLA BLA BLA BLA BLA BLA BLA BLA BLA BLA BLA BLA BLA BLA BLA BLA BLA BLA 
BLA BLA BLA BLA BLA BLA BLA BLA BLA BLA BLA BLA BLA BLA BLA BLA BLA BLA BLA BLA 
BLA BLA BLA BLA BLA BLA BLA BLA BLA BLA BLA BLA BLA BLA BLA BLA BLA BLA BLA BLA 
BLA BLA BLA BLA BLA BLA BLA BLA BLA BLA BLA BLA BLA BLA BLA BLA BLA BLA BLA BLA 
BLA BLA BLA BLA BLA BLA BLA BLA BLA BLA BLA BLA BLA BLA BLA BLA BLA BLA BLA BLA 
BLA BLA BLA BLA BLA BLA BLA BLA BLA BLA BLA BLA BLA BLA BLA BLA BLA BLA BLA BLA 
BLA BLA BLA BLA BLA BLA BLA BLA BLA BLA BLA BLA BLA BLA BLA BLA BLA BLA BLA BLA 
BLA BLA BLA BLA BLA BLA BLA BLA BLA BLA BLA BLA BLA BLA BLA BLA BLA BLA BLA BLA 
BLA BLA BLA BLA BLA BLA BLA BLA BLA BLA BLA BLA BLA BLA BLA BLA BLA BLA BLA BLA 
BLA BLA BLA BLA BLA BLA BLA BLA BLA BLA BLA BLA BLA BLA BLA BLA BLA BLA BLA BLA 
BLA BLA BLA BLA BLA BLA BLA BLA BLA BLA BLA BLA BLA BLA BLA BLA BLA BLA BLA BLA 
BLA BLA BLA BLA BLA BLA BLA BLA BLA BLA BLA BLA BLA BLA BLA BLA BLA BLA BLA BLA 
BLA BLA BLA BLA BLA BLA BLA BLA BLA BLA BLA BLA BLA BLA BLA BLA BLA BLA BLA BLA 
BLA BLA BLA BLA BLA BLA BLA BLA BLA BLA BLA BLA BLA BLA BLA BLA BLA BLA BLA BLA 
BLA BLA BLA BLA BLA BLA BLA BLA BLA BLA BLA BLA BLA BLA BLA BLA BLA BLA BLA BLA 
BLA BLA BLA BLA BLA BLA BLA BLA BLA BLA BLA BLA BLA BLA BLA BLA BLA BLA BLA BLA 
BLA BLA BLA BLA BLA BLA BLA BLA BLA BLA BLA BLA BLA BLA BLA BLA BLA BLA BLA BLA 
BLA BLA BLA BLA BLA BLA BLA BLA BLA BLA BLA BLA BLA BLA BLA BLA BLA BLA BLA BLA 
BLA BLA BLA BLA BLA BLA BLA BLA BLA BLA BLA BLA BLA BLA BLA BLA BLA BLA BLA BLA 
BLA BLA BLA BLA BLA BLA BLA BLA BLA BLA BLA BLA BLA BLA BLA BLA BLA BLA BLA BLA 
BLA BLA BLA BLA BLA BLA BLA BLA BLA BLA BLA BLA BLA BLA BLA BLA BLA BLA BLA BLA 
BLA BLA BLA BLA BLA BLA BLA BLA BLA BLA BLA BLA BLA BLA BLA BLA BLA BLA BLA BLA 
BLA BLA BLA BLA BLA BLA BLA BLA BLA BLA BLA BLA BLA BLA BLA BLA BLA BLA BLA BLA 
BLA BLA BLA BLA BLA BLA BLA BLA BLA BLA BLA BLA BLA BLA BLA BLA BLA BLA BLA BLA 
BLA BLA BLA BLA BLA BLA BLA BLA BLA BLA BLA BLA BLA BLA BLA BLA BLA BLA BLA BLA 
BLA BLA BLA BLA BLA BLA BLA BLA BLA BLA BLA BLA BLA BLA BLA BLA BLA BLA BLA BLA 
BLA BLA BLA BLA BLA BLA BLA BLA BLA BLA BLA BLA BLA BLA BLA BLA BLA BLA BLA BLA 
BLA BLA BLA BLA BLA BLA BLA BLA BLA BLA BLA BLA BLA BLA BLA BLA BLA BLA BLA BLA 
BLA BLA BLA BLA BLA BLA BLA BLA BLA BLA BLA BLA BLA BLA BLA BLA BLA BLA BLA BLA 
BLA BLA BLA BLA BLA BLA BLA BLA BLA BLA BLA BLA BLA BLA BLA BLA BLA BLA BLA BLA 
BLA BLA BLA BLA BLA BLA BLA BLA BLA BLA BLA BLA BLA BLA BLA BLA BLA BLA BLA BLA 
BLA BLA BLA BLA BLA BLA BLA BLA BLA BLA BLA BLA BLA BLA BLA BLA BLA BLA BLA BLA 
BLA BLA BLA BLA BLA BLA BLA BLA BLA BLA BLA BLA BLA BLA BLA BLA BLA BLA BLA BLA 
BLA BLA BLA BLA BLA BLA BLA BLA BLA BLA BLA BLA BLA BLA BLA BLA BLA BLA BLA BLA 
BLA BLA BLA BLA BLA BLA BLA BLA BLA BLA BLA BLA BLA BLA BLA BLA BLA BLA BLA BLA 
BLA BLA BLA BLA BLA BLA BLA BLA BLA BLA BLA BLA BLA BLA BLA BLA BLA BLA BLA BLA 
BLA BLA BLA BLA BLA BLA BLA BLA BLA BLA BLA BLA BLA BLA BLA BLA BLA BLA BLA BLA 
BLA BLA BLA BLA BLA BLA BLA BLA BLA BLA BLA BLA BLA BLA BLA BLA BLA BLA BLA BLA 
BLA BLA BLA BLA BLA BLA BLA BLA BLA BLA BLA BLA BLA BLA BLA BLA BLA BLA BLA BLA 
BLA BLA BLA BLA BLA BLA BLA BLA BLA BLA BLA BLA BLA BLA BLA BLA BLA BLA BLA BLA 
BLA BLA BLA BLA BLA BLA BLA BLA BLA BLA BLA BLA BLA BLA BLA BLA BLA BLA BLA BLA 
BLA BLA BLA BLA BLA BLA BLA BLA BLA BLA BLA BLA BLA BLA BLA BLA BLA BLA BLA BLA 
BLA BLA BLA BLA BLA BLA BLA BLA BLA BLA BLA BLA BLA BLA BLA BLA BLA BLA BLA BLA 
BLA BLA BLA BLA BLA BLA BLA BLA BLA BLA BLA BLA BLA BLA BLA BLA BLA BLA BLA BLA 
BLA BLA BLA BLA BLA BLA BLA BLA BLA BLA BLA BLA BLA BLA BLA BLA BLA BLA BLA BLA 
BLA BLA BLA BLA BLA BLA BLA BLA BLA BLA BLA BLA BLA BLA BLA BLA BLA BLA BLA BLA 
BLA BLA BLA BLA BLA BLA BLA BLA BLA BLA BLA BLA BLA BLA BLA BLA BLA BLA BLA BLA 
BLA BLA BLA BLA BLA BLA BLA BLA BLA BLA BLA BLA BLA BLA BLA BLA BLA BLA BLA BLA 
BLA BLA BLA BLA BLA BLA BLA BLA BLA BLA BLA BLA BLA BLA BLA BLA BLA BLA BLA BLA 
BLA BLA BLA BLA BLA BLA BLA BLA BLA BLA BLA BLA BLA BLA BLA BLA BLA BLA BLA BLA 
BLA BLA BLA BLA BLA BLA BLA BLA BLA BLA BLA BLA BLA BLA BLA BLA BLA BLA BLA BLA 
BLA BLA BLA BLA BLA BLA BLA BLA BLA BLA BLA BLA BLA BLA BLA BLA BLA BLA BLA BLA 
BLA BLA BLA BLA BLA BLA BLA BLA BLA BLA BLA BLA BLA BLA BLA BLA BLA BLA BLA BLA 
BLA BLA BLA BLA BLA BLA BLA BLA BLA BLA BLA BLA BLA BLA BLA BLA BLA BLA BLA BLA 
BLA BLA BLA BLA BLA BLA BLA BLA BLA BLA BLA BLA BLA BLA BLA BLA BLA BLA BLA BLA 
BLA BLA BLA BLA BLA BLA BLA BLA BLA BLA BLA BLA BLA BLA BLA BLA BLA BLA BLA BLA 
BLA BLA BLA BLA BLA BLA BLA BLA BLA BLA BLA BLA BLA BLA BLA BLA BLA BLA BLA BLA 
BLA BLA BLA BLA BLA BLA BLA BLA BLA BLA BLA BLA BLA BLA BLA BLA BLA BLA BLA BLA 
BLA BLA BLA BLA BLA BLA BLA BLA BLA BLA BLA BLA BLA BLA BLA BLA BLA BLA BLA BLA 
BLA BLA BLA BLA BLA BLA BLA BLA BLA BLA BLA BLA BLA BLA BLA BLA BLA BLA BLA BLA 
BLA BLA BLA BLA BLA BLA BLA BLA BLA BLA BLA BLA BLA BLA BLA BLA BLA BLA BLA BLA 
BLA BLA BLA BLA BLA BLA BLA BLA BLA BLA BLA BLA BLA BLA BLA BLA BLA BLA BLA BLA 
BLA BLA BLA BLA BLA BLA BLA BLA BLA BLA BLA BLA BLA BLA BLA BLA BLA BLA BLA BLA 
BLA BLA BLA BLA BLA BLA BLA BLA BLA BLA BLA BLA BLA BLA BLA BLA BLA BLA BLA BLA 
BLA BLA BLA BLA BLA BLA BLA BLA BLA BLA BLA BLA BLA BLA BLA BLA BLA BLA BLA BLA 
BLA BLA BLA BLA BLA BLA BLA BLA BLA BLA BLA BLA BLA BLA BLA BLA BLA BLA BLA BLA 
BLA BLA BLA BLA BLA BLA BLA BLA BLA BLA BLA BLA BLA BLA BLA BLA BLA BLA BLA BLA 
BLA BLA BLA BLA BLA BLA BLA BLA BLA BLA BLA BLA BLA BLA BLA BLA BLA BLA BLA BLA 
BLA BLA BLA BLA BLA BLA BLA BLA BLA BLA BLA BLA BLA BLA BLA BLA BLA BLA BLA BLA 
BLA BLA BLA BLA BLA BLA BLA BLA BLA BLA BLA BLA BLA BLA BLA BLA BLA BLA BLA BLA 
BLA BLA BLA BLA BLA BLA BLA BLA BLA BLA BLA BLA BLA BLA BLA BLA BLA BLA BLA BLA 
BLA BLA BLA BLA BLA BLA BLA BLA BLA BLA BLA BLA BLA BLA BLA BLA BLA BLA BLA BLA 
BLA BLA BLA BLA BLA BLA BLA BLA BLA BLA BLA BLA BLA BLA BLA BLA BLA BLA BLA BLA 
BLA BLA BLA BLA BLA BLA BLA BLA BLA BLA BLA BLA BLA BLA BLA BLA BLA BLA BLA BLA 
BLA BLA BLA BLA BLA BLA BLA BLA BLA BLA BLA BLA BLA BLA BLA BLA BLA BLA BLA BLA 
BLA BLA BLA BLA BLA BLA BLA BLA BLA BLA BLA BLA BLA BLA BLA BLA BLA BLA BLA BLA 
BLA BLA BLA BLA BLA BLA BLA BLA BLA BLA BLA BLA BLA BLA BLA BLA BLA BLA BLA BLA 
BLA BLA BLA BLA BLA BLA BLA BLA BLA BLA BLA BLA BLA BLA BLA BLA BLA BLA BLA BLA 
BLA BLA BLA BLA BLA BLA BLA BLA BLA BLA BLA BLA BLA BLA BLA BLA BLA BLA BLA BLA 
BLA BLA BLA BLA BLA BLA BLA BLA BLA BLA BLA BLA BLA BLA BLA BLA BLA BLA BLA BLA 
BLA BLA BLA BLA BLA BLA BLA BLA BLA BLA BLA BLA BLA BLA BLA BLA BLA BLA BLA BLA 
BLA BLA BLA BLA BLA BLA BLA BLA BLA BLA BLA BLA BLA BLA BLA BLA BLA BLA BLA BLA 
BLA BLA BLA BLA BLA BLA BLA BLA BLA BLA BLA BLA BLA BLA BLA BLA BLA BLA BLA BLA 
BLA BLA BLA BLA BLA BLA BLA BLA BLA BLA BLA BLA BLA BLA BLA BLA BLA BLA BLA BLA 
BLA BLA BLA BLA BLA BLA BLA BLA BLA BLA BLA BLA BLA BLA BLA BLA BLA BLA BLA BLA 
BLA BLA BLA BLA BLA BLA BLA BLA BLA BLA BLA BLA BLA BLA BLA BLA BLA BLA BLA BLA 
BLA BLA BLA BLA BLA BLA BLA BLA BLA BLA BLA BLA BLA BLA BLA BLA BLA BLA BLA BLA 
BLA BLA BLA BLA BLA BLA BLA BLA BLA BLA BLA BLA BLA BLA BLA BLA BLA BLA BLA BLA 
BLA BLA BLA BLA BLA BLA BLA BLA BLA BLA BLA BLA BLA BLA BLA BLA BLA BLA BLA BLA 
BLA BLA BLA BLA BLA BLA BLA BLA BLA BLA BLA BLA BLA BLA BLA BLA BLA BLA BLA BLA 
BLA BLA BLA BLA BLA BLA BLA BLA BLA BLA BLA BLA BLA BLA BLA BLA BLA BLA BLA BLA 
BLA BLA BLA BLA BLA BLA BLA BLA BLA BLA BLA BLA BLA BLA BLA BLA BLA BLA BLA BLA 
BLA BLA BLA BLA BLA BLA BLA BLA BLA BLA BLA BLA BLA BLA BLA BLA BLA BLA BLA BLA 
BLA BLA BLA BLA BLA BLA BLA BLA BLA BLA BLA BLA BLA BLA BLA BLA BLA BLA BLA BLA 
BLA BLA BLA BLA BLA BLA BLA BLA BLA BLA BLA BLA BLA BLA BLA BLA BLA BLA BLA BLA 
BLA BLA BLA BLA BLA BLA BLA BLA BLA BLA BLA BLA BLA BLA BLA BLA BLA BLA BLA BLA 
BLA BLA BLA BLA BLA BLA BLA BLA BLA BLA BLA BLA BLA BLA BLA BLA BLA BLA BLA BLA 
BLA BLA BLA BLA BLA BLA BLA BLA BLA BLA BLA BLA BLA BLA BLA BLA BLA BLA BLA BLA 
BLA BLA BLA BLA BLA BLA BLA BLA BLA BLA BLA BLA BLA BLA BLA BLA BLA BLA BLA BLA 
BLA BLA BLA BLA BLA BLA BLA BLA BLA BLA BLA BLA BLA BLA BLA BLA BLA BLA BLA BLA 
BLA BLA BLA BLA BLA BLA BLA BLA BLA BLA BLA BLA BLA BLA BLA BLA BLA BLA BLA BLA 
BLA BLA BLA BLA BLA BLA BLA BLA BLA BLA BLA BLA BLA BLA BLA BLA BLA BLA BLA BLA 
BLA BLA BLA BLA BLA BLA BLA BLA BLA BLA BLA BLA BLA BLA BLA BLA BLA BLA BLA BLA 
BLA BLA BLA BLA BLA BLA BLA BLA BLA BLA BLA BLA BLA BLA BLA BLA BLA BLA BLA BLA 
BLA BLA BLA BLA BLA BLA BLA BLA BLA BLA BLA BLA BLA BLA BLA BLA BLA BLA BLA BLA 
BLA BLA BLA BLA BLA BLA BLA BLA BLA BLA BLA BLA BLA BLA BLA BLA BLA BLA BLA BLA 
BLA BLA BLA BLA BLA BLA BLA BLA BLA BLA BLA BLA BLA BLA BLA BLA BLA BLA BLA BLA 
BLA BLA BLA BLA BLA BLA BLA BLA BLA BLA BLA BLA BLA BLA BLA BLA BLA BLA BLA BLA 
BLA BLA BLA BLA BLA BLA BLA BLA BLA BLA BLA BLA BLA BLA BLA BLA BLA BLA BLA BLA 
BLA BLA BLA BLA BLA BLA BLA BLA BLA BLA BLA BLA BLA BLA BLA BLA BLA BLA BLA BLA 
BLA BLA BLA BLA BLA BLA BLA BLA BLA BLA BLA BLA BLA BLA BLA BLA BLA BLA BLA BLA 
BLA BLA BLA BLA BLA BLA BLA BLA BLA BLA BLA BLA BLA BLA BLA BLA BLA BLA BLA BLA 
BLA BLA BLA BLA BLA BLA BLA BLA BLA BLA BLA BLA BLA BLA BLA BLA BLA BLA BLA BLA 
BLA BLA BLA BLA BLA BLA BLA BLA BLA BLA BLA BLA BLA BLA BLA BLA BLA BLA BLA BLA 
BLA BLA BLA BLA BLA BLA BLA BLA BLA BLA BLA BLA BLA BLA BLA BLA BLA BLA BLA BLA 
BLA BLA BLA BLA BLA BLA BLA BLA BLA BLA BLA BLA BLA BLA BLA BLA BLA BLA BLA BLA 
BLA BLA BLA BLA BLA BLA BLA BLA BLA BLA BLA BLA BLA BLA BLA BLA BLA BLA BLA BLA 
BLA BLA BLA BLA BLA BLA BLA BLA BLA BLA BLA BLA BLA BLA BLA BLA BLA BLA BLA BLA 
BLA BLA BLA BLA BLA BLA BLA BLA BLA BLA BLA BLA BLA BLA BLA BLA BLA BLA BLA BLA 
BLA BLA BLA BLA BLA BLA BLA BLA BLA BLA BLA BLA BLA BLA BLA BLA BLA BLA BLA BLA 
BLA BLA BLA BLA BLA BLA BLA BLA BLA BLA BLA BLA BLA BLA BLA BLA BLA BLA BLA BLA 
BLA BLA BLA BLA BLA BLA BLA BLA BLA BLA BLA BLA BLA BLA BLA BLA BLA BLA BLA BLA 
BLA BLA BLA BLA BLA BLA BLA BLA BLA BLA BLA BLA BLA BLA BLA BLA BLA BLA BLA BLA 
BLA BLA BLA BLA BLA BLA BLA BLA BLA BLA BLA BLA BLA BLA BLA BLA BLA BLA BLA BLA 
BLA BLA BLA BLA BLA BLA BLA BLA BLA BLA BLA BLA BLA BLA BLA BLA BLA BLA BLA BLA 
BLA BLA BLA BLA BLA BLA BLA BLA BLA BLA BLA BLA BLA BLA BLA BLA BLA BLA BLA BLA 
BLA BLA BLA BLA BLA BLA BLA BLA BLA BLA BLA BLA BLA BLA BLA BLA BLA BLA BLA BLA 
BLA BLA BLA BLA BLA BLA BLA BLA BLA BLA BLA BLA BLA BLA BLA BLA BLA BLA BLA BLA 
BLA BLA BLA BLA BLA BLA BLA BLA BLA BLA BLA BLA BLA BLA BLA BLA BLA BLA BLA BLA 
BLA BLA BLA BLA BLA BLA BLA BLA BLA BLA BLA BLA BLA BLA BLA BLA BLA BLA BLA BLA 
BLA BLA BLA BLA BLA BLA BLA BLA BLA BLA BLA BLA BLA BLA BLA BLA BLA BLA BLA BLA 
BLA BLA BLA BLA BLA BLA BLA BLA BLA BLA BLA BLA BLA BLA BLA BLA BLA BLA BLA BLA 
BLA BLA BLA BLA BLA BLA BLA BLA BLA BLA BLA BLA BLA BLA BLA BLA BLA BLA BLA BLA 
BLA BLA BLA BLA BLA BLA BLA BLA BLA BLA BLA BLA BLA BLA BLA BLA BLA BLA BLA BLA 
BLA BLA BLA BLA BLA BLA BLA BLA BLA BLA BLA BLA BLA BLA BLA BLA BLA BLA BLA BLA 
BLA BLA BLA BLA BLA BLA BLA BLA BLA BLA BLA BLA BLA BLA BLA BLA BLA BLA BLA BLA 
BLA BLA BLA BLA BLA BLA BLA BLA BLA BLA BLA BLA BLA BLA BLA BLA BLA BLA BLA BLA 
BLA BLA BLA BLA BLA BLA BLA BLA BLA BLA BLA BLA BLA BLA BLA BLA BLA BLA BLA BLA 
BLA BLA BLA BLA BLA BLA BLA BLA BLA BLA BLA BLA BLA BLA BLA BLA BLA BLA BLA BLA 
BLA BLA BLA BLA BLA BLA BLA BLA BLA BLA BLA BLA BLA BLA BLA BLA BLA BLA BLA BLA 
BLA BLA BLA BLA BLA BLA BLA BLA BLA BLA BLA BLA BLA BLA BLA BLA BLA BLA BLA BLA 
BLA BLA BLA BLA BLA BLA BLA BLA BLA BLA BLA BLA BLA BLA BLA BLA BLA BLA BLA BLA 
BLA BLA BLA BLA BLA BLA BLA BLA BLA BLA BLA BLA BLA BLA BLA BLA BLA BLA BLA BLA 
BLA BLA BLA BLA BLA BLA BLA BLA BLA BLA BLA BLA BLA BLA BLA BLA BLA BLA BLA BLA 
BLA BLA BLA BLA BLA BLA BLA BLA BLA BLA BLA BLA BLA BLA BLA BLA BLA BLA BLA BLA 
BLA BLA BLA BLA BLA BLA BLA BLA BLA BLA BLA BLA BLA BLA BLA BLA BLA BLA BLA BLA 
BLA BLA BLA BLA BLA BLA BLA BLA BLA BLA BLA BLA BLA BLA BLA BLA BLA BLA BLA BLA 
BLA BLA BLA BLA BLA BLA BLA BLA BLA BLA BLA BLA BLA BLA BLA BLA BLA BLA BLA BLA 
BLA BLA BLA BLA BLA BLA BLA BLA BLA BLA BLA BLA BLA BLA BLA BLA BLA BLA BLA BLA 
BLA BLA BLA BLA BLA BLA BLA BLA BLA BLA BLA BLA BLA BLA BLA BLA BLA BLA BLA BLA 
BLA BLA BLA BLA BLA BLA BLA BLA BLA BLA BLA BLA BLA BLA BLA BLA BLA BLA BLA BLA 
BLA BLA BLA BLA BLA BLA BLA BLA BLA BLA BLA BLA BLA BLA BLA BLA BLA BLA BLA BLA 
BLA BLA BLA BLA BLA BLA BLA BLA BLA BLA BLA BLA BLA BLA BLA BLA BLA BLA BLA BLA 
BLA BLA BLA BLA BLA BLA BLA BLA BLA BLA BLA BLA BLA BLA BLA BLA BLA BLA BLA BLA 
BLA BLA BLA BLA BLA BLA BLA BLA BLA BLA BLA BLA BLA BLA BLA BLA BLA BLA BLA BLA 
BLA BLA BLA BLA BLA BLA BLA BLA BLA BLA BLA BLA BLA BLA BLA BLA BLA BLA BLA BLA 
BLA BLA BLA BLA BLA BLA BLA BLA BLA BLA BLA BLA BLA BLA BLA BLA BLA BLA BLA BLA 
BLA BLA BLA BLA BLA BLA BLA BLA BLA BLA BLA BLA BLA BLA BLA BLA BLA BLA BLA BLA 
BLA BLA BLA BLA BLA BLA BLA BLA BLA BLA BLA BLA BLA BLA BLA BLA BLA BLA BLA BLA 
BLA BLA BLA BLA BLA BLA BLA BLA BLA BLA BLA BLA BLA BLA BLA BLA BLA BLA BLA BLA 
BLA BLA BLA BLA BLA BLA BLA BLA BLA BLA BLA BLA BLA BLA BLA BLA BLA BLA BLA BLA 
BLA BLA BLA BLA BLA BLA BLA BLA BLA BLA BLA BLA BLA BLA BLA BLA BLA BLA BLA BLA 
BLA BLA BLA BLA BLA BLA BLA BLA BLA BLA BLA BLA BLA BLA BLA BLA BLA BLA BLA BLA 
BLA BLA BLA BLA BLA BLA BLA BLA BLA BLA BLA BLA BLA BLA BLA BLA BLA BLA BLA BLA 
BLA BLA BLA BLA BLA BLA BLA BLA BLA BLA BLA BLA BLA BLA BLA BLA BLA BLA BLA BLA 
BLA BLA BLA BLA BLA BLA BLA BLA BLA BLA BLA BLA BLA BLA BLA BLA BLA BLA BLA BLA 
BLA BLA BLA BLA BLA BLA BLA BLA BLA BLA BLA BLA BLA BLA BLA BLA BLA BLA BLA BLA 
BLA BLA BLA BLA BLA BLA BLA BLA BLA BLA BLA BLA BLA BLA BLA BLA BLA BLA BLA BLA 
BLA BLA BLA BLA BLA BLA BLA BLA BLA BLA BLA BLA BLA BLA BLA BLA BLA BLA BLA BLA 
BLA BLA BLA BLA BLA BLA BLA BLA BLA BLA BLA BLA BLA BLA BLA BLA BLA BLA BLA BLA 
BLA BLA BLA BLA BLA BLA BLA BLA BLA BLA BLA BLA BLA BLA BLA BLA BLA BLA BLA BLA 
BLA BLA BLA BLA BLA BLA BLA BLA BLA BLA BLA BLA BLA BLA BLA BLA BLA BLA BLA BLA 
BLA BLA BLA BLA BLA BLA BLA BLA BLA BLA BLA BLA BLA BLA BLA BLA BLA BLA BLA BLA 
BLA BLA BLA BLA BLA BLA BLA BLA BLA BLA BLA BLA BLA BLA BLA BLA BLA BLA BLA BLA 
BLA BLA BLA BLA BLA BLA BLA BLA BLA BLA BLA BLA BLA BLA BLA BLA BLA BLA BLA BLA 
BLA BLA BLA BLA BLA BLA BLA BLA BLA BLA BLA BLA BLA BLA BLA BLA BLA BLA BLA BLA 
BLA BLA BLA BLA BLA BLA BLA BLA BLA BLA BLA BLA BLA BLA BLA BLA BLA BLA BLA BLA 
BLA BLA BLA BLA BLA BLA BLA BLA BLA BLA BLA BLA BLA BLA BLA BLA BLA BLA BLA BLA 
BLA BLA BLA BLA BLA BLA BLA BLA BLA BLA BLA BLA BLA BLA BLA BLA BLA BLA BLA BLA 
BLA BLA BLA BLA BLA BLA BLA BLA BLA BLA BLA BLA BLA BLA BLA BLA BLA BLA BLA BLA 
BLA BLA BLA BLA BLA BLA BLA BLA BLA BLA BLA BLA BLA BLA BLA BLA BLA BLA BLA BLA 
BLA BLA BLA BLA BLA BLA BLA BLA BLA BLA BLA BLA BLA BLA BLA BLA BLA BLA BLA BLA 
BLA BLA BLA BLA BLA BLA BLA BLA BLA BLA BLA BLA BLA BLA BLA BLA BLA BLA BLA BLA 
BLA BLA BLA BLA BLA BLA BLA BLA BLA BLA BLA BLA BLA BLA BLA BLA BLA BLA BLA BLA 
BLA BLA BLA BLA BLA BLA BLA BLA BLA BLA BLA BLA BLA BLA BLA BLA BLA BLA BLA BLA 
BLA BLA BLA BLA BLA BLA BLA BLA BLA BLA BLA BLA BLA BLA BLA BLA BLA BLA BLA BLA 
BLA BLA BLA BLA BLA BLA BLA BLA BLA BLA BLA BLA BLA BLA BLA BLA BLA BLA BLA BLA 
BLA BLA BLA BLA BLA BLA BLA BLA BLA BLA BLA BLA BLA BLA BLA BLA BLA BLA BLA BLA 
BLA BLA BLA BLA BLA BLA BLA BLA BLA BLA BLA BLA BLA BLA BLA BLA BLA BLA BLA BLA 
BLA BLA BLA BLA BLA BLA BLA BLA BLA BLA BLA BLA BLA BLA BLA BLA BLA BLA BLA BLA 
BLA BLA BLA BLA BLA BLA BLA BLA BLA BLA BLA BLA BLA BLA BLA BLA BLA BLA BLA BLA 
BLA BLA BLA BLA BLA BLA BLA BLA BLA BLA BLA BLA BLA BLA BLA BLA BLA BLA BLA BLA 
BLA BLA BLA BLA BLA BLA BLA BLA BLA BLA BLA BLA BLA BLA BLA BLA BLA BLA BLA BLA 
BLA BLA BLA BLA BLA BLA BLA BLA BLA BLA BLA BLA BLA BLA BLA BLA BLA BLA BLA BLA 
BLA BLA BLA BLA BLA BLA BLA BLA BLA BLA BLA BLA BLA BLA BLA BLA BLA BLA BLA BLA 
BLA BLA BLA BLA BLA BLA BLA BLA BLA BLA BLA BLA BLA BLA BLA BLA BLA BLA BLA BLA 
BLA BLA BLA BLA BLA BLA BLA BLA BLA BLA BLA BLA BLA BLA BLA BLA BLA BLA BLA BLA 
BLA BLA BLA BLA BLA BLA BLA BLA BLA BLA BLA BLA BLA BLA BLA BLA BLA BLA BLA BLA 
BLA BLA BLA BLA BLA BLA BLA BLA BLA BLA BLA BLA BLA BLA BLA BLA BLA BLA BLA BLA 
BLA BLA BLA BLA BLA BLA BLA BLA BLA BLA BLA BLA BLA BLA BLA BLA BLA BLA BLA BLA 
BLA BLA BLA BLA BLA BLA BLA BLA BLA BLA BLA BLA BLA BLA BLA BLA BLA BLA BLA BLA 
BLA BLA BLA BLA BLA BLA BLA BLA BLA BLA BLA BLA BLA BLA BLA BLA BLA BLA BLA BLA 
BLA BLA BLA BLA BLA BLA BLA BLA BLA BLA BLA BLA BLA BLA BLA BLA BLA BLA BLA BLA 
BLA BLA BLA BLA BLA BLA BLA BLA BLA BLA BLA BLA BLA BLA BLA BLA BLA BLA BLA BLA 
BLA BLA BLA BLA BLA BLA BLA BLA BLA BLA BLA BLA BLA BLA BLA BLA BLA BLA BLA BLA 
BLA BLA BLA BLA BLA BLA BLA BLA BLA BLA BLA BLA BLA BLA BLA BLA BLA BLA BLA BLA 
BLA BLA BLA BLA BLA BLA BLA BLA BLA BLA BLA BLA BLA BLA BLA BLA BLA BLA BLA BLA 
BLA BLA BLA BLA BLA BLA BLA BLA BLA BLA BLA BLA BLA BLA BLA BLA BLA BLA BLA BLA 
BLA BLA BLA BLA BLA BLA BLA BLA BLA BLA BLA BLA BLA BLA BLA BLA BLA BLA BLA BLA 
BLA BLA BLA BLA BLA BLA BLA BLA BLA BLA BLA BLA BLA BLA BLA BLA BLA BLA BLA BLA 
BLA BLA BLA BLA BLA BLA BLA BLA BLA BLA BLA BLA BLA BLA BLA BLA BLA BLA BLA BLA 
BLA BLA BLA BLA BLA BLA BLA BLA BLA BLA BLA BLA BLA BLA BLA BLA BLA BLA BLA BLA 
BLA BLA BLA BLA BLA BLA BLA BLA BLA BLA BLA BLA BLA BLA BLA BLA BLA BLA BLA BLA 
BLA BLA BLA BLA BLA BLA BLA BLA BLA BLA BLA BLA BLA BLA BLA BLA BLA BLA BLA BLA 
BLA BLA BLA BLA BLA BLA BLA BLA BLA BLA BLA BLA BLA BLA BLA BLA BLA BLA BLA BLA 
BLA BLA BLA BLA BLA BLA BLA BLA BLA BLA BLA BLA BLA BLA BLA BLA BLA BLA BLA BLA 
BLA BLA BLA BLA BLA BLA BLA BLA BLA BLA BLA BLA BLA BLA BLA BLA BLA BLA BLA BLA 
BLA BLA BLA BLA BLA BLA BLA BLA BLA BLA BLA BLA BLA BLA BLA BLA BLA BLA BLA BLA 
BLA BLA BLA BLA BLA BLA BLA BLA BLA BLA BLA BLA BLA BLA BLA BLA BLA BLA BLA BLA 
BLA BLA BLA BLA BLA BLA BLA BLA BLA BLA BLA BLA BLA BLA BLA BLA BLA BLA BLA BLA 
BLA BLA BLA BLA BLA BLA BLA BLA BLA BLA BLA BLA BLA BLA BLA BLA BLA BLA BLA BLA 
BLA BLA BLA BLA BLA BLA BLA BLA BLA BLA BLA BLA BLA BLA BLA BLA BLA BLA BLA BLA 
BLA BLA BLA BLA BLA BLA BLA BLA BLA BLA BLA BLA BLA BLA BLA BLA BLA BLA BLA BLA 
BLA BLA BLA BLA BLA BLA BLA BLA BLA BLA BLA BLA BLA BLA BLA BLA BLA BLA BLA BLA 
BLA BLA BLA BLA BLA BLA BLA BLA BLA BLA BLA BLA BLA BLA BLA BLA BLA BLA BLA BLA 
BLA BLA BLA BLA BLA BLA BLA BLA BLA BLA BLA BLA BLA BLA BLA BLA BLA BLA BLA BLA 
BLA BLA BLA BLA BLA BLA BLA BLA BLA BLA BLA BLA BLA BLA BLA BLA BLA BLA BLA BLA 
BLA BLA BLA BLA BLA BLA BLA BLA BLA BLA BLA BLA BLA BLA BLA BLA BLA BLA BLA BLA 
BLA BLA BLA BLA BLA BLA BLA BLA BLA BLA BLA BLA BLA BLA BLA BLA BLA BLA BLA BLA 
BLA BLA BLA BLA BLA BLA BLA BLA BLA BLA BLA BLA BLA BLA BLA BLA BLA BLA BLA BLA 
BLA BLA BLA BLA BLA BLA BLA BLA BLA BLA BLA BLA BLA BLA BLA BLA BLA BLA BLA BLA 
BLA BLA BLA BLA BLA BLA BLA BLA BLA BLA BLA BLA BLA BLA BLA BLA BLA BLA BLA BLA 
BLA BLA BLA BLA BLA BLA BLA BLA BLA BLA BLA BLA BLA BLA BLA BLA BLA BLA BLA BLA 
BLA BLA BLA BLA BLA BLA BLA BLA BLA BLA BLA BLA BLA BLA BLA BLA BLA BLA BLA BLA 
BLA BLA BLA BLA BLA BLA BLA BLA BLA BLA BLA BLA BLA BLA BLA BLA BLA BLA BLA BLA 
BLA BLA BLA BLA BLA BLA BLA BLA BLA BLA BLA BLA BLA BLA BLA BLA BLA BLA BLA BLA 
BLA BLA BLA BLA BLA BLA BLA BLA BLA BLA BLA BLA BLA BLA BLA BLA BLA BLA BLA BLA 
BLA BLA BLA BLA BLA BLA BLA BLA BLA BLA BLA BLA BLA BLA BLA BLA BLA BLA BLA BLA 
BLA BLA BLA BLA BLA BLA BLA BLA BLA BLA BLA BLA BLA BLA BLA BLA BLA BLA BLA BLA 
BLA BLA BLA BLA BLA BLA BLA BLA BLA BLA BLA BLA BLA BLA BLA BLA BLA BLA BLA BLA 
BLA BLA BLA BLA BLA BLA BLA BLA BLA BLA BLA BLA BLA BLA BLA BLA BLA BLA BLA BLA 
BLA BLA BLA BLA BLA BLA BLA BLA BLA BLA BLA BLA BLA BLA BLA BLA BLA BLA BLA BLA 
BLA BLA BLA BLA BLA BLA BLA BLA BLA BLA BLA BLA BLA BLA BLA BLA BLA BLA BLA BLA 
BLA BLA BLA BLA BLA BLA BLA BLA BLA BLA BLA BLA BLA BLA BLA BLA BLA BLA BLA BLA 
BLA BLA BLA BLA BLA BLA BLA BLA BLA BLA BLA BLA BLA BLA BLA BLA BLA BLA BLA BLA 
BLA BLA BLA BLA BLA BLA BLA BLA BLA BLA BLA BLA BLA BLA BLA BLA BLA BLA BLA BLA 
BLA BLA BLA BLA BLA BLA BLA BLA BLA BLA BLA BLA BLA BLA BLA BLA BLA BLA BLA BLA 
BLA BLA BLA BLA BLA BLA BLA BLA BLA BLA BLA BLA BLA BLA BLA BLA BLA BLA BLA BLA 
BLA BLA BLA BLA BLA BLA BLA BLA BLA BLA BLA BLA BLA BLA BLA BLA BLA BLA BLA BLA 
BLA BLA BLA BLA BLA BLA BLA BLA BLA BLA BLA BLA BLA BLA BLA BLA BLA BLA BLA BLA 
BLA BLA BLA BLA BLA BLA BLA BLA BLA BLA BLA BLA BLA BLA BLA BLA BLA BLA BLA BLA 
BLA BLA BLA BLA BLA BLA BLA BLA BLA BLA BLA BLA BLA BLA BLA BLA BLA BLA BLA BLA 
BLA BLA BLA BLA BLA BLA BLA BLA BLA BLA BLA BLA BLA BLA BLA BLA BLA BLA BLA BLA 
BLA BLA BLA BLA BLA BLA BLA BLA BLA BLA BLA BLA BLA BLA BLA BLA BLA BLA BLA BLA 
BLA BLA BLA BLA BLA BLA BLA BLA BLA BLA BLA BLA BLA BLA BLA BLA BLA BLA BLA BLA 
BLA BLA BLA BLA BLA BLA BLA BLA BLA BLA BLA BLA BLA BLA BLA BLA BLA BLA BLA BLA 
BLA BLA BLA BLA BLA BLA BLA BLA BLA BLA BLA BLA BLA BLA BLA BLA BLA BLA BLA BLA 
BLA BLA BLA BLA BLA BLA BLA BLA BLA BLA BLA BLA BLA BLA BLA BLA BLA BLA BLA BLA 
BLA BLA BLA BLA BLA BLA BLA BLA BLA BLA BLA BLA BLA BLA BLA BLA BLA BLA BLA BLA 
BLA BLA BLA BLA BLA BLA BLA BLA BLA BLA BLA BLA BLA BLA BLA BLA BLA BLA BLA BLA 
BLA BLA BLA BLA BLA BLA BLA BLA BLA BLA BLA BLA BLA BLA BLA BLA BLA BLA BLA BLA 
BLA BLA BLA BLA BLA BLA BLA BLA BLA BLA BLA BLA BLA BLA BLA BLA BLA BLA BLA BLA 
BLA BLA BLA BLA BLA BLA BLA BLA BLA BLA BLA BLA BLA BLA BLA BLA BLA BLA BLA BLA 
BLA BLA BLA BLA BLA BLA BLA BLA BLA BLA BLA BLA BLA BLA BLA BLA BLA BLA BLA BLA 
BLA BLA BLA BLA BLA BLA BLA BLA BLA BLA BLA BLA BLA BLA BLA BLA BLA BLA BLA BLA 
BLA BLA BLA BLA BLA BLA BLA BLA BLA BLA BLA BLA BLA BLA BLA BLA BLA BLA BLA BLA 
BLA BLA BLA BLA BLA BLA BLA BLA BLA BLA BLA BLA BLA BLA BLA BLA BLA BLA BLA BLA 
BLA BLA BLA BLA BLA BLA BLA BLA BLA BLA BLA BLA BLA BLA BLA BLA BLA BLA BLA BLA 
BLA BLA BLA BLA BLA BLA BLA BLA BLA BLA BLA BLA BLA BLA BLA BLA BLA BLA BLA BLA 
BLA BLA BLA BLA BLA BLA BLA BLA BLA BLA BLA BLA BLA BLA BLA BLA BLA BLA BLA BLA 
BLA BLA BLA BLA BLA BLA BLA BLA BLA BLA BLA BLA BLA BLA BLA BLA BLA BLA BLA BLA 
BLA BLA BLA BLA BLA BLA BLA BLA BLA BLA BLA BLA BLA BLA BLA BLA BLA BLA BLA BLA 
BLA BLA BLA BLA BLA BLA BLA BLA BLA BLA BLA BLA BLA BLA BLA BLA BLA BLA BLA BLA 
BLA BLA BLA BLA BLA BLA BLA BLA BLA BLA BLA BLA BLA BLA BLA BLA BLA BLA BLA BLA 
BLA BLA BLA BLA BLA BLA BLA BLA BLA BLA BLA BLA BLA BLA BLA BLA BLA BLA BLA BLA 
BLA BLA BLA BLA BLA BLA BLA BLA BLA BLA BLA BLA BLA BLA BLA BLA BLA BLA BLA BLA 
BLA BLA BLA BLA BLA BLA BLA BLA BLA BLA BLA BLA BLA BLA BLA BLA BLA BLA BLA BLA 
BLA BLA BLA BLA BLA BLA BLA BLA BLA BLA BLA BLA BLA BLA BLA BLA BLA BLA BLA BLA 
BLA BLA BLA BLA BLA BLA BLA BLA BLA BLA BLA BLA BLA BLA BLA BLA BLA BLA BLA BLA 
BLA BLA BLA BLA BLA BLA BLA BLA BLA BLA BLA BLA BLA BLA BLA BLA BLA BLA BLA BLA 
BLA BLA BLA BLA BLA BLA BLA BLA BLA BLA BLA BLA BLA BLA BLA BLA BLA BLA BLA BLA 
BLA BLA BLA BLA BLA BLA BLA BLA BLA BLA BLA BLA BLA BLA BLA BLA BLA BLA BLA BLA 
BLA BLA BLA BLA BLA BLA BLA BLA BLA BLA BLA BLA BLA BLA BLA BLA BLA BLA BLA BLA 
BLA BLA BLA BLA BLA BLA BLA BLA BLA BLA BLA BLA BLA BLA BLA BLA BLA BLA BLA BLA 
BLA BLA BLA BLA BLA BLA BLA BLA BLA BLA BLA BLA BLA BLA BLA BLA BLA BLA BLA BLA 
BLA BLA BLA BLA BLA BLA BLA BLA BLA BLA BLA BLA BLA BLA BLA BLA BLA BLA BLA BLA 
BLA BLA BLA BLA BLA BLA BLA BLA BLA BLA BLA BLA BLA BLA BLA BLA BLA BLA BLA BLA 
BLA BLA BLA BLA BLA BLA BLA BLA BLA BLA BLA BLA BLA BLA BLA BLA BLA BLA BLA BLA 
BLA BLA BLA BLA BLA BLA BLA BLA BLA BLA BLA BLA BLA BLA BLA BLA BLA BLA BLA BLA 
BLA BLA BLA BLA BLA BLA BLA BLA BLA BLA BLA BLA BLA BLA BLA BLA BLA BLA BLA BLA 
BLA BLA BLA BLA BLA BLA BLA BLA BLA BLA BLA BLA BLA BLA BLA BLA BLA BLA BLA BLA 
BLA BLA BLA BLA BLA BLA BLA BLA BLA BLA BLA BLA BLA BLA BLA BLA BLA BLA BLA BLA 
BLA BLA BLA BLA BLA BLA BLA BLA BLA BLA BLA BLA BLA BLA BLA BLA BLA BLA BLA BLA 
BLA BLA BLA BLA BLA BLA BLA BLA BLA BLA BLA BLA BLA BLA BLA BLA BLA BLA BLA BLA 
BLA BLA BLA BLA BLA BLA BLA BLA BLA BLA BLA BLA BLA BLA BLA BLA BLA BLA BLA BLA 
BLA BLA BLA BLA BLA BLA BLA BLA BLA BLA BLA BLA BLA BLA BLA BLA BLA BLA BLA BLA 
BLA BLA BLA BLA BLA BLA BLA BLA BLA BLA BLA BLA BLA BLA BLA BLA BLA BLA BLA BLA 
BLA BLA BLA BLA BLA BLA BLA BLA BLA BLA BLA BLA BLA BLA BLA BLA BLA BLA BLA BLA 
BLA BLA BLA BLA BLA BLA BLA BLA BLA BLA BLA BLA BLA BLA BLA BLA BLA BLA BLA BLA 
BLA BLA BLA BLA BLA BLA BLA BLA BLA BLA BLA BLA BLA BLA BLA BLA BLA BLA BLA BLA 
BLA BLA BLA BLA BLA BLA BLA BLA BLA BLA BLA BLA BLA BLA BLA BLA BLA BLA BLA BLA 
BLA BLA BLA BLA BLA BLA BLA BLA BLA BLA BLA BLA BLA BLA BLA BLA BLA BLA BLA BLA 
BLA BLA BLA BLA BLA BLA BLA BLA BLA BLA BLA BLA BLA BLA BLA BLA BLA BLA BLA BLA 
BLA BLA BLA BLA BLA BLA BLA BLA BLA BLA BLA BLA BLA BLA BLA BLA BLA BLA BLA BLA 
BLA BLA BLA BLA BLA BLA BLA BLA BLA BLA BLA BLA BLA BLA BLA BLA BLA BLA BLA BLA 
BLA BLA BLA BLA BLA BLA BLA BLA BLA BLA BLA BLA BLA BLA BLA BLA BLA BLA BLA BLA 
BLA BLA BLA BLA BLA BLA BLA BLA BLA BLA BLA BLA BLA BLA BLA BLA BLA BLA BLA BLA 
BLA BLA BLA BLA BLA BLA BLA BLA BLA BLA BLA BLA BLA BLA BLA BLA BLA BLA BLA BLA 
BLA BLA BLA BLA BLA BLA BLA BLA BLA BLA BLA BLA BLA BLA BLA BLA BLA BLA BLA BLA 
BLA BLA BLA BLA BLA BLA BLA BLA BLA BLA BLA BLA BLA BLA BLA BLA BLA BLA BLA BLA 
BLA BLA BLA BLA BLA BLA BLA BLA BLA BLA BLA BLA BLA BLA BLA BLA BLA BLA BLA BLA 
BLA BLA BLA BLA BLA BLA BLA BLA BLA BLA BLA BLA BLA BLA BLA BLA BLA BLA BLA BLA 
BLA BLA BLA BLA BLA BLA BLA BLA BLA BLA BLA BLA BLA BLA BLA BLA BLA BLA BLA BLA 
BLA BLA BLA BLA BLA BLA BLA BLA BLA BLA BLA BLA BLA BLA BLA BLA BLA BLA BLA BLA 
BLA BLA BLA BLA BLA BLA BLA BLA BLA BLA BLA BLA BLA BLA BLA BLA BLA BLA BLA BLA 
BLA BLA BLA BLA BLA BLA BLA BLA BLA BLA BLA BLA BLA BLA BLA BLA BLA BLA BLA BLA 
BLA BLA BLA BLA BLA BLA BLA BLA BLA BLA BLA BLA BLA BLA BLA BLA BLA BLA BLA BLA 
BLA BLA BLA BLA BLA BLA BLA BLA BLA BLA BLA BLA BLA BLA BLA BLA BLA BLA BLA BLA 
BLA BLA BLA BLA BLA BLA BLA BLA BLA BLA BLA BLA BLA BLA BLA BLA BLA BLA BLA BLA 
BLA BLA BLA BLA BLA BLA BLA BLA BLA BLA BLA BLA BLA BLA BLA BLA BLA BLA BLA BLA 
BLA BLA BLA BLA BLA BLA BLA BLA BLA BLA BLA BLA BLA BLA BLA BLA BLA BLA BLA BLA 
BLA BLA BLA BLA BLA BLA BLA BLA BLA BLA BLA BLA BLA BLA BLA BLA BLA BLA BLA BLA 
BLA BLA BLA BLA BLA BLA BLA BLA BLA BLA BLA BLA BLA BLA BLA BLA BLA BLA BLA BLA 
BLA BLA BLA BLA BLA BLA BLA BLA BLA BLA BLA BLA BLA BLA BLA BLA BLA BLA BLA BLA 
BLA BLA BLA BLA BLA BLA BLA BLA BLA BLA BLA BLA BLA BLA BLA BLA BLA BLA BLA BLA 
BLA BLA BLA BLA BLA BLA BLA BLA BLA BLA BLA BLA BLA BLA BLA BLA BLA BLA BLA BLA 
BLA BLA BLA BLA BLA BLA BLA BLA BLA BLA BLA BLA BLA BLA BLA BLA BLA BLA BLA BLA 
BLA BLA BLA BLA BLA BLA BLA BLA BLA BLA BLA BLA BLA BLA BLA BLA BLA BLA BLA BLA 
BLA BLA BLA BLA BLA BLA BLA BLA BLA BLA BLA BLA BLA BLA BLA BLA BLA BLA BLA BLA 
BLA BLA BLA BLA BLA BLA BLA BLA BLA BLA BLA BLA BLA BLA BLA BLA BLA BLA BLA BLA 
BLA BLA BLA BLA BLA BLA BLA BLA BLA BLA BLA BLA BLA BLA BLA BLA BLA BLA BLA BLA 
BLA BLA BLA BLA BLA BLA BLA BLA BLA BLA BLA BLA BLA BLA BLA BLA BLA BLA BLA BLA 
BLA BLA BLA BLA BLA BLA BLA BLA BLA BLA BLA BLA BLA BLA BLA BLA BLA BLA BLA BLA 
BLA BLA BLA BLA BLA BLA BLA BLA BLA BLA BLA BLA BLA BLA BLA BLA BLA BLA BLA BLA 
BLA BLA BLA BLA BLA BLA BLA BLA BLA BLA BLA BLA BLA BLA BLA BLA BLA BLA BLA BLA 
BLA BLA BLA BLA BLA BLA BLA BLA BLA BLA BLA BLA BLA BLA BLA BLA BLA BLA BLA BLA 
BLA BLA BLA BLA BLA BLA BLA BLA BLA BLA BLA BLA BLA BLA BLA BLA BLA BLA BLA BLA 
BLA BLA BLA BLA BLA BLA BLA BLA BLA BLA BLA BLA BLA BLA BLA BLA BLA BLA BLA BLA 
BLA BLA BLA BLA BLA BLA BLA BLA BLA BLA BLA BLA BLA BLA BLA BLA BLA BLA BLA BLA 
BLA BLA BLA BLA BLA BLA BLA BLA BLA BLA BLA BLA BLA BLA BLA BLA BLA BLA BLA BLA 
BLA BLA BLA BLA BLA BLA BLA BLA BLA BLA BLA BLA BLA BLA BLA BLA BLA BLA BLA BLA 
BLA BLA BLA BLA BLA BLA BLA BLA BLA BLA BLA BLA BLA BLA BLA BLA BLA BLA BLA BLA 
BLA BLA BLA BLA BLA BLA BLA BLA BLA BLA BLA BLA BLA BLA BLA BLA BLA BLA BLA BLA 
BLA BLA BLA BLA BLA BLA BLA BLA BLA BLA BLA BLA BLA BLA BLA BLA BLA BLA BLA BLA 
BLA BLA BLA BLA BLA BLA BLA BLA BLA BLA BLA BLA BLA BLA BLA BLA BLA BLA BLA BLA 
BLA BLA BLA BLA BLA BLA BLA BLA BLA BLA BLA BLA BLA BLA BLA BLA BLA BLA BLA BLA 
BLA BLA BLA BLA BLA BLA BLA BLA BLA BLA BLA BLA BLA BLA BLA BLA BLA BLA BLA BLA 
BLA BLA BLA BLA BLA BLA BLA BLA BLA BLA BLA BLA BLA BLA BLA BLA BLA BLA BLA BLA 
BLA BLA BLA BLA BLA BLA BLA BLA BLA BLA BLA BLA BLA BLA BLA BLA BLA BLA BLA BLA 
BLA BLA BLA BLA BLA BLA BLA BLA BLA BLA BLA BLA BLA BLA BLA BLA BLA BLA BLA BLA 
BLA BLA BLA BLA BLA BLA BLA BLA BLA BLA BLA BLA BLA BLA BLA BLA BLA BLA BLA BLA 
BLA BLA BLA BLA BLA BLA BLA BLA BLA BLA BLA BLA BLA BLA BLA BLA BLA BLA BLA BLA 
BLA BLA BLA BLA BLA BLA BLA BLA BLA BLA BLA BLA BLA BLA BLA BLA BLA BLA BLA BLA 
BLA BLA BLA BLA BLA BLA BLA BLA BLA BLA BLA BLA BLA BLA BLA BLA BLA BLA BLA BLA 
BLA BLA BLA BLA BLA BLA BLA BLA BLA BLA BLA BLA BLA BLA BLA BLA BLA BLA BLA BLA 
BLA BLA BLA BLA BLA BLA BLA BLA BLA BLA BLA BLA BLA BLA BLA BLA BLA BLA BLA BLA 
BLA BLA BLA BLA BLA BLA BLA BLA BLA BLA BLA BLA BLA BLA BLA BLA BLA BLA BLA BLA 
BLA BLA BLA BLA BLA BLA BLA BLA BLA BLA BLA BLA BLA BLA BLA BLA BLA BLA BLA BLA 
BLA BLA BLA BLA BLA BLA BLA BLA BLA BLA BLA BLA BLA BLA BLA BLA BLA BLA BLA BLA 
BLA BLA BLA BLA BLA BLA BLA BLA BLA BLA BLA BLA BLA BLA BLA BLA BLA BLA BLA BLA 
BLA BLA BLA BLA BLA BLA BLA BLA BLA BLA BLA BLA BLA BLA BLA BLA BLA BLA BLA BLA 
BLA BLA BLA BLA BLA BLA BLA BLA BLA BLA BLA BLA BLA BLA BLA BLA BLA BLA BLA BLA 
BLA BLA BLA BLA BLA BLA BLA BLA BLA BLA BLA BLA BLA BLA BLA BLA BLA BLA BLA BLA 
BLA BLA BLA BLA BLA BLA BLA BLA BLA BLA BLA BLA BLA BLA BLA BLA BLA BLA BLA BLA 
BLA BLA BLA BLA BLA BLA BLA BLA BLA BLA BLA BLA BLA BLA BLA BLA BLA BLA BLA BLA 
BLA BLA BLA BLA BLA BLA BLA BLA BLA BLA BLA BLA BLA BLA BLA BLA BLA BLA BLA BLA 
BLA BLA BLA BLA BLA BLA BLA BLA BLA BLA BLA BLA BLA BLA BLA BLA BLA BLA BLA BLA 
BLA BLA BLA BLA BLA BLA BLA BLA BLA BLA BLA BLA BLA BLA BLA BLA BLA BLA BLA BLA 
BLA BLA BLA BLA BLA BLA BLA BLA BLA BLA BLA BLA BLA BLA BLA BLA BLA BLA BLA BLA 
BLA BLA BLA BLA BLA BLA BLA BLA BLA BLA BLA BLA BLA BLA BLA BLA BLA BLA BLA BLA 
BLA BLA BLA BLA BLA BLA BLA BLA BLA BLA BLA BLA BLA BLA BLA BLA BLA BLA BLA BLA 
BLA BLA BLA BLA BLA BLA BLA BLA BLA BLA BLA BLA BLA BLA BLA BLA BLA BLA BLA BLA 
BLA BLA BLA BLA BLA BLA BLA BLA BLA BLA BLA BLA BLA BLA BLA BLA BLA BLA BLA BLA 
BLA BLA BLA BLA BLA BLA BLA BLA BLA BLA BLA BLA BLA BLA BLA BLA BLA BLA BLA BLA 
BLA BLA BLA BLA BLA BLA BLA BLA BLA BLA BLA BLA BLA BLA BLA BLA BLA BLA BLA BLA 
BLA BLA BLA BLA BLA BLA BLA BLA BLA BLA BLA BLA BLA BLA BLA BLA BLA BLA BLA BLA 
BLA BLA BLA BLA BLA BLA BLA BLA BLA BLA BLA BLA BLA BLA BLA BLA BLA BLA BLA BLA 
BLA BLA BLA BLA BLA BLA BLA BLA BLA BLA BLA BLA BLA BLA BLA BLA BLA BLA BLA BLA 
BLA BLA BLA BLA BLA BLA BLA BLA BLA BLA BLA BLA BLA BLA BLA BLA BLA BLA BLA BLA 
BLA BLA BLA BLA BLA BLA BLA BLA BLA BLA BLA BLA BLA BLA BLA BLA BLA BLA BLA BLA 
BLA BLA BLA BLA BLA BLA BLA BLA BLA BLA BLA BLA BLA BLA BLA BLA BLA BLA BLA BLA 
BLA BLA BLA BLA BLA BLA BLA BLA BLA BLA BLA BLA BLA BLA BLA BLA BLA BLA BLA BLA 
BLA BLA BLA BLA BLA BLA BLA BLA BLA BLA BLA BLA BLA BLA BLA BLA BLA BLA BLA BLA 
BLA BLA BLA BLA BLA BLA BLA BLA BLA BLA BLA BLA BLA BLA BLA BLA BLA BLA BLA BLA 
BLA BLA BLA BLA BLA BLA BLA BLA BLA BLA BLA BLA BLA BLA BLA BLA BLA BLA BLA BLA 
BLA BLA BLA BLA BLA BLA BLA BLA BLA BLA BLA BLA BLA BLA BLA BLA BLA BLA BLA BLA 
BLA BLA BLA BLA BLA BLA BLA BLA BLA BLA BLA BLA BLA BLA BLA BLA BLA BLA BLA BLA 
BLA BLA BLA BLA BLA BLA BLA BLA BLA BLA BLA BLA BLA BLA BLA BLA BLA BLA BLA BLA 
BLA BLA BLA BLA BLA BLA BLA BLA BLA BLA BLA BLA BLA BLA BLA BLA BLA BLA BLA BLA 
BLA BLA BLA BLA BLA BLA BLA BLA BLA BLA BLA BLA BLA BLA BLA BLA BLA BLA BLA BLA 
BLA BLA BLA BLA BLA BLA BLA BLA BLA BLA BLA BLA BLA BLA BLA BLA BLA BLA BLA BLA 
BLA BLA BLA BLA BLA BLA BLA BLA BLA BLA BLA BLA BLA BLA BLA BLA BLA BLA BLA BLA 
BLA BLA BLA BLA BLA BLA BLA BLA BLA BLA BLA BLA BLA BLA BLA BLA BLA BLA BLA BLA 
BLA BLA BLA BLA BLA BLA BLA BLA BLA BLA BLA BLA BLA BLA BLA BLA BLA BLA BLA BLA 
BLA BLA BLA BLA BLA BLA BLA BLA BLA BLA BLA BLA BLA BLA BLA BLA BLA BLA BLA BLA 
BLA BLA BLA BLA BLA BLA BLA BLA BLA BLA BLA BLA BLA BLA BLA BLA BLA BLA BLA BLA 
BLA BLA BLA BLA BLA BLA BLA BLA BLA BLA BLA BLA BLA BLA BLA BLA BLA BLA BLA BLA 
BLA BLA BLA BLA BLA BLA BLA BLA BLA BLA BLA BLA BLA BLA BLA BLA BLA BLA BLA BLA 
BLA BLA BLA BLA BLA BLA BLA BLA BLA BLA BLA BLA BLA BLA BLA BLA BLA BLA BLA BLA 
BLA BLA BLA BLA BLA BLA BLA BLA BLA BLA BLA BLA BLA BLA BLA BLA BLA BLA BLA BLA 
BLA BLA BLA BLA BLA BLA BLA BLA BLA BLA BLA BLA BLA BLA BLA BLA BLA BLA BLA BLA 
BLA BLA BLA BLA BLA BLA BLA BLA BLA BLA BLA BLA BLA BLA BLA BLA BLA BLA BLA BLA 
BLA BLA BLA BLA BLA BLA BLA BLA BLA BLA BLA BLA BLA BLA BLA BLA BLA BLA BLA BLA 
BLA BLA BLA BLA BLA BLA BLA BLA BLA BLA BLA BLA BLA BLA BLA BLA BLA BLA BLA BLA 
BLA BLA BLA BLA BLA BLA BLA BLA BLA BLA BLA BLA BLA BLA BLA BLA BLA BLA BLA BLA 
BLA BLA BLA BLA BLA BLA BLA BLA BLA BLA BLA BLA BLA BLA BLA BLA BLA BLA BLA BLA 
BLA BLA BLA BLA BLA BLA BLA BLA BLA BLA BLA BLA BLA BLA BLA BLA BLA BLA BLA BLA 
BLA BLA BLA BLA BLA BLA BLA BLA BLA BLA BLA BLA BLA BLA BLA BLA BLA BLA BLA BLA 
BLA BLA BLA BLA BLA BLA BLA BLA BLA BLA BLA BLA BLA BLA BLA BLA BLA BLA BLA BLA 
BLA BLA BLA BLA BLA BLA BLA BLA BLA BLA BLA BLA BLA BLA BLA BLA BLA BLA BLA BLA 
BLA BLA BLA BLA BLA BLA BLA BLA BLA BLA BLA BLA BLA BLA BLA BLA BLA BLA BLA BLA 
BLA BLA BLA BLA BLA BLA BLA BLA BLA BLA BLA BLA BLA BLA BLA BLA BLA BLA BLA BLA 
BLA BLA BLA BLA BLA BLA BLA BLA BLA BLA BLA BLA BLA BLA BLA BLA BLA BLA BLA BLA 
BLA BLA BLA BLA BLA BLA BLA BLA BLA BLA BLA BLA BLA BLA BLA BLA BLA BLA BLA BLA 
BLA BLA BLA BLA BLA BLA BLA BLA BLA BLA BLA BLA BLA BLA BLA BLA BLA BLA BLA BLA 
BLA BLA BLA BLA BLA BLA BLA BLA BLA BLA BLA BLA BLA BLA BLA BLA BLA BLA BLA BLA 
BLA BLA BLA BLA BLA BLA BLA BLA BLA BLA BLA BLA BLA BLA BLA BLA BLA BLA BLA BLA 
BLA BLA BLA BLA BLA BLA BLA BLA BLA BLA BLA BLA BLA BLA BLA BLA BLA BLA BLA BLA 
BLA BLA BLA BLA BLA BLA BLA BLA BLA BLA BLA BLA BLA BLA BLA BLA BLA BLA BLA BLA 
BLA BLA BLA BLA BLA BLA BLA BLA BLA BLA BLA BLA BLA BLA BLA BLA BLA BLA BLA BLA 
BLA BLA BLA BLA BLA BLA BLA BLA BLA BLA BLA BLA BLA BLA BLA BLA BLA BLA BLA BLA 
BLA BLA BLA BLA BLA BLA BLA BLA BLA BLA BLA BLA BLA BLA BLA BLA BLA BLA BLA BLA 
BLA BLA BLA BLA BLA BLA BLA BLA BLA BLA BLA BLA BLA BLA BLA BLA BLA BLA BLA BLA 
BLA BLA BLA BLA BLA BLA BLA BLA BLA BLA BLA BLA BLA BLA BLA BLA BLA BLA BLA BLA 
BLA BLA BLA BLA BLA BLA BLA BLA BLA BLA BLA BLA BLA BLA BLA BLA BLA BLA BLA BLA 
BLA BLA BLA BLA BLA BLA BLA BLA BLA BLA BLA BLA BLA BLA BLA BLA BLA BLA BLA BLA 
BLA BLA BLA BLA BLA BLA BLA BLA BLA BLA BLA BLA BLA BLA BLA BLA BLA BLA BLA BLA 
BLA BLA BLA BLA BLA BLA BLA BLA BLA BLA BLA BLA BLA BLA BLA BLA BLA BLA BLA BLA 
BLA BLA BLA BLA BLA BLA BLA BLA BLA BLA BLA BLA BLA BLA BLA BLA BLA BLA BLA BLA 
BLA BLA BLA BLA BLA BLA BLA BLA BLA BLA BLA BLA BLA BLA BLA BLA BLA BLA BLA BLA 
BLA BLA BLA BLA BLA BLA BLA BLA BLA BLA BLA BLA BLA BLA BLA BLA BLA BLA BLA BLA 
BLA BLA BLA BLA BLA BLA BLA BLA BLA BLA BLA BLA BLA BLA BLA BLA BLA BLA BLA BLA 
BLA BLA BLA BLA BLA BLA BLA BLA BLA BLA BLA BLA BLA BLA BLA BLA BLA BLA BLA BLA 
BLA BLA BLA BLA BLA BLA BLA BLA BLA BLA BLA BLA BLA BLA BLA BLA BLA BLA BLA BLA 
BLA BLA BLA BLA BLA BLA BLA BLA BLA BLA BLA BLA BLA BLA BLA BLA BLA BLA BLA BLA 
BLA BLA BLA BLA BLA BLA BLA BLA BLA BLA BLA BLA BLA BLA BLA BLA BLA BLA BLA BLA 
BLA BLA BLA BLA BLA BLA BLA BLA BLA BLA BLA BLA BLA BLA BLA BLA BLA BLA BLA BLA 
BLA BLA BLA BLA BLA BLA BLA BLA BLA BLA BLA BLA BLA BLA BLA BLA BLA BLA BLA BLA 
BLA BLA BLA BLA BLA BLA BLA BLA BLA BLA BLA BLA BLA BLA BLA BLA BLA BLA BLA BLA 
BLA BLA BLA BLA BLA BLA BLA BLA BLA BLA BLA BLA BLA BLA BLA BLA BLA BLA BLA BLA 
BLA BLA BLA BLA BLA BLA BLA BLA BLA BLA BLA BLA BLA BLA BLA BLA BLA BLA BLA BLA 
BLA BLA BLA BLA BLA BLA BLA BLA BLA BLA BLA BLA BLA BLA BLA BLA BLA BLA BLA BLA 
BLA BLA BLA BLA BLA BLA BLA BLA BLA BLA BLA BLA BLA BLA BLA BLA BLA BLA BLA BLA 
BLA BLA BLA BLA BLA BLA BLA BLA BLA BLA BLA BLA BLA BLA BLA BLA BLA BLA BLA BLA 
BLA BLA BLA BLA BLA BLA BLA BLA BLA BLA BLA BLA BLA BLA BLA BLA BLA BLA BLA BLA 
BLA BLA BLA BLA BLA BLA BLA BLA BLA BLA BLA BLA BLA BLA BLA BLA BLA BLA BLA BLA 
BLA BLA BLA BLA BLA BLA BLA BLA BLA BLA BLA BLA BLA BLA BLA BLA BLA BLA BLA BLA 
BLA BLA BLA BLA BLA BLA BLA BLA BLA BLA BLA BLA BLA BLA BLA BLA BLA BLA BLA BLA 
BLA BLA BLA BLA BLA BLA BLA BLA BLA BLA BLA BLA BLA BLA BLA BLA BLA BLA BLA BLA 
BLA BLA BLA BLA BLA BLA BLA BLA BLA BLA BLA BLA BLA BLA BLA BLA BLA BLA BLA BLA 
BLA BLA BLA BLA BLA BLA BLA BLA BLA BLA BLA BLA BLA BLA BLA BLA BLA BLA BLA BLA 
BLA BLA BLA BLA BLA BLA BLA BLA BLA BLA BLA BLA BLA BLA BLA BLA BLA BLA BLA BLA 
BLA BLA BLA BLA BLA BLA BLA BLA BLA BLA BLA BLA BLA BLA BLA BLA BLA BLA BLA BLA 
BLA BLA BLA BLA BLA BLA BLA BLA BLA BLA BLA BLA BLA BLA BLA BLA BLA BLA BLA BLA 
BLA BLA BLA BLA BLA BLA BLA BLA BLA BLA BLA BLA BLA BLA BLA BLA BLA BLA BLA BLA 
BLA BLA BLA BLA BLA BLA BLA BLA BLA BLA BLA BLA BLA BLA BLA BLA BLA BLA BLA BLA 
BLA BLA BLA BLA BLA BLA BLA BLA BLA BLA BLA BLA BLA BLA BLA BLA BLA BLA BLA BLA 
BLA BLA BLA BLA BLA BLA BLA BLA BLA BLA BLA BLA BLA BLA BLA BLA BLA BLA BLA BLA 
BLA BLA BLA BLA BLA BLA BLA BLA BLA BLA BLA BLA BLA BLA BLA BLA BLA BLA BLA BLA 
BLA BLA BLA BLA BLA BLA BLA BLA BLA BLA BLA BLA BLA BLA BLA BLA BLA BLA BLA BLA 
BLA BLA BLA BLA BLA BLA BLA BLA BLA BLA BLA BLA BLA BLA BLA BLA BLA BLA BLA BLA 
BLA BLA BLA BLA BLA BLA BLA BLA BLA BLA BLA BLA BLA BLA BLA BLA BLA BLA BLA BLA 
BLA BLA BLA BLA BLA BLA BLA BLA BLA BLA BLA BLA BLA BLA BLA BLA BLA BLA BLA BLA 
BLA BLA BLA BLA BLA BLA BLA BLA BLA BLA BLA BLA BLA BLA BLA BLA BLA BLA BLA BLA 
BLA BLA BLA BLA BLA BLA BLA BLA BLA BLA BLA BLA BLA BLA BLA BLA BLA BLA BLA BLA 
BLA BLA BLA BLA BLA BLA BLA BLA BLA BLA BLA BLA BLA BLA BLA BLA BLA BLA BLA BLA 
BLA BLA BLA BLA BLA BLA BLA BLA BLA BLA BLA BLA BLA BLA BLA BLA BLA BLA BLA BLA 
BLA BLA BLA BLA BLA BLA BLA BLA BLA BLA BLA BLA BLA BLA BLA BLA BLA BLA BLA BLA 
BLA BLA BLA BLA BLA BLA BLA BLA BLA BLA BLA BLA BLA BLA BLA BLA BLA BLA BLA BLA 
BLA BLA BLA BLA BLA BLA BLA BLA BLA BLA BLA BLA BLA BLA BLA BLA BLA BLA BLA BLA 
BLA BLA BLA BLA BLA BLA BLA BLA BLA BLA BLA BLA BLA BLA BLA BLA BLA BLA BLA BLA 
BLA BLA BLA BLA BLA BLA BLA BLA BLA BLA BLA BLA BLA BLA BLA BLA BLA BLA BLA BLA 
BLA BLA BLA BLA BLA BLA BLA BLA BLA BLA BLA BLA BLA BLA BLA BLA BLA BLA BLA BLA 
BLA BLA BLA BLA BLA BLA BLA BLA BLA BLA BLA BLA BLA BLA BLA BLA BLA BLA BLA BLA 
BLA BLA BLA BLA BLA BLA BLA BLA BLA BLA BLA BLA BLA BLA BLA BLA BLA BLA BLA BLA 
BLA BLA BLA BLA BLA BLA BLA BLA BLA BLA BLA BLA BLA BLA BLA BLA BLA BLA BLA BLA 
BLA BLA BLA BLA BLA BLA BLA BLA BLA BLA BLA BLA BLA BLA BLA BLA BLA BLA BLA BLA 
BLA BLA BLA BLA BLA BLA BLA BLA BLA BLA BLA BLA BLA BLA BLA BLA BLA BLA BLA BLA 
BLA BLA BLA BLA BLA BLA BLA BLA BLA BLA BLA BLA BLA BLA BLA BLA BLA BLA BLA BLA 
BLA BLA BLA BLA BLA BLA BLA BLA BLA BLA BLA BLA BLA BLA BLA BLA BLA BLA BLA BLA 
BLA BLA BLA BLA BLA BLA BLA BLA BLA BLA BLA BLA BLA BLA BLA BLA BLA BLA BLA BLA 
BLA BLA BLA BLA BLA BLA BLA BLA BLA BLA BLA BLA BLA BLA BLA BLA BLA BLA BLA BLA 
BLA BLA BLA BLA BLA BLA BLA BLA BLA BLA BLA BLA BLA BLA BLA BLA BLA BLA BLA BLA 
BLA BLA BLA BLA BLA BLA BLA BLA BLA BLA BLA BLA BLA BLA BLA BLA BLA BLA BLA BLA 
BLA BLA BLA BLA BLA BLA BLA BLA BLA BLA BLA BLA BLA BLA BLA BLA BLA BLA BLA BLA 
BLA BLA BLA BLA BLA BLA BLA BLA BLA BLA BLA BLA BLA BLA BLA BLA BLA BLA BLA BLA 
BLA BLA BLA BLA BLA BLA BLA BLA BLA BLA BLA BLA BLA BLA BLA BLA BLA BLA BLA BLA 
BLA BLA BLA BLA BLA BLA BLA BLA BLA BLA BLA BLA BLA BLA BLA BLA BLA BLA BLA BLA 
BLA BLA BLA BLA BLA BLA BLA BLA BLA BLA BLA BLA BLA BLA BLA BLA BLA BLA BLA BLA 
BLA BLA BLA BLA BLA BLA BLA BLA BLA BLA BLA BLA BLA BLA BLA BLA BLA BLA BLA BLA 
BLA BLA BLA BLA BLA BLA BLA BLA BLA BLA BLA BLA BLA BLA BLA BLA BLA BLA BLA BLA 
BLA BLA BLA BLA BLA BLA BLA BLA BLA BLA BLA BLA BLA BLA BLA BLA BLA BLA BLA BLA 
BLA BLA BLA BLA BLA BLA BLA BLA BLA BLA BLA BLA BLA BLA BLA BLA BLA BLA BLA BLA 
BLA BLA BLA BLA BLA BLA BLA BLA BLA BLA BLA BLA BLA BLA BLA BLA BLA BLA BLA BLA 
BLA BLA BLA BLA BLA BLA BLA BLA BLA BLA BLA BLA BLA BLA BLA BLA BLA BLA BLA BLA 
BLA BLA BLA BLA BLA BLA BLA BLA BLA BLA BLA BLA BLA BLA BLA BLA BLA BLA BLA BLA 
BLA BLA BLA BLA BLA BLA BLA BLA BLA BLA BLA BLA BLA BLA BLA BLA BLA BLA BLA BLA 
BLA BLA BLA BLA BLA BLA BLA BLA BLA BLA BLA BLA BLA BLA BLA BLA BLA BLA BLA BLA 
BLA BLA BLA BLA BLA BLA BLA BLA BLA BLA BLA BLA BLA BLA BLA BLA BLA BLA BLA BLA 
BLA BLA BLA BLA BLA BLA BLA BLA BLA BLA BLA BLA BLA BLA BLA BLA BLA BLA BLA BLA 
BLA BLA BLA BLA BLA BLA BLA BLA BLA BLA BLA BLA BLA BLA BLA BLA BLA BLA BLA BLA 
BLA BLA BLA BLA BLA BLA BLA BLA BLA BLA BLA BLA BLA BLA BLA BLA BLA BLA BLA BLA 
BLA BLA BLA BLA BLA BLA BLA BLA BLA BLA BLA BLA BLA BLA BLA BLA BLA BLA BLA BLA 
BLA BLA BLA BLA BLA BLA BLA BLA BLA BLA BLA BLA BLA BLA BLA BLA BLA BLA BLA BLA 
BLA BLA BLA BLA BLA BLA BLA BLA BLA BLA BLA BLA BLA BLA BLA BLA BLA BLA BLA BLA 
BLA BLA BLA BLA BLA BLA BLA BLA BLA BLA BLA BLA BLA BLA BLA BLA BLA BLA BLA BLA 
BLA BLA BLA BLA BLA BLA BLA BLA BLA BLA BLA BLA BLA BLA BLA BLA BLA BLA BLA BLA 
BLA BLA BLA BLA BLA BLA BLA BLA BLA BLA BLA BLA BLA BLA BLA BLA BLA BLA BLA BLA 
BLA BLA BLA BLA BLA BLA BLA BLA BLA BLA BLA BLA BLA BLA BLA BLA BLA BLA BLA BLA 
BLA BLA BLA BLA BLA BLA BLA BLA BLA BLA BLA BLA BLA BLA BLA BLA BLA BLA BLA BLA 
BLA BLA BLA BLA BLA BLA BLA BLA BLA BLA BLA BLA BLA BLA BLA BLA BLA BLA BLA BLA 
BLA BLA BLA BLA BLA BLA BLA BLA BLA BLA BLA BLA BLA BLA BLA BLA BLA BLA BLA BLA 
BLA BLA BLA BLA BLA BLA BLA BLA BLA BLA BLA BLA BLA BLA BLA BLA BLA BLA BLA BLA 
BLA BLA BLA BLA BLA BLA BLA BLA BLA BLA BLA BLA BLA BLA BLA BLA BLA BLA BLA BLA 
BLA BLA BLA BLA BLA BLA BLA BLA BLA BLA BLA BLA BLA BLA BLA BLA BLA BLA BLA BLA 
BLA BLA BLA BLA BLA BLA BLA BLA BLA BLA BLA BLA BLA BLA BLA BLA BLA BLA BLA BLA 
BLA BLA BLA BLA BLA BLA BLA BLA BLA BLA BLA BLA BLA BLA BLA BLA BLA BLA BLA BLA 
BLA BLA BLA BLA BLA BLA BLA BLA BLA BLA BLA BLA BLA BLA BLA BLA BLA BLA BLA BLA 
BLA BLA BLA BLA BLA BLA BLA BLA BLA BLA BLA BLA BLA BLA BLA BLA BLA BLA BLA BLA 
BLA BLA BLA BLA BLA BLA BLA BLA BLA BLA BLA BLA BLA BLA BLA BLA BLA BLA BLA BLA 
BLA BLA BLA BLA BLA BLA BLA BLA BLA BLA BLA BLA BLA BLA BLA BLA BLA BLA BLA BLA 
BLA BLA BLA BLA BLA BLA BLA BLA BLA BLA BLA BLA BLA BLA BLA BLA BLA BLA BLA BLA 
BLA BLA BLA BLA BLA BLA BLA BLA BLA BLA BLA BLA BLA BLA BLA BLA BLA BLA BLA BLA 
BLA BLA BLA BLA BLA BLA BLA BLA BLA BLA BLA BLA BLA BLA BLA BLA BLA BLA BLA BLA 
BLA BLA BLA BLA BLA BLA BLA BLA BLA BLA BLA BLA BLA BLA BLA BLA BLA BLA BLA BLA 
BLA BLA BLA BLA BLA BLA BLA BLA BLA BLA BLA BLA BLA BLA BLA BLA BLA BLA BLA BLA 
BLA BLA BLA BLA BLA BLA BLA BLA BLA BLA BLA BLA BLA BLA BLA BLA BLA BLA BLA BLA 
BLA BLA BLA BLA BLA BLA BLA BLA BLA BLA BLA BLA BLA BLA BLA BLA BLA BLA BLA BLA 
BLA BLA BLA BLA BLA BLA BLA BLA BLA BLA BLA BLA BLA BLA BLA BLA BLA BLA BLA BLA 
BLA BLA BLA BLA BLA BLA BLA BLA BLA BLA BLA BLA BLA BLA BLA BLA BLA BLA BLA BLA 
BLA BLA BLA BLA BLA BLA BLA BLA BLA BLA BLA BLA BLA BLA BLA BLA BLA BLA BLA BLA 
BLA BLA BLA BLA BLA BLA BLA BLA BLA BLA BLA BLA BLA BLA BLA BLA BLA BLA BLA BLA 
BLA BLA BLA BLA BLA BLA BLA BLA BLA BLA BLA BLA BLA BLA BLA BLA BLA BLA BLA BLA 
BLA BLA BLA BLA BLA BLA BLA BLA BLA BLA BLA BLA BLA BLA BLA BLA BLA BLA BLA BLA 
BLA BLA BLA BLA BLA BLA BLA BLA BLA BLA BLA BLA BLA BLA BLA BLA BLA BLA BLA BLA 
BLA BLA BLA BLA BLA BLA BLA BLA BLA BLA BLA BLA BLA BLA BLA BLA BLA BLA BLA BLA 
BLA BLA BLA BLA BLA BLA BLA BLA BLA BLA BLA BLA BLA BLA BLA BLA BLA BLA BLA BLA 
BLA BLA BLA BLA BLA BLA BLA BLA BLA BLA BLA BLA BLA BLA BLA BLA BLA BLA BLA BLA 
BLA BLA BLA BLA BLA BLA BLA BLA BLA BLA BLA BLA BLA BLA BLA BLA BLA BLA BLA BLA 
BLA BLA BLA BLA BLA BLA BLA BLA BLA BLA BLA BLA BLA BLA BLA BLA BLA BLA BLA BLA 
BLA BLA BLA BLA BLA BLA BLA BLA BLA BLA BLA BLA BLA BLA BLA BLA BLA BLA BLA BLA 
BLA BLA BLA BLA BLA BLA BLA BLA BLA BLA BLA BLA BLA BLA BLA BLA BLA BLA BLA BLA 
BLA BLA BLA BLA BLA BLA BLA BLA BLA BLA BLA BLA BLA BLA BLA BLA BLA BLA BLA BLA 
BLA BLA BLA BLA BLA BLA BLA BLA BLA BLA BLA BLA BLA BLA BLA BLA BLA BLA BLA BLA 
BLA BLA BLA BLA BLA BLA BLA BLA BLA BLA BLA BLA BLA BLA BLA BLA BLA BLA BLA BLA 
BLA BLA BLA BLA BLA BLA BLA BLA BLA BLA BLA BLA BLA BLA BLA BLA BLA BLA BLA BLA 
BLA BLA BLA BLA BLA BLA BLA BLA BLA BLA BLA BLA BLA BLA BLA BLA BLA BLA BLA BLA 
BLA BLA BLA BLA BLA BLA BLA BLA BLA BLA BLA BLA BLA BLA BLA BLA BLA BLA BLA BLA 
BLA BLA BLA BLA BLA BLA BLA BLA BLA BLA BLA BLA BLA BLA BLA BLA BLA BLA BLA BLA 
BLA BLA BLA BLA BLA BLA BLA BLA BLA BLA BLA BLA BLA BLA BLA BLA BLA BLA BLA BLA 
BLA BLA BLA BLA BLA BLA BLA BLA BLA BLA BLA BLA BLA BLA BLA BLA BLA BLA BLA BLA 
BLA BLA BLA BLA BLA BLA BLA BLA BLA BLA BLA BLA BLA BLA BLA BLA BLA BLA BLA BLA 
BLA BLA BLA BLA BLA BLA BLA BLA BLA BLA BLA BLA BLA BLA BLA BLA BLA BLA BLA BLA 
BLA BLA BLA BLA BLA BLA BLA BLA BLA BLA BLA BLA BLA BLA BLA BLA BLA BLA BLA BLA 
BLA BLA BLA BLA BLA BLA BLA BLA BLA BLA BLA BLA BLA BLA BLA BLA BLA BLA BLA BLA 
BLA BLA BLA BLA BLA BLA BLA BLA BLA BLA BLA BLA BLA BLA BLA BLA BLA BLA BLA BLA 
BLA BLA BLA BLA BLA BLA BLA BLA BLA BLA BLA BLA BLA BLA BLA BLA BLA BLA BLA BLA 
BLA BLA BLA BLA BLA BLA BLA BLA BLA BLA BLA BLA BLA BLA BLA BLA BLA BLA BLA BLA 
BLA BLA BLA BLA BLA BLA BLA BLA BLA BLA BLA BLA BLA BLA BLA BLA BLA BLA BLA BLA 
BLA BLA BLA BLA BLA BLA BLA BLA BLA BLA BLA BLA BLA BLA BLA BLA BLA BLA BLA BLA 
BLA BLA BLA BLA BLA BLA BLA BLA BLA BLA BLA BLA BLA BLA BLA BLA BLA BLA BLA BLA 
BLA BLA BLA BLA BLA BLA BLA BLA BLA BLA BLA BLA BLA BLA BLA BLA BLA BLA BLA BLA 
BLA BLA BLA BLA BLA BLA BLA BLA BLA BLA BLA BLA BLA BLA BLA BLA BLA BLA BLA BLA 
BLA BLA BLA BLA BLA BLA BLA BLA BLA BLA BLA BLA BLA BLA BLA BLA BLA BLA BLA BLA 
BLA BLA BLA BLA BLA BLA BLA BLA BLA BLA BLA BLA BLA BLA BLA BLA BLA BLA BLA BLA 
BLA BLA BLA BLA BLA BLA BLA BLA BLA BLA BLA BLA BLA BLA BLA BLA BLA BLA BLA BLA 
BLA BLA BLA BLA BLA BLA BLA BLA BLA BLA BLA BLA BLA BLA BLA BLA BLA BLA BLA BLA 
BLA BLA BLA BLA BLA BLA BLA BLA BLA BLA BLA BLA BLA BLA BLA BLA BLA BLA BLA BLA 
BLA BLA BLA BLA BLA BLA BLA BLA BLA BLA BLA BLA BLA BLA BLA BLA BLA BLA BLA BLA 
BLA BLA BLA BLA BLA BLA BLA BLA BLA BLA BLA BLA BLA BLA BLA BLA BLA BLA BLA BLA 
BLA BLA BLA BLA BLA BLA BLA BLA BLA BLA BLA BLA BLA BLA BLA BLA BLA BLA BLA BLA 
BLA BLA BLA BLA BLA BLA BLA BLA BLA BLA BLA BLA BLA BLA BLA BLA BLA BLA BLA BLA 
BLA BLA BLA BLA BLA BLA BLA BLA BLA BLA BLA BLA BLA BLA BLA BLA BLA BLA BLA BLA 
BLA BLA BLA BLA BLA BLA BLA BLA BLA BLA BLA BLA BLA BLA BLA BLA BLA BLA BLA BLA 
BLA BLA BLA BLA BLA BLA BLA BLA BLA BLA BLA BLA BLA BLA BLA BLA BLA BLA BLA BLA 
BLA BLA BLA BLA BLA BLA BLA BLA BLA BLA BLA BLA BLA BLA BLA BLA BLA BLA BLA BLA 
BLA BLA BLA BLA BLA BLA BLA BLA BLA BLA BLA BLA BLA BLA BLA BLA BLA BLA BLA BLA 
BLA BLA BLA BLA BLA BLA BLA BLA BLA BLA BLA BLA BLA BLA BLA BLA BLA BLA BLA BLA 
BLA BLA BLA BLA BLA BLA BLA BLA BLA BLA BLA BLA BLA BLA BLA BLA BLA BLA BLA BLA 
BLA BLA BLA BLA BLA BLA BLA BLA BLA BLA BLA BLA BLA BLA BLA BLA BLA BLA BLA BLA 
BLA BLA BLA BLA BLA BLA BLA BLA BLA BLA BLA BLA BLA BLA BLA BLA BLA BLA BLA BLA 
BLA BLA BLA BLA BLA BLA BLA BLA BLA BLA BLA BLA BLA BLA BLA BLA BLA BLA BLA BLA 
BLA BLA BLA BLA BLA BLA BLA BLA BLA BLA BLA BLA BLA BLA BLA BLA BLA BLA BLA BLA 
BLA BLA BLA BLA BLA BLA BLA BLA BLA BLA BLA BLA BLA BLA BLA BLA BLA BLA BLA BLA 
BLA BLA BLA BLA BLA BLA BLA BLA BLA BLA BLA BLA BLA BLA BLA BLA BLA BLA BLA BLA 
BLA BLA BLA BLA BLA BLA BLA BLA BLA BLA BLA BLA BLA BLA BLA BLA BLA BLA BLA BLA 
BLA BLA BLA BLA BLA BLA BLA BLA BLA BLA BLA BLA BLA BLA BLA BLA BLA BLA BLA BLA 
BLA BLA BLA BLA BLA BLA BLA BLA BLA BLA BLA BLA BLA BLA BLA BLA BLA BLA BLA BLA 
BLA BLA BLA BLA BLA BLA BLA BLA BLA BLA BLA BLA BLA BLA BLA BLA BLA BLA BLA BLA 
BLA BLA BLA BLA BLA BLA BLA BLA BLA BLA BLA BLA BLA BLA BLA BLA BLA BLA BLA BLA 
BLA BLA BLA BLA BLA BLA BLA BLA BLA BLA BLA BLA BLA BLA BLA BLA BLA BLA BLA BLA 
BLA BLA BLA BLA BLA BLA BLA BLA BLA BLA BLA BLA BLA BLA BLA BLA BLA BLA BLA BLA 
BLA BLA BLA BLA BLA BLA BLA BLA BLA BLA BLA BLA BLA BLA BLA BLA BLA BLA BLA BLA 
BLA BLA BLA BLA BLA BLA BLA BLA BLA BLA BLA BLA BLA BLA BLA BLA BLA BLA BLA BLA 
BLA BLA BLA BLA BLA BLA BLA BLA BLA BLA BLA BLA BLA BLA BLA BLA BLA BLA BLA BLA 
BLA BLA BLA BLA BLA BLA BLA BLA BLA BLA BLA BLA BLA BLA BLA BLA BLA BLA BLA BLA 
BLA BLA BLA BLA BLA BLA BLA BLA BLA BLA BLA BLA BLA BLA BLA BLA BLA BLA BLA BLA 
BLA BLA BLA BLA BLA BLA BLA BLA BLA BLA BLA BLA BLA BLA BLA BLA BLA BLA BLA BLA 
BLA BLA BLA BLA BLA BLA BLA BLA BLA BLA BLA BLA BLA BLA BLA BLA BLA BLA BLA BLA 
BLA BLA BLA BLA BLA BLA BLA BLA BLA BLA BLA BLA BLA BLA BLA BLA BLA BLA BLA BLA 
BLA BLA BLA BLA BLA BLA BLA BLA BLA BLA BLA BLA BLA BLA BLA BLA BLA BLA BLA BLA 
BLA BLA BLA BLA BLA BLA BLA BLA BLA BLA BLA BLA BLA BLA BLA BLA BLA BLA BLA BLA 
BLA BLA BLA BLA BLA BLA BLA BLA BLA BLA BLA BLA BLA BLA BLA BLA BLA BLA BLA BLA 
BLA BLA BLA BLA BLA BLA BLA BLA BLA BLA BLA BLA BLA BLA BLA BLA BLA BLA BLA BLA 
BLA BLA BLA BLA BLA BLA BLA BLA BLA BLA BLA BLA BLA BLA BLA BLA BLA BLA BLA BLA 
BLA BLA BLA BLA BLA BLA BLA BLA BLA BLA BLA BLA BLA BLA BLA BLA BLA BLA BLA BLA 
BLA BLA BLA BLA BLA BLA BLA BLA BLA BLA BLA BLA BLA BLA BLA BLA BLA BLA BLA BLA 
BLA BLA BLA BLA BLA BLA BLA BLA BLA BLA BLA BLA BLA BLA BLA BLA BLA BLA BLA BLA 
BLA BLA BLA BLA BLA BLA BLA BLA BLA BLA BLA BLA BLA BLA BLA BLA BLA BLA BLA BLA 
BLA BLA BLA BLA BLA BLA BLA BLA BLA BLA BLA BLA BLA BLA BLA BLA BLA BLA BLA BLA 
BLA BLA BLA BLA BLA BLA BLA BLA BLA BLA BLA BLA BLA BLA BLA BLA BLA BLA BLA BLA 
BLA BLA BLA BLA BLA BLA BLA BLA BLA BLA BLA BLA BLA BLA BLA BLA BLA BLA BLA BLA 
BLA BLA BLA BLA BLA BLA BLA BLA BLA BLA BLA BLA BLA BLA BLA BLA BLA BLA BLA BLA 
BLA BLA BLA BLA BLA BLA BLA BLA BLA BLA BLA BLA BLA BLA BLA BLA BLA BLA BLA BLA 
BLA BLA BLA BLA BLA BLA BLA BLA BLA BLA BLA BLA BLA BLA BLA BLA BLA BLA BLA BLA 
BLA BLA BLA BLA BLA BLA BLA BLA BLA BLA BLA BLA BLA BLA BLA BLA BLA BLA BLA BLA 
BLA BLA BLA BLA BLA BLA BLA BLA BLA BLA BLA BLA BLA BLA BLA BLA BLA BLA BLA BLA 
BLA BLA BLA BLA BLA BLA BLA BLA BLA BLA BLA BLA BLA BLA BLA BLA BLA BLA BLA BLA 
BLA BLA BLA BLA BLA BLA BLA BLA BLA BLA BLA BLA BLA BLA BLA BLA BLA BLA BLA BLA 
BLA BLA BLA BLA BLA BLA BLA BLA BLA BLA BLA BLA BLA BLA BLA BLA BLA BLA BLA BLA 
BLA BLA BLA BLA BLA BLA BLA BLA BLA BLA BLA BLA BLA BLA BLA BLA BLA BLA BLA BLA 
BLA BLA BLA BLA BLA BLA BLA BLA BLA BLA BLA BLA BLA BLA BLA BLA BLA BLA BLA BLA 
BLA BLA BLA BLA BLA BLA BLA BLA BLA BLA BLA BLA BLA BLA BLA BLA BLA BLA BLA BLA 
BLA BLA BLA BLA BLA BLA BLA BLA BLA BLA BLA BLA BLA BLA BLA BLA BLA BLA BLA BLA 
BLA BLA BLA BLA BLA BLA BLA BLA BLA BLA BLA BLA BLA BLA BLA BLA BLA BLA BLA BLA 
BLA BLA BLA BLA BLA BLA BLA BLA BLA BLA BLA BLA BLA BLA BLA BLA BLA BLA BLA BLA 
BLA BLA BLA BLA BLA BLA BLA BLA BLA BLA BLA BLA BLA BLA BLA BLA BLA BLA BLA BLA 
BLA BLA BLA BLA BLA BLA BLA BLA BLA BLA BLA BLA BLA BLA BLA BLA BLA BLA BLA BLA 
BLA BLA BLA BLA BLA BLA BLA BLA BLA BLA BLA BLA BLA BLA BLA BLA BLA BLA BLA BLA 
BLA BLA BLA BLA BLA BLA BLA BLA BLA BLA BLA BLA BLA BLA BLA BLA BLA BLA BLA BLA 
BLA BLA BLA BLA BLA BLA BLA BLA BLA BLA BLA BLA BLA BLA BLA BLA BLA BLA BLA BLA 
BLA BLA BLA BLA BLA BLA BLA BLA BLA BLA BLA BLA BLA BLA BLA BLA BLA BLA BLA BLA 
BLA BLA BLA BLA BLA BLA BLA BLA BLA BLA BLA BLA BLA BLA BLA BLA BLA BLA BLA BLA 
BLA BLA BLA BLA BLA BLA BLA BLA BLA BLA BLA BLA BLA BLA BLA BLA BLA BLA BLA BLA 
BLA BLA BLA BLA BLA BLA BLA BLA BLA BLA BLA BLA BLA BLA BLA BLA BLA BLA BLA BLA 
BLA BLA BLA BLA BLA BLA BLA BLA BLA BLA BLA BLA BLA BLA BLA BLA BLA BLA BLA BLA 
BLA BLA BLA BLA BLA BLA BLA BLA BLA BLA BLA BLA BLA BLA BLA BLA BLA BLA BLA BLA 
BLA BLA BLA BLA BLA BLA BLA BLA BLA BLA BLA BLA BLA BLA BLA BLA BLA BLA BLA BLA 
BLA BLA BLA BLA BLA BLA BLA BLA BLA BLA BLA BLA BLA BLA BLA BLA BLA BLA BLA BLA 
BLA BLA BLA BLA BLA BLA BLA BLA BLA BLA BLA BLA BLA BLA BLA BLA BLA BLA BLA BLA 
BLA BLA BLA BLA BLA BLA BLA BLA BLA BLA BLA BLA BLA BLA BLA BLA BLA BLA BLA BLA 
BLA BLA BLA BLA BLA BLA BLA BLA BLA BLA BLA BLA BLA BLA BLA BLA BLA BLA BLA BLA 
BLA BLA BLA BLA BLA BLA BLA BLA BLA BLA BLA BLA BLA BLA BLA BLA BLA BLA BLA BLA 
BLA BLA BLA BLA BLA BLA BLA BLA BLA BLA BLA BLA BLA BLA BLA BLA BLA BLA BLA BLA 
BLA BLA BLA BLA BLA BLA BLA BLA BLA BLA BLA BLA BLA BLA BLA BLA BLA BLA BLA BLA 
BLA BLA BLA BLA BLA BLA BLA BLA BLA BLA BLA BLA BLA BLA BLA BLA BLA BLA BLA BLA 
BLA BLA BLA BLA BLA BLA BLA BLA BLA BLA BLA BLA BLA BLA BLA BLA BLA BLA BLA BLA 
BLA BLA BLA BLA BLA BLA BLA BLA BLA BLA BLA BLA BLA BLA BLA BLA BLA BLA BLA BLA 
BLA BLA BLA BLA BLA BLA BLA BLA BLA BLA BLA BLA BLA BLA BLA BLA BLA BLA BLA BLA 
BLA BLA BLA BLA BLA BLA BLA BLA BLA BLA BLA BLA BLA BLA BLA BLA BLA BLA BLA BLA 
BLA BLA BLA BLA BLA BLA BLA BLA BLA BLA BLA BLA BLA BLA BLA BLA BLA BLA BLA BLA 
BLA BLA BLA BLA BLA BLA BLA BLA BLA BLA BLA BLA BLA BLA BLA BLA BLA BLA BLA BLA 
BLA BLA BLA BLA BLA BLA BLA BLA BLA BLA BLA BLA BLA BLA BLA BLA BLA BLA BLA BLA 
BLA BLA BLA BLA BLA BLA BLA BLA BLA BLA BLA BLA BLA BLA BLA BLA BLA BLA BLA BLA 
BLA BLA BLA BLA BLA BLA BLA BLA BLA BLA BLA BLA BLA BLA BLA BLA BLA BLA BLA BLA 
BLA BLA BLA BLA BLA BLA BLA BLA BLA BLA BLA BLA BLA BLA BLA BLA BLA BLA BLA BLA 
BLA BLA BLA BLA BLA BLA BLA BLA BLA BLA BLA BLA BLA BLA BLA BLA BLA BLA BLA BLA 
BLA BLA BLA BLA BLA BLA BLA BLA BLA BLA BLA BLA BLA BLA BLA BLA BLA BLA BLA BLA 
BLA BLA BLA BLA BLA BLA BLA BLA BLA BLA BLA BLA BLA BLA BLA BLA BLA BLA BLA BLA 
BLA BLA BLA BLA BLA BLA BLA BLA BLA BLA BLA BLA BLA BLA BLA BLA BLA BLA BLA BLA 
BLA BLA BLA BLA BLA BLA BLA BLA BLA BLA BLA BLA BLA BLA BLA BLA BLA BLA BLA BLA 
BLA BLA BLA BLA BLA BLA BLA BLA BLA BLA BLA BLA BLA BLA BLA BLA BLA BLA BLA BLA 
BLA BLA BLA BLA BLA BLA BLA BLA BLA BLA BLA BLA BLA BLA BLA BLA BLA BLA BLA BLA 
BLA BLA BLA BLA BLA BLA BLA BLA BLA BLA BLA BLA BLA BLA BLA BLA BLA BLA BLA BLA 
BLA BLA BLA BLA BLA BLA BLA BLA BLA BLA BLA BLA BLA BLA BLA BLA BLA BLA BLA BLA 
BLA BLA BLA BLA BLA BLA BLA BLA BLA BLA BLA BLA BLA BLA BLA BLA BLA BLA BLA BLA 
BLA BLA BLA BLA BLA BLA BLA BLA BLA BLA BLA BLA BLA BLA BLA BLA BLA BLA BLA BLA 
BLA BLA BLA BLA BLA BLA BLA BLA BLA BLA BLA BLA BLA BLA BLA BLA BLA BLA BLA BLA 
BLA BLA BLA BLA BLA BLA BLA BLA BLA BLA BLA BLA BLA BLA BLA BLA BLA BLA BLA BLA 
BLA BLA BLA BLA BLA BLA BLA BLA BLA BLA BLA BLA BLA BLA BLA BLA BLA BLA BLA BLA 
BLA BLA BLA BLA BLA BLA BLA BLA BLA BLA BLA BLA BLA BLA BLA BLA BLA BLA BLA BLA 
BLA BLA BLA BLA BLA BLA BLA BLA BLA BLA BLA BLA BLA BLA BLA BLA BLA BLA BLA BLA 
BLA BLA BLA BLA BLA BLA BLA BLA BLA BLA BLA BLA BLA BLA BLA BLA BLA BLA BLA BLA 
BLA BLA BLA BLA BLA BLA BLA BLA BLA BLA BLA BLA BLA BLA BLA BLA BLA BLA BLA BLA 
BLA BLA BLA BLA BLA BLA BLA BLA BLA BLA BLA BLA BLA BLA BLA BLA BLA BLA BLA BLA 
BLA BLA BLA BLA BLA BLA BLA BLA BLA BLA BLA BLA BLA BLA BLA BLA BLA BLA BLA BLA 
BLA BLA BLA BLA BLA BLA BLA BLA BLA BLA BLA BLA BLA BLA BLA BLA BLA BLA BLA BLA 
BLA BLA BLA BLA BLA BLA BLA BLA BLA BLA BLA BLA BLA BLA BLA BLA BLA BLA BLA BLA 
BLA BLA BLA BLA BLA BLA BLA BLA BLA BLA BLA BLA BLA BLA BLA BLA BLA BLA BLA BLA 
BLA BLA BLA BLA BLA BLA BLA BLA BLA BLA BLA BLA BLA BLA BLA BLA BLA BLA BLA BLA 
BLA BLA BLA BLA BLA BLA BLA BLA BLA BLA BLA BLA BLA BLA BLA BLA BLA BLA BLA BLA 
BLA BLA BLA BLA BLA BLA BLA BLA BLA BLA BLA BLA BLA BLA BLA BLA BLA BLA BLA BLA 
BLA BLA BLA BLA BLA BLA BLA BLA BLA BLA BLA BLA BLA BLA BLA BLA BLA BLA BLA BLA 
BLA BLA BLA BLA BLA BLA BLA BLA BLA BLA BLA BLA BLA BLA BLA BLA BLA BLA BLA BLA 
BLA BLA BLA BLA BLA BLA BLA BLA BLA BLA BLA BLA BLA BLA BLA BLA BLA BLA BLA BLA 
BLA BLA BLA BLA BLA BLA BLA BLA BLA BLA BLA BLA BLA BLA BLA BLA BLA BLA BLA BLA 
BLA BLA BLA BLA BLA BLA BLA BLA BLA BLA BLA BLA BLA BLA BLA BLA BLA BLA BLA BLA 
BLA BLA BLA BLA BLA BLA BLA BLA BLA BLA BLA BLA BLA BLA BLA BLA BLA BLA BLA BLA 
BLA BLA BLA BLA BLA BLA BLA BLA BLA BLA BLA BLA BLA BLA BLA BLA BLA BLA BLA BLA 
BLA BLA BLA BLA BLA BLA BLA BLA BLA BLA BLA BLA BLA BLA BLA BLA BLA BLA BLA BLA 
BLA BLA BLA BLA BLA BLA BLA BLA BLA BLA BLA BLA BLA BLA BLA BLA BLA BLA BLA BLA 
BLA BLA BLA BLA BLA BLA BLA BLA BLA BLA BLA BLA BLA BLA BLA BLA BLA BLA BLA BLA 
BLA BLA BLA BLA BLA BLA BLA BLA BLA BLA BLA BLA BLA BLA BLA BLA BLA BLA BLA BLA 
BLA BLA BLA BLA BLA BLA BLA BLA BLA BLA BLA BLA BLA BLA BLA BLA BLA BLA BLA BLA 
BLA BLA BLA BLA BLA BLA BLA BLA BLA BLA BLA BLA BLA BLA BLA BLA BLA BLA BLA BLA 
BLA BLA BLA BLA BLA BLA BLA BLA BLA BLA BLA BLA BLA BLA BLA BLA BLA BLA BLA BLA 
BLA BLA BLA BLA BLA BLA BLA BLA BLA BLA BLA BLA BLA BLA BLA BLA BLA BLA BLA BLA 
BLA BLA BLA BLA BLA BLA BLA BLA BLA BLA BLA BLA BLA BLA BLA BLA BLA BLA BLA BLA 
BLA BLA BLA BLA BLA BLA BLA BLA BLA BLA BLA BLA BLA BLA BLA BLA BLA BLA BLA BLA 
BLA BLA BLA BLA BLA BLA BLA BLA BLA BLA BLA BLA BLA BLA BLA BLA BLA BLA BLA BLA 
BLA BLA BLA BLA BLA BLA BLA BLA BLA BLA BLA BLA BLA BLA BLA BLA BLA BLA BLA BLA 
BLA BLA BLA BLA BLA BLA BLA BLA BLA BLA BLA BLA BLA BLA BLA BLA BLA BLA BLA BLA 
BLA BLA BLA BLA BLA BLA BLA BLA BLA BLA BLA BLA BLA BLA BLA BLA BLA BLA BLA BLA 
BLA BLA BLA BLA BLA BLA BLA BLA BLA BLA BLA BLA BLA BLA BLA BLA BLA BLA BLA BLA 
BLA BLA BLA BLA BLA BLA BLA BLA BLA BLA BLA BLA BLA BLA BLA BLA BLA BLA BLA BLA 
BLA BLA BLA BLA BLA BLA BLA BLA BLA BLA BLA BLA BLA BLA BLA BLA BLA BLA BLA BLA 
BLA BLA BLA BLA BLA BLA BLA BLA BLA BLA BLA BLA BLA BLA BLA BLA BLA BLA BLA BLA 
BLA BLA BLA BLA BLA BLA BLA BLA BLA BLA BLA BLA BLA BLA BLA BLA BLA BLA BLA BLA 
BLA BLA BLA BLA BLA BLA BLA BLA BLA BLA BLA BLA BLA BLA BLA BLA BLA BLA BLA BLA 
BLA BLA BLA BLA BLA BLA BLA BLA BLA BLA BLA BLA BLA BLA BLA BLA BLA BLA BLA BLA 
BLA BLA BLA BLA BLA BLA BLA BLA BLA BLA BLA BLA BLA BLA BLA BLA BLA BLA BLA BLA 
BLA BLA BLA BLA BLA BLA BLA BLA BLA BLA BLA BLA BLA BLA BLA BLA BLA BLA BLA BLA 
BLA BLA BLA BLA BLA BLA BLA BLA BLA BLA BLA BLA BLA BLA BLA BLA BLA BLA BLA BLA 
BLA BLA BLA BLA BLA BLA BLA BLA BLA BLA BLA BLA BLA BLA BLA BLA BLA BLA BLA BLA 
BLA BLA BLA BLA BLA BLA BLA BLA BLA BLA BLA BLA BLA BLA BLA BLA BLA BLA BLA BLA 
BLA BLA BLA BLA BLA BLA BLA BLA BLA BLA BLA BLA BLA BLA BLA BLA BLA BLA BLA BLA 
BLA BLA BLA BLA BLA BLA BLA BLA BLA BLA BLA BLA BLA BLA BLA BLA BLA BLA BLA BLA 
BLA BLA BLA BLA BLA BLA BLA BLA BLA BLA BLA BLA BLA BLA BLA BLA BLA BLA BLA BLA 
BLA BLA BLA BLA BLA BLA BLA BLA BLA BLA BLA BLA BLA BLA BLA BLA BLA BLA BLA BLA 
BLA BLA BLA BLA BLA BLA BLA BLA BLA BLA BLA BLA BLA BLA BLA BLA BLA BLA BLA BLA 
BLA BLA BLA BLA BLA BLA BLA BLA BLA BLA BLA BLA BLA BLA BLA BLA BLA BLA BLA BLA 
BLA BLA BLA BLA BLA BLA BLA BLA BLA BLA BLA BLA BLA BLA BLA BLA BLA BLA BLA BLA 
BLA BLA BLA BLA BLA BLA BLA BLA BLA BLA BLA BLA BLA BLA BLA BLA BLA BLA BLA BLA 
BLA BLA BLA BLA BLA BLA BLA BLA BLA BLA BLA BLA BLA BLA BLA BLA BLA BLA BLA BLA 
BLA BLA BLA BLA BLA BLA BLA BLA BLA BLA BLA BLA BLA BLA BLA BLA BLA BLA BLA BLA 
BLA BLA BLA BLA BLA BLA BLA BLA BLA BLA BLA BLA BLA BLA BLA BLA BLA BLA BLA BLA 
BLA BLA BLA BLA BLA BLA BLA BLA BLA BLA BLA BLA BLA BLA BLA BLA BLA BLA BLA BLA 
BLA BLA BLA BLA BLA BLA BLA BLA BLA BLA BLA BLA BLA BLA BLA BLA BLA BLA BLA BLA 
BLA BLA BLA BLA BLA BLA BLA BLA BLA BLA BLA BLA BLA BLA BLA BLA BLA BLA BLA BLA 
BLA BLA BLA BLA BLA BLA BLA BLA BLA BLA BLA BLA BLA BLA BLA BLA BLA BLA BLA BLA 
BLA BLA BLA BLA BLA BLA BLA BLA BLA BLA BLA BLA BLA BLA BLA BLA BLA BLA BLA BLA 
BLA BLA BLA BLA BLA BLA BLA BLA BLA BLA BLA BLA BLA BLA BLA BLA BLA BLA BLA BLA 
BLA BLA BLA BLA BLA BLA BLA BLA BLA BLA BLA BLA BLA BLA BLA BLA BLA BLA BLA BLA 
BLA BLA BLA BLA BLA BLA BLA BLA BLA BLA BLA BLA BLA BLA BLA BLA BLA BLA BLA BLA 
BLA BLA BLA BLA BLA BLA BLA BLA BLA BLA BLA BLA BLA BLA BLA BLA BLA BLA BLA BLA 
BLA BLA BLA BLA BLA BLA BLA BLA BLA BLA BLA BLA BLA BLA BLA BLA BLA BLA BLA BLA 
BLA BLA BLA BLA BLA BLA BLA BLA BLA BLA BLA BLA BLA BLA BLA BLA BLA BLA BLA BLA 
BLA BLA BLA BLA BLA BLA BLA BLA BLA BLA BLA BLA BLA BLA BLA BLA BLA BLA BLA BLA 
BLA BLA BLA BLA BLA BLA BLA BLA BLA BLA BLA BLA BLA BLA BLA BLA BLA BLA BLA BLA 
BLA BLA BLA BLA BLA BLA BLA BLA BLA BLA BLA BLA BLA BLA BLA BLA BLA BLA BLA BLA 
BLA BLA BLA BLA BLA BLA BLA BLA BLA BLA BLA BLA BLA BLA BLA BLA BLA BLA BLA BLA 
BLA BLA BLA BLA BLA BLA BLA BLA BLA BLA BLA BLA BLA BLA BLA BLA BLA BLA BLA BLA 
BLA BLA BLA BLA BLA BLA BLA BLA BLA BLA BLA BLA BLA BLA BLA BLA BLA BLA BLA BLA 
BLA BLA BLA BLA BLA BLA BLA BLA BLA BLA BLA BLA BLA BLA BLA BLA BLA BLA BLA BLA 
BLA BLA BLA BLA BLA BLA BLA BLA BLA BLA BLA BLA BLA BLA BLA BLA BLA BLA BLA BLA 
BLA BLA BLA BLA BLA BLA BLA BLA BLA BLA BLA BLA BLA BLA BLA BLA BLA BLA BLA BLA 
BLA BLA BLA BLA BLA BLA BLA BLA BLA BLA BLA BLA BLA BLA BLA BLA BLA BLA BLA BLA 
BLA BLA BLA BLA BLA BLA BLA BLA BLA BLA BLA BLA BLA BLA BLA BLA BLA BLA BLA BLA 
BLA BLA BLA BLA BLA BLA BLA BLA BLA BLA BLA BLA BLA BLA BLA BLA BLA BLA BLA BLA 
BLA BLA BLA BLA BLA BLA BLA BLA BLA BLA BLA BLA BLA BLA BLA BLA BLA BLA BLA BLA 
BLA BLA BLA BLA BLA BLA BLA BLA BLA BLA BLA BLA BLA BLA BLA BLA BLA BLA BLA BLA 
BLA BLA BLA BLA BLA BLA BLA BLA BLA BLA BLA BLA BLA BLA BLA BLA BLA BLA BLA BLA 
BLA BLA BLA BLA BLA BLA BLA BLA BLA BLA BLA BLA BLA BLA BLA BLA BLA BLA BLA BLA 
BLA BLA BLA BLA BLA BLA BLA BLA BLA BLA BLA BLA BLA BLA BLA BLA BLA BLA BLA BLA 
BLA BLA BLA BLA BLA BLA BLA BLA BLA BLA BLA BLA BLA BLA BLA BLA BLA BLA BLA BLA 
BLA BLA BLA BLA BLA BLA BLA BLA BLA BLA BLA BLA BLA BLA BLA BLA BLA BLA BLA BLA 
BLA BLA BLA BLA BLA BLA BLA BLA BLA BLA BLA BLA BLA BLA BLA BLA BLA BLA BLA BLA 
BLA BLA BLA BLA BLA BLA BLA BLA BLA BLA BLA BLA BLA BLA BLA BLA BLA BLA BLA BLA 
BLA BLA BLA BLA BLA BLA BLA BLA BLA BLA BLA BLA BLA BLA BLA BLA BLA BLA BLA BLA 
BLA BLA BLA BLA BLA BLA BLA BLA BLA BLA BLA BLA BLA BLA BLA BLA BLA BLA BLA BLA 
BLA BLA BLA BLA BLA BLA BLA BLA BLA BLA BLA BLA BLA BLA BLA BLA BLA BLA BLA BLA 
BLA BLA BLA BLA BLA BLA BLA BLA BLA BLA BLA BLA BLA BLA BLA BLA BLA BLA BLA BLA 
BLA BLA BLA BLA BLA BLA BLA BLA BLA BLA BLA BLA BLA BLA BLA BLA BLA BLA BLA BLA 
BLA BLA BLA BLA BLA BLA BLA BLA BLA BLA BLA BLA BLA BLA BLA BLA BLA BLA BLA BLA 
BLA BLA BLA BLA BLA BLA BLA BLA BLA BLA BLA BLA BLA BLA BLA BLA BLA BLA BLA BLA 
BLA BLA BLA BLA BLA BLA BLA BLA BLA BLA BLA BLA BLA BLA BLA BLA BLA BLA BLA BLA 
BLA BLA BLA BLA BLA BLA BLA BLA BLA BLA BLA BLA BLA BLA BLA BLA BLA BLA BLA BLA 
BLA BLA BLA BLA BLA BLA BLA BLA BLA BLA BLA BLA BLA BLA BLA BLA BLA BLA BLA BLA 
BLA BLA BLA BLA BLA BLA BLA BLA BLA BLA BLA BLA BLA BLA BLA BLA BLA BLA BLA BLA 
BLA BLA BLA BLA BLA BLA BLA BLA BLA BLA BLA BLA BLA BLA BLA BLA BLA BLA BLA BLA 
BLA BLA BLA BLA BLA BLA BLA BLA BLA BLA BLA BLA BLA BLA BLA BLA BLA BLA BLA BLA 
BLA BLA BLA BLA BLA BLA BLA BLA BLA BLA BLA BLA BLA BLA BLA BLA BLA BLA BLA BLA 
BLA BLA BLA BLA BLA BLA BLA BLA BLA BLA BLA BLA BLA BLA BLA BLA BLA BLA BLA BLA 
BLA BLA BLA BLA BLA BLA BLA BLA BLA BLA BLA BLA BLA BLA BLA BLA BLA BLA BLA BLA 
BLA BLA BLA BLA BLA BLA BLA BLA BLA BLA BLA BLA BLA BLA BLA BLA BLA BLA BLA BLA 
BLA BLA BLA BLA BLA BLA BLA BLA BLA BLA BLA BLA BLA BLA BLA BLA BLA BLA BLA BLA 
BLA BLA BLA BLA BLA BLA BLA BLA BLA BLA BLA BLA BLA BLA BLA BLA BLA BLA BLA BLA 
BLA BLA BLA BLA BLA BLA BLA BLA BLA BLA BLA BLA BLA BLA BLA BLA BLA BLA BLA BLA 
BLA BLA BLA BLA BLA BLA BLA BLA BLA BLA BLA BLA BLA BLA BLA BLA BLA BLA BLA BLA 
BLA BLA BLA BLA BLA BLA BLA BLA BLA BLA BLA BLA BLA BLA BLA BLA BLA BLA BLA BLA 
BLA BLA BLA BLA BLA BLA BLA BLA BLA BLA BLA BLA BLA BLA BLA BLA BLA BLA BLA BLA 
BLA BLA BLA BLA BLA BLA BLA BLA BLA BLA BLA BLA BLA BLA BLA BLA BLA BLA BLA BLA 
BLA BLA BLA BLA BLA BLA BLA BLA BLA BLA BLA BLA BLA BLA BLA BLA BLA BLA BLA BLA 
BLA BLA BLA BLA BLA BLA BLA BLA BLA BLA BLA BLA BLA BLA BLA BLA BLA BLA BLA BLA 
BLA BLA BLA BLA BLA BLA BLA BLA BLA BLA BLA BLA BLA BLA BLA BLA BLA BLA BLA BLA 
BLA BLA BLA BLA BLA BLA BLA BLA BLA BLA BLA BLA BLA BLA BLA BLA BLA BLA BLA BLA 
BLA BLA BLA BLA BLA BLA BLA BLA BLA BLA BLA BLA BLA BLA BLA BLA BLA BLA BLA BLA 
BLA BLA BLA BLA BLA BLA BLA BLA BLA BLA BLA BLA BLA BLA BLA BLA BLA BLA BLA BLA 
BLA BLA BLA BLA BLA BLA BLA BLA BLA BLA BLA BLA BLA BLA BLA BLA BLA BLA BLA BLA 
BLA BLA BLA BLA BLA BLA BLA BLA BLA BLA BLA BLA BLA BLA BLA BLA BLA BLA BLA BLA 
BLA BLA BLA BLA BLA BLA BLA BLA BLA BLA BLA BLA BLA BLA BLA BLA BLA BLA BLA BLA 
BLA BLA BLA BLA BLA BLA BLA BLA BLA BLA BLA BLA BLA BLA BLA BLA BLA BLA BLA BLA 
BLA BLA BLA BLA BLA BLA BLA BLA BLA BLA BLA BLA BLA BLA BLA BLA BLA BLA BLA BLA 
BLA BLA BLA BLA BLA BLA BLA BLA BLA BLA BLA BLA BLA BLA BLA BLA BLA BLA BLA BLA 
BLA BLA BLA BLA BLA BLA BLA BLA BLA BLA BLA BLA BLA BLA BLA BLA BLA BLA BLA BLA 
BLA BLA BLA BLA BLA BLA BLA BLA BLA BLA BLA BLA BLA BLA BLA BLA BLA BLA BLA BLA 
BLA BLA BLA BLA BLA BLA BLA BLA BLA BLA BLA BLA BLA BLA BLA BLA BLA BLA BLA BLA 
BLA BLA BLA BLA BLA BLA BLA BLA BLA BLA BLA BLA BLA BLA BLA BLA BLA BLA BLA BLA 
BLA BLA BLA BLA BLA BLA BLA BLA BLA BLA BLA BLA BLA BLA BLA BLA BLA BLA BLA BLA 
BLA BLA BLA BLA BLA BLA BLA BLA BLA BLA BLA BLA BLA BLA BLA BLA BLA BLA BLA BLA 
BLA BLA BLA BLA BLA BLA BLA BLA BLA BLA BLA BLA BLA BLA BLA BLA BLA BLA BLA BLA 
BLA BLA BLA BLA BLA BLA BLA BLA BLA BLA BLA BLA BLA BLA BLA BLA BLA BLA BLA BLA 
BLA BLA BLA BLA BLA BLA BLA BLA BLA BLA BLA BLA BLA BLA BLA BLA BLA BLA BLA BLA 
BLA BLA BLA BLA BLA BLA BLA BLA BLA BLA BLA BLA BLA BLA BLA BLA BLA BLA BLA BLA 
BLA BLA BLA BLA BLA BLA BLA BLA BLA BLA BLA BLA BLA BLA BLA BLA BLA BLA BLA BLA 
BLA BLA BLA BLA BLA BLA BLA BLA BLA BLA BLA BLA BLA BLA BLA BLA BLA BLA BLA BLA 
BLA BLA BLA BLA BLA BLA BLA BLA BLA BLA BLA BLA BLA BLA BLA BLA BLA BLA BLA BLA 
BLA BLA BLA BLA BLA BLA BLA BLA BLA BLA BLA BLA BLA BLA BLA BLA BLA BLA BLA BLA 
BLA BLA BLA BLA BLA BLA BLA BLA BLA BLA BLA BLA BLA BLA BLA BLA BLA BLA BLA BLA 
BLA BLA BLA BLA BLA BLA BLA BLA BLA BLA BLA BLA BLA BLA BLA BLA BLA BLA BLA BLA 
BLA BLA BLA BLA BLA BLA BLA BLA BLA BLA BLA BLA BLA BLA BLA BLA BLA BLA BLA BLA 
BLA BLA BLA BLA BLA BLA BLA BLA BLA BLA BLA BLA BLA BLA BLA BLA BLA BLA BLA BLA 
BLA BLA BLA BLA BLA BLA BLA BLA BLA BLA BLA BLA BLA BLA BLA BLA BLA BLA BLA BLA 
BLA BLA BLA BLA BLA BLA BLA BLA BLA BLA BLA BLA BLA BLA BLA BLA BLA BLA BLA BLA 
BLA BLA BLA BLA BLA BLA BLA BLA BLA BLA BLA BLA BLA BLA BLA BLA BLA BLA BLA BLA 
BLA BLA BLA BLA BLA BLA BLA BLA BLA BLA BLA BLA BLA BLA BLA BLA BLA BLA BLA BLA 
BLA BLA BLA BLA BLA BLA BLA BLA BLA BLA BLA BLA BLA BLA BLA BLA BLA BLA BLA BLA 
BLA BLA BLA BLA BLA BLA BLA BLA BLA BLA BLA BLA BLA BLA BLA BLA BLA BLA BLA BLA 
BLA BLA BLA BLA BLA BLA BLA BLA BLA BLA BLA BLA BLA BLA BLA BLA BLA BLA BLA BLA 
BLA BLA BLA BLA BLA BLA BLA BLA BLA BLA BLA BLA BLA BLA BLA BLA BLA BLA BLA BLA 
BLA BLA BLA BLA BLA BLA BLA BLA BLA BLA BLA BLA BLA BLA BLA BLA BLA BLA BLA BLA 
BLA BLA BLA BLA BLA BLA BLA BLA BLA BLA BLA BLA BLA BLA BLA BLA BLA BLA BLA BLA 
BLA BLA BLA BLA BLA BLA BLA BLA BLA BLA BLA BLA BLA BLA BLA BLA BLA BLA BLA BLA 
BLA BLA BLA BLA BLA BLA BLA BLA BLA BLA BLA BLA BLA BLA BLA BLA BLA BLA BLA BLA 
BLA BLA BLA BLA BLA BLA BLA BLA BLA BLA BLA BLA BLA BLA BLA BLA BLA BLA BLA BLA 
BLA BLA BLA BLA BLA BLA BLA BLA BLA BLA BLA BLA BLA BLA BLA BLA BLA BLA BLA BLA 
BLA BLA BLA BLA BLA BLA BLA BLA BLA BLA BLA BLA BLA BLA BLA BLA BLA BLA BLA BLA 
BLA BLA BLA BLA BLA BLA BLA BLA BLA BLA BLA BLA BLA BLA BLA BLA BLA BLA BLA BLA 
BLA BLA BLA BLA BLA BLA BLA BLA BLA BLA BLA BLA BLA BLA BLA BLA BLA BLA BLA BLA 
BLA BLA BLA BLA BLA BLA BLA BLA BLA BLA BLA BLA BLA BLA BLA BLA BLA BLA BLA BLA 
BLA BLA BLA BLA BLA BLA BLA BLA BLA BLA BLA BLA BLA BLA BLA BLA BLA BLA BLA BLA 
BLA BLA BLA BLA BLA BLA BLA BLA BLA BLA BLA BLA BLA BLA BLA BLA BLA BLA BLA BLA 
BLA BLA BLA BLA BLA BLA BLA BLA BLA BLA BLA BLA BLA BLA BLA BLA BLA BLA BLA BLA 
BLA BLA BLA BLA BLA BLA BLA BLA BLA BLA BLA BLA BLA BLA BLA BLA BLA BLA BLA BLA 
BLA BLA BLA BLA BLA BLA BLA BLA BLA BLA BLA BLA BLA BLA BLA BLA BLA BLA BLA BLA 
BLA BLA BLA BLA BLA BLA BLA BLA BLA BLA BLA BLA BLA BLA BLA BLA BLA BLA BLA BLA 
BLA BLA BLA BLA BLA BLA BLA BLA BLA BLA BLA BLA BLA BLA BLA BLA BLA BLA BLA BLA 
BLA BLA BLA BLA BLA BLA BLA BLA BLA BLA BLA BLA BLA BLA BLA BLA BLA BLA BLA BLA 
BLA BLA BLA BLA BLA BLA BLA BLA BLA BLA BLA BLA BLA BLA BLA BLA BLA BLA BLA BLA 
BLA BLA BLA BLA BLA BLA BLA BLA BLA BLA BLA BLA BLA BLA BLA BLA BLA BLA BLA BLA 
BLA BLA BLA BLA BLA BLA BLA BLA BLA BLA BLA BLA BLA BLA BLA BLA BLA BLA BLA BLA 
BLA BLA BLA BLA BLA BLA BLA BLA BLA BLA BLA BLA BLA BLA BLA BLA BLA BLA BLA BLA 
BLA BLA BLA BLA BLA BLA BLA BLA BLA BLA BLA BLA BLA BLA BLA BLA BLA BLA BLA BLA 
BLA BLA BLA BLA BLA BLA BLA BLA BLA BLA BLA BLA BLA BLA BLA BLA BLA BLA BLA BLA 
BLA BLA BLA BLA BLA BLA BLA BLA BLA BLA BLA BLA BLA BLA BLA BLA BLA BLA BLA BLA 
BLA BLA BLA BLA BLA BLA BLA BLA BLA BLA BLA BLA BLA BLA BLA BLA BLA BLA BLA BLA 
BLA BLA BLA BLA BLA BLA BLA BLA BLA BLA BLA BLA BLA BLA BLA BLA BLA BLA BLA BLA 
BLA BLA BLA BLA BLA BLA BLA BLA BLA BLA BLA BLA BLA BLA BLA BLA BLA BLA BLA BLA 
BLA BLA BLA BLA BLA BLA BLA BLA BLA BLA BLA BLA BLA BLA BLA BLA BLA BLA BLA BLA 
BLA BLA BLA BLA BLA BLA BLA BLA BLA BLA BLA BLA BLA BLA BLA BLA BLA BLA BLA BLA 
BLA BLA BLA BLA BLA BLA BLA BLA BLA BLA BLA BLA BLA BLA BLA BLA BLA BLA BLA BLA 
BLA BLA BLA BLA BLA BLA BLA BLA BLA BLA BLA BLA BLA BLA BLA BLA BLA BLA BLA BLA 
BLA BLA BLA BLA BLA BLA BLA BLA BLA BLA BLA BLA BLA BLA BLA BLA BLA BLA BLA BLA 
BLA BLA BLA BLA BLA BLA BLA BLA BLA BLA BLA BLA BLA BLA BLA BLA BLA BLA BLA BLA 
BLA BLA BLA BLA BLA BLA BLA BLA BLA BLA BLA BLA BLA BLA BLA BLA BLA BLA BLA BLA 
BLA BLA BLA BLA BLA BLA BLA BLA BLA BLA BLA BLA BLA BLA BLA BLA BLA BLA BLA BLA 
BLA BLA BLA BLA BLA BLA BLA BLA BLA BLA BLA BLA BLA BLA BLA BLA BLA BLA BLA BLA 
BLA BLA BLA BLA BLA BLA BLA BLA BLA BLA BLA BLA BLA BLA BLA BLA BLA BLA BLA BLA 
BLA BLA BLA BLA BLA BLA BLA BLA BLA BLA BLA BLA BLA BLA BLA BLA BLA BLA BLA BLA 
BLA BLA BLA BLA BLA BLA BLA BLA BLA BLA BLA BLA BLA BLA BLA BLA BLA BLA BLA BLA 
BLA BLA BLA BLA BLA BLA BLA BLA BLA BLA BLA BLA BLA BLA BLA BLA BLA BLA BLA BLA 
BLA BLA BLA BLA BLA BLA BLA BLA BLA BLA BLA BLA BLA BLA BLA BLA BLA BLA BLA BLA 
BLA BLA BLA BLA BLA BLA BLA BLA BLA BLA BLA BLA BLA BLA BLA BLA BLA BLA BLA BLA 
BLA BLA BLA BLA BLA BLA BLA BLA BLA BLA BLA BLA BLA BLA BLA BLA BLA BLA BLA BLA 
BLA BLA BLA BLA BLA BLA BLA BLA BLA BLA BLA BLA BLA BLA BLA BLA BLA BLA BLA BLA 
BLA BLA BLA BLA BLA BLA BLA BLA BLA BLA BLA BLA BLA BLA BLA BLA BLA BLA BLA BLA 
BLA BLA BLA BLA BLA BLA BLA BLA BLA BLA BLA BLA BLA BLA BLA BLA BLA BLA BLA BLA 
BLA BLA BLA BLA BLA BLA BLA BLA BLA BLA BLA BLA BLA BLA BLA BLA BLA BLA BLA BLA 
BLA BLA BLA BLA BLA BLA BLA BLA BLA BLA BLA BLA BLA BLA BLA BLA BLA BLA BLA BLA 
BLA BLA BLA BLA BLA BLA BLA BLA BLA BLA BLA BLA BLA BLA BLA BLA BLA BLA BLA BLA 
BLA BLA BLA BLA BLA BLA BLA BLA BLA BLA BLA BLA BLA BLA BLA BLA BLA BLA BLA BLA 
BLA BLA BLA BLA BLA BLA BLA BLA BLA BLA BLA BLA BLA BLA BLA BLA BLA BLA BLA BLA 
BLA BLA BLA BLA BLA BLA BLA BLA BLA BLA BLA BLA BLA BLA BLA BLA BLA BLA BLA BLA 
BLA BLA BLA BLA BLA BLA BLA BLA BLA BLA BLA BLA BLA BLA BLA BLA BLA BLA BLA BLA 
BLA BLA BLA BLA BLA BLA BLA BLA BLA BLA BLA BLA BLA BLA BLA BLA BLA BLA BLA BLA 
BLA BLA BLA BLA BLA BLA BLA BLA BLA BLA BLA BLA BLA BLA BLA BLA BLA BLA BLA BLA 
BLA BLA BLA BLA BLA BLA BLA BLA BLA BLA BLA BLA BLA BLA BLA BLA BLA BLA BLA BLA 
BLA BLA BLA BLA BLA BLA BLA BLA BLA BLA BLA BLA BLA BLA BLA BLA BLA BLA BLA BLA 
BLA BLA BLA BLA BLA BLA BLA BLA BLA BLA BLA BLA BLA BLA BLA BLA BLA BLA BLA BLA 
BLA BLA BLA BLA BLA BLA BLA BLA BLA BLA BLA BLA BLA BLA BLA BLA BLA BLA BLA BLA 
BLA BLA BLA BLA BLA BLA BLA BLA BLA BLA BLA BLA BLA BLA BLA BLA BLA BLA BLA BLA 
BLA BLA BLA BLA BLA BLA BLA BLA BLA BLA BLA BLA BLA BLA BLA BLA BLA BLA BLA BLA 
BLA BLA BLA BLA BLA BLA BLA BLA BLA BLA BLA BLA BLA BLA BLA BLA BLA BLA BLA BLA 
BLA BLA BLA BLA BLA BLA BLA BLA BLA BLA BLA BLA BLA BLA BLA BLA BLA BLA BLA BLA 
BLA BLA BLA BLA BLA BLA BLA BLA BLA BLA BLA BLA BLA BLA BLA BLA BLA BLA BLA BLA 
BLA BLA BLA BLA BLA BLA BLA BLA BLA BLA BLA BLA BLA BLA BLA BLA BLA BLA BLA BLA 
BLA BLA BLA BLA BLA BLA BLA BLA BLA BLA BLA BLA BLA BLA BLA BLA BLA BLA BLA BLA 
BLA BLA BLA BLA BLA BLA BLA BLA BLA BLA BLA BLA BLA BLA BLA BLA BLA BLA BLA BLA 
BLA BLA BLA BLA BLA BLA BLA BLA BLA BLA BLA BLA BLA BLA BLA BLA BLA BLA BLA BLA 
BLA BLA BLA BLA BLA BLA BLA BLA BLA BLA BLA BLA BLA BLA BLA BLA BLA BLA BLA BLA 
BLA BLA BLA BLA BLA BLA BLA BLA BLA BLA BLA BLA BLA BLA BLA BLA BLA BLA BLA BLA 
BLA BLA BLA BLA BLA BLA BLA BLA BLA BLA BLA BLA BLA BLA BLA BLA BLA BLA BLA BLA 
BLA BLA BLA BLA BLA BLA BLA BLA BLA BLA BLA BLA BLA BLA BLA BLA BLA BLA BLA BLA 
BLA BLA BLA BLA BLA BLA BLA BLA BLA BLA BLA BLA BLA BLA BLA BLA BLA BLA BLA BLA 
BLA BLA BLA BLA BLA BLA BLA BLA BLA BLA BLA BLA BLA BLA BLA BLA BLA BLA BLA BLA 
BLA BLA BLA BLA BLA BLA BLA BLA BLA BLA BLA BLA BLA BLA BLA BLA BLA BLA BLA BLA 
BLA BLA BLA BLA BLA BLA BLA BLA BLA BLA BLA BLA BLA BLA BLA BLA BLA BLA BLA BLA 
BLA BLA BLA BLA BLA BLA BLA BLA BLA BLA BLA BLA BLA BLA BLA BLA BLA BLA BLA BLA 
BLA BLA BLA BLA BLA BLA BLA BLA BLA BLA BLA BLA BLA BLA BLA BLA BLA BLA BLA BLA 
BLA BLA BLA BLA BLA BLA BLA BLA BLA BLA BLA BLA BLA BLA BLA BLA BLA BLA BLA BLA 
BLA BLA BLA BLA BLA BLA BLA BLA BLA BLA BLA BLA BLA BLA BLA BLA BLA BLA BLA BLA 
BLA BLA BLA BLA BLA BLA BLA BLA BLA BLA BLA BLA BLA BLA BLA BLA BLA BLA BLA BLA 
BLA BLA BLA BLA BLA BLA BLA BLA BLA BLA BLA BLA BLA BLA BLA BLA BLA BLA BLA BLA 
BLA BLA BLA BLA BLA BLA BLA BLA BLA BLA BLA BLA BLA BLA BLA BLA BLA BLA BLA BLA 
BLA BLA BLA BLA BLA BLA BLA BLA BLA BLA BLA BLA BLA BLA BLA BLA BLA BLA BLA BLA 
BLA BLA BLA BLA BLA BLA BLA BLA BLA BLA BLA BLA BLA BLA BLA BLA BLA BLA BLA BLA 
BLA BLA BLA BLA BLA BLA BLA BLA BLA BLA BLA BLA BLA BLA BLA BLA BLA BLA BLA BLA 
BLA BLA BLA BLA BLA BLA BLA BLA BLA BLA BLA BLA BLA BLA BLA BLA BLA BLA BLA BLA 
BLA BLA BLA BLA BLA BLA BLA BLA BLA BLA BLA BLA BLA BLA BLA BLA BLA BLA BLA BLA 
BLA BLA BLA BLA BLA BLA BLA BLA BLA BLA BLA BLA BLA BLA BLA BLA BLA BLA BLA BLA 
BLA BLA BLA BLA BLA BLA BLA BLA BLA BLA BLA BLA BLA BLA BLA BLA BLA BLA BLA BLA 
BLA BLA BLA BLA BLA BLA BLA BLA BLA BLA BLA BLA BLA BLA BLA BLA BLA BLA BLA BLA 
BLA BLA BLA BLA BLA BLA BLA BLA BLA BLA BLA BLA BLA BLA BLA BLA BLA BLA BLA BLA 
BLA BLA BLA BLA BLA BLA BLA BLA BLA BLA BLA BLA BLA BLA BLA BLA BLA BLA BLA BLA 
BLA BLA BLA BLA BLA BLA BLA BLA BLA BLA BLA BLA BLA BLA BLA BLA BLA BLA BLA BLA 
BLA BLA BLA BLA BLA BLA BLA BLA BLA BLA BLA BLA BLA BLA BLA BLA BLA BLA BLA BLA 
BLA BLA BLA BLA BLA BLA BLA BLA BLA BLA BLA BLA BLA BLA BLA BLA BLA BLA BLA BLA 
BLA BLA BLA BLA BLA BLA BLA BLA BLA BLA BLA BLA BLA BLA BLA BLA BLA BLA BLA BLA 
BLA BLA BLA BLA BLA BLA BLA BLA BLA BLA BLA BLA BLA BLA BLA BLA BLA BLA BLA BLA 
BLA BLA BLA BLA BLA BLA BLA BLA BLA BLA BLA BLA BLA BLA BLA BLA BLA BLA BLA BLA 
BLA BLA BLA BLA BLA BLA BLA BLA BLA BLA BLA BLA BLA BLA BLA BLA BLA BLA BLA BLA 
BLA BLA BLA BLA BLA BLA BLA BLA BLA BLA BLA BLA BLA BLA BLA BLA BLA BLA BLA BLA 
BLA BLA BLA BLA BLA BLA BLA BLA BLA BLA BLA BLA BLA BLA BLA BLA BLA BLA BLA BLA 
BLA BLA BLA BLA BLA BLA BLA BLA BLA BLA BLA BLA BLA BLA BLA BLA BLA BLA BLA BLA 
BLA BLA BLA BLA BLA BLA BLA BLA BLA BLA BLA BLA BLA BLA BLA BLA BLA BLA BLA BLA 
BLA BLA BLA BLA BLA BLA BLA BLA BLA BLA BLA BLA BLA BLA BLA BLA BLA BLA BLA BLA 
BLA BLA BLA BLA BLA BLA BLA BLA BLA BLA BLA BLA BLA BLA BLA BLA BLA BLA BLA BLA 
BLA BLA BLA BLA BLA BLA BLA BLA BLA BLA BLA BLA BLA BLA BLA BLA BLA BLA BLA BLA 
BLA BLA BLA BLA BLA BLA BLA BLA BLA BLA BLA BLA BLA BLA BLA BLA BLA BLA BLA BLA 
BLA BLA BLA BLA BLA BLA BLA BLA BLA BLA BLA BLA BLA BLA BLA BLA BLA BLA BLA BLA 
BLA BLA BLA BLA BLA BLA BLA BLA BLA BLA BLA BLA BLA BLA BLA BLA BLA BLA BLA BLA 
BLA BLA BLA BLA BLA BLA BLA BLA BLA BLA BLA BLA BLA BLA BLA BLA BLA BLA BLA BLA 
BLA BLA BLA BLA BLA BLA BLA BLA BLA BLA BLA BLA BLA BLA BLA BLA BLA BLA BLA BLA 
BLA BLA BLA BLA BLA BLA BLA BLA BLA BLA BLA BLA BLA BLA BLA BLA BLA BLA BLA BLA 
BLA BLA BLA BLA BLA BLA BLA BLA BLA BLA BLA BLA BLA BLA BLA BLA BLA BLA BLA BLA 
BLA BLA BLA BLA BLA BLA BLA BLA BLA BLA BLA BLA BLA BLA BLA BLA BLA BLA BLA BLA 
BLA BLA BLA BLA BLA BLA BLA BLA BLA BLA BLA BLA BLA BLA BLA BLA BLA BLA BLA BLA 
BLA BLA BLA BLA BLA BLA BLA BLA BLA BLA BLA BLA BLA BLA BLA BLA BLA BLA BLA BLA 
BLA BLA BLA BLA BLA BLA BLA BLA BLA BLA BLA BLA BLA BLA BLA BLA BLA BLA BLA BLA 
BLA BLA BLA BLA BLA BLA BLA BLA BLA BLA BLA BLA BLA BLA BLA BLA BLA BLA BLA BLA 
BLA BLA BLA BLA BLA BLA BLA BLA BLA BLA BLA BLA BLA BLA BLA BLA BLA BLA BLA BLA 
BLA BLA BLA BLA BLA BLA BLA BLA BLA BLA BLA BLA BLA BLA BLA BLA BLA BLA BLA BLA 
BLA BLA BLA BLA BLA BLA BLA BLA BLA BLA BLA BLA BLA BLA BLA BLA BLA BLA BLA BLA 
BLA BLA BLA BLA BLA BLA BLA BLA BLA BLA BLA BLA BLA BLA BLA BLA BLA BLA BLA BLA 
BLA BLA BLA BLA BLA BLA BLA BLA BLA BLA BLA BLA BLA BLA BLA BLA BLA BLA BLA BLA 
BLA BLA BLA BLA BLA BLA BLA BLA BLA BLA BLA BLA BLA BLA BLA BLA BLA BLA BLA BLA 
BLA BLA BLA BLA BLA BLA BLA BLA BLA BLA BLA BLA BLA BLA BLA BLA BLA BLA BLA BLA 
BLA BLA BLA BLA BLA BLA BLA BLA BLA BLA BLA BLA BLA BLA BLA BLA BLA BLA BLA BLA 
BLA BLA BLA BLA BLA BLA BLA BLA BLA BLA BLA BLA BLA BLA BLA BLA BLA BLA BLA BLA 
BLA BLA BLA BLA BLA BLA BLA BLA BLA BLA BLA BLA BLA BLA BLA BLA BLA BLA BLA BLA 
BLA BLA BLA BLA BLA BLA BLA BLA BLA BLA BLA BLA BLA BLA BLA BLA BLA BLA BLA BLA 
BLA BLA BLA BLA BLA BLA BLA BLA BLA BLA BLA BLA BLA BLA BLA BLA BLA BLA BLA BLA 
BLA BLA BLA BLA BLA BLA BLA BLA BLA BLA BLA BLA BLA BLA BLA BLA BLA BLA BLA BLA 
BLA BLA BLA BLA BLA BLA BLA BLA BLA BLA BLA BLA BLA BLA BLA BLA BLA BLA BLA BLA 
BLA BLA BLA BLA BLA BLA BLA BLA BLA BLA BLA BLA BLA BLA BLA BLA BLA BLA BLA BLA 
BLA BLA BLA BLA BLA BLA BLA BLA BLA BLA BLA BLA BLA BLA BLA BLA BLA BLA BLA BLA 
BLA BLA BLA BLA BLA BLA BLA BLA BLA BLA BLA BLA BLA BLA BLA BLA BLA BLA BLA BLA 
BLA BLA BLA BLA BLA BLA BLA BLA BLA BLA BLA BLA BLA BLA BLA BLA BLA BLA BLA BLA 
BLA BLA BLA BLA BLA BLA BLA BLA BLA BLA BLA BLA BLA BLA BLA BLA BLA BLA BLA BLA 
BLA BLA BLA BLA BLA BLA BLA BLA BLA BLA BLA BLA BLA BLA BLA BLA BLA BLA BLA BLA 
BLA BLA BLA BLA BLA BLA BLA BLA BLA BLA BLA BLA BLA BLA BLA BLA BLA BLA BLA BLA 
BLA BLA BLA BLA BLA BLA BLA BLA BLA BLA BLA BLA BLA BLA BLA BLA BLA BLA BLA BLA 
BLA BLA BLA BLA BLA BLA BLA BLA BLA BLA BLA BLA BLA BLA BLA BLA BLA BLA BLA BLA 
BLA BLA BLA BLA BLA BLA BLA BLA BLA BLA BLA BLA BLA BLA BLA BLA BLA BLA BLA BLA 
BLA BLA BLA BLA BLA BLA BLA BLA BLA BLA BLA BLA BLA BLA BLA BLA BLA BLA BLA BLA 
BLA BLA BLA BLA BLA BLA BLA BLA BLA BLA BLA BLA BLA BLA BLA BLA BLA BLA BLA BLA 
BLA BLA BLA BLA BLA BLA BLA BLA BLA BLA BLA BLA BLA BLA BLA BLA BLA BLA BLA BLA 
BLA BLA BLA BLA BLA BLA BLA BLA BLA BLA BLA BLA BLA BLA BLA BLA BLA BLA BLA BLA 
BLA BLA BLA BLA BLA BLA BLA BLA BLA BLA BLA BLA BLA BLA BLA BLA BLA BLA BLA BLA 
BLA BLA BLA BLA BLA BLA BLA BLA BLA BLA BLA BLA BLA BLA BLA BLA BLA BLA BLA BLA 
BLA BLA BLA BLA BLA BLA BLA BLA BLA BLA BLA BLA BLA BLA BLA BLA BLA BLA BLA BLA 
BLA BLA BLA BLA BLA BLA BLA BLA BLA BLA BLA BLA BLA BLA BLA BLA BLA BLA BLA BLA 
BLA BLA BLA BLA BLA BLA BLA BLA BLA BLA BLA BLA BLA BLA BLA BLA BLA BLA BLA BLA 
BLA BLA BLA BLA BLA BLA BLA BLA BLA BLA BLA BLA BLA BLA BLA BLA BLA BLA BLA BLA 
BLA BLA BLA BLA BLA BLA BLA BLA BLA BLA BLA BLA BLA BLA BLA BLA BLA BLA BLA BLA 
BLA BLA BLA BLA BLA BLA BLA BLA BLA BLA BLA BLA BLA BLA BLA BLA BLA BLA BLA BLA 
BLA BLA BLA BLA BLA BLA BLA BLA BLA BLA BLA BLA BLA BLA BLA BLA BLA BLA BLA BLA 
BLA BLA BLA BLA BLA BLA BLA BLA BLA BLA BLA BLA BLA BLA BLA BLA BLA BLA BLA BLA 
BLA BLA BLA BLA BLA BLA BLA BLA BLA BLA BLA BLA BLA BLA BLA BLA BLA BLA BLA BLA 
BLA BLA BLA BLA BLA BLA BLA BLA BLA BLA BLA BLA BLA BLA BLA BLA BLA BLA BLA BLA 
BLA BLA BLA BLA BLA BLA BLA BLA BLA BLA BLA BLA BLA BLA BLA BLA BLA BLA BLA BLA 
BLA BLA BLA BLA BLA BLA BLA BLA BLA BLA BLA BLA BLA BLA BLA BLA BLA BLA BLA BLA 
BLA BLA BLA BLA BLA BLA BLA BLA BLA BLA BLA BLA BLA BLA BLA BLA BLA BLA BLA BLA 
BLA BLA BLA BLA BLA BLA BLA BLA BLA BLA BLA BLA BLA BLA BLA BLA BLA BLA BLA BLA 
BLA BLA BLA BLA BLA BLA BLA BLA BLA BLA BLA BLA BLA BLA BLA BLA BLA BLA BLA BLA 
BLA BLA BLA BLA BLA BLA BLA BLA BLA BLA BLA BLA BLA BLA BLA BLA BLA BLA BLA BLA 
BLA BLA BLA BLA BLA BLA BLA BLA BLA BLA BLA BLA BLA BLA BLA BLA BLA BLA BLA BLA 
BLA BLA BLA BLA BLA BLA BLA BLA BLA BLA BLA BLA BLA BLA BLA BLA BLA BLA BLA BLA 
BLA BLA BLA BLA BLA BLA BLA BLA BLA BLA BLA BLA BLA BLA BLA BLA BLA BLA BLA BLA 
BLA BLA BLA BLA BLA BLA BLA BLA BLA BLA BLA BLA BLA BLA BLA BLA BLA BLA BLA BLA 
BLA BLA BLA BLA BLA BLA BLA BLA BLA BLA BLA BLA BLA BLA BLA BLA BLA BLA BLA BLA 
BLA BLA BLA BLA BLA BLA BLA BLA BLA BLA BLA BLA BLA BLA BLA BLA BLA BLA BLA BLA 
BLA BLA BLA BLA BLA BLA BLA BLA BLA BLA BLA BLA BLA BLA BLA BLA BLA BLA BLA BLA 
BLA BLA BLA BLA BLA BLA BLA BLA BLA BLA BLA BLA BLA BLA BLA BLA BLA BLA BLA BLA 
BLA BLA BLA BLA BLA BLA BLA BLA BLA BLA BLA BLA BLA BLA BLA BLA BLA BLA BLA BLA 
BLA BLA BLA BLA BLA BLA BLA BLA BLA BLA BLA BLA BLA BLA BLA BLA BLA BLA BLA BLA 
BLA BLA BLA BLA BLA BLA BLA BLA BLA BLA BLA BLA BLA BLA BLA BLA BLA BLA BLA BLA 
BLA BLA BLA BLA BLA BLA BLA BLA BLA BLA BLA BLA BLA BLA BLA BLA BLA BLA BLA BLA 
BLA BLA BLA BLA BLA BLA BLA BLA BLA BLA BLA BLA BLA BLA BLA BLA BLA BLA BLA BLA 
BLA BLA BLA BLA BLA BLA BLA BLA BLA BLA BLA BLA BLA BLA BLA BLA BLA BLA BLA BLA 
BLA BLA BLA BLA BLA BLA BLA BLA BLA BLA BLA BLA BLA BLA BLA BLA BLA BLA BLA BLA 
BLA BLA BLA BLA BLA BLA BLA BLA BLA BLA BLA BLA BLA BLA BLA BLA BLA BLA BLA BLA 
BLA BLA BLA BLA BLA BLA BLA BLA BLA BLA BLA BLA BLA BLA BLA BLA BLA BLA BLA BLA 
BLA BLA BLA BLA BLA BLA BLA BLA BLA BLA BLA BLA BLA BLA BLA BLA BLA BLA BLA BLA 
BLA BLA BLA BLA BLA BLA BLA BLA BLA BLA BLA BLA BLA BLA BLA BLA BLA BLA BLA BLA 
BLA BLA BLA BLA BLA BLA BLA BLA BLA BLA BLA BLA BLA BLA BLA BLA BLA BLA BLA BLA 
BLA BLA BLA BLA BLA BLA BLA BLA BLA BLA BLA BLA BLA BLA BLA BLA BLA BLA BLA BLA 
BLA BLA BLA BLA BLA BLA BLA BLA BLA BLA BLA BLA BLA BLA BLA BLA BLA BLA BLA BLA 
BLA BLA BLA BLA BLA BLA BLA BLA BLA BLA BLA BLA BLA BLA BLA BLA BLA BLA BLA BLA 
BLA BLA BLA BLA BLA BLA BLA BLA BLA BLA BLA BLA BLA BLA BLA BLA BLA BLA BLA BLA 
BLA BLA BLA BLA BLA BLA BLA BLA BLA BLA BLA BLA BLA BLA BLA BLA BLA BLA BLA BLA 
BLA BLA BLA BLA BLA BLA BLA BLA BLA BLA BLA BLA BLA BLA BLA BLA BLA BLA BLA BLA 
BLA BLA BLA BLA BLA BLA BLA BLA BLA BLA BLA BLA BLA BLA BLA BLA BLA BLA BLA BLA 
BLA BLA BLA BLA BLA BLA BLA BLA BLA BLA BLA BLA BLA BLA BLA BLA BLA BLA BLA BLA 
BLA BLA BLA BLA BLA BLA BLA BLA BLA BLA BLA BLA BLA BLA BLA BLA BLA BLA BLA BLA 
BLA BLA BLA BLA BLA BLA BLA BLA BLA BLA BLA BLA BLA BLA BLA BLA BLA BLA BLA BLA 
BLA BLA BLA BLA BLA BLA BLA BLA BLA BLA BLA BLA BLA BLA BLA BLA BLA BLA BLA BLA 
BLA BLA BLA BLA BLA BLA BLA BLA BLA BLA BLA BLA BLA BLA BLA BLA BLA BLA BLA BLA 
BLA BLA BLA BLA BLA BLA BLA BLA BLA BLA BLA BLA BLA BLA BLA BLA BLA BLA BLA BLA 
BLA BLA BLA BLA BLA BLA BLA BLA BLA BLA BLA BLA BLA BLA BLA BLA BLA BLA BLA BLA 
BLA BLA BLA BLA BLA BLA BLA BLA BLA BLA BLA BLA BLA BLA BLA BLA BLA BLA BLA BLA 
BLA BLA BLA BLA BLA BLA BLA BLA BLA BLA BLA BLA BLA BLA BLA BLA BLA BLA BLA BLA 
BLA BLA BLA BLA BLA BLA BLA BLA BLA BLA BLA BLA BLA BLA BLA BLA BLA BLA BLA BLA 
BLA BLA BLA BLA BLA BLA BLA BLA BLA BLA BLA BLA BLA BLA BLA BLA BLA BLA BLA BLA 
BLA BLA BLA BLA BLA BLA BLA BLA BLA BLA BLA BLA BLA BLA BLA BLA BLA BLA BLA BLA 
BLA BLA BLA BLA BLA BLA BLA BLA BLA BLA BLA BLA BLA BLA BLA BLA BLA BLA BLA BLA 
BLA BLA BLA BLA BLA BLA BLA BLA BLA BLA BLA BLA BLA BLA BLA BLA BLA BLA BLA BLA 
BLA BLA BLA BLA BLA BLA BLA BLA BLA BLA BLA BLA BLA BLA BLA BLA BLA BLA BLA BLA 
BLA BLA BLA BLA BLA BLA BLA BLA BLA BLA BLA BLA BLA BLA BLA BLA BLA BLA BLA BLA 
BLA BLA BLA BLA BLA BLA BLA BLA BLA BLA BLA BLA BLA BLA BLA BLA BLA BLA BLA BLA 
BLA BLA BLA BLA BLA BLA BLA BLA BLA BLA BLA BLA BLA BLA BLA BLA BLA BLA BLA BLA 
BLA BLA BLA BLA BLA BLA BLA BLA BLA BLA BLA BLA BLA BLA BLA BLA BLA BLA BLA BLA 
BLA BLA BLA BLA BLA BLA BLA BLA BLA BLA BLA BLA BLA BLA BLA BLA BLA BLA BLA BLA 
BLA BLA BLA BLA BLA BLA BLA BLA BLA BLA BLA BLA BLA BLA BLA BLA BLA BLA BLA BLA 
BLA BLA BLA BLA BLA BLA BLA BLA BLA BLA BLA BLA BLA BLA BLA BLA BLA BLA BLA BLA 
BLA BLA BLA BLA BLA BLA BLA BLA BLA BLA BLA BLA BLA BLA BLA BLA BLA BLA BLA BLA 
BLA BLA BLA BLA BLA BLA BLA BLA BLA BLA BLA BLA BLA BLA BLA BLA BLA BLA BLA BLA 
BLA BLA BLA BLA BLA BLA BLA BLA BLA BLA BLA BLA BLA BLA BLA BLA BLA BLA BLA BLA 
BLA BLA BLA BLA BLA BLA BLA BLA BLA BLA BLA BLA BLA BLA BLA BLA BLA BLA BLA BLA 
BLA BLA BLA BLA BLA BLA BLA BLA BLA BLA BLA BLA BLA BLA BLA BLA BLA BLA BLA BLA 
BLA BLA BLA BLA BLA BLA BLA BLA BLA BLA BLA BLA BLA BLA BLA BLA BLA BLA BLA BLA 
BLA BLA BLA BLA BLA BLA BLA BLA BLA BLA BLA BLA BLA BLA BLA BLA BLA BLA BLA BLA 
BLA BLA BLA BLA BLA BLA BLA BLA BLA BLA BLA BLA BLA BLA BLA BLA BLA BLA BLA BLA 
BLA BLA BLA BLA BLA BLA BLA BLA BLA BLA BLA BLA BLA BLA BLA BLA BLA BLA BLA BLA 
BLA BLA BLA BLA BLA BLA BLA BLA BLA BLA BLA BLA BLA BLA BLA BLA BLA BLA BLA BLA 
BLA BLA BLA BLA BLA BLA BLA BLA BLA BLA BLA BLA BLA BLA BLA BLA BLA BLA BLA BLA 
BLA BLA BLA BLA BLA BLA BLA BLA BLA BLA BLA BLA BLA BLA BLA BLA BLA BLA BLA BLA 
BLA BLA BLA BLA BLA BLA BLA BLA BLA BLA BLA BLA BLA BLA BLA BLA BLA BLA BLA BLA 
BLA BLA BLA BLA BLA BLA BLA BLA BLA BLA BLA BLA BLA BLA BLA BLA BLA BLA BLA BLA 
BLA BLA BLA BLA BLA BLA BLA BLA BLA BLA BLA BLA BLA BLA BLA BLA BLA BLA BLA BLA 
BLA BLA BLA BLA BLA BLA BLA BLA BLA BLA BLA BLA BLA BLA BLA BLA BLA BLA BLA BLA 
BLA BLA BLA BLA BLA BLA BLA BLA BLA BLA BLA BLA BLA BLA BLA BLA BLA BLA BLA BLA 
BLA BLA BLA BLA BLA BLA BLA BLA BLA BLA BLA BLA BLA BLA BLA BLA BLA BLA BLA BLA 
BLA BLA BLA BLA BLA BLA BLA BLA BLA BLA BLA BLA BLA BLA BLA BLA BLA BLA BLA BLA 
BLA BLA BLA BLA BLA BLA BLA BLA BLA BLA BLA BLA BLA BLA BLA BLA BLA BLA BLA BLA 
BLA BLA BLA BLA BLA BLA BLA BLA BLA BLA BLA BLA BLA BLA BLA BLA BLA BLA BLA BLA 
BLA BLA BLA BLA BLA BLA BLA BLA BLA BLA BLA BLA BLA BLA BLA BLA BLA BLA BLA BLA 
BLA BLA BLA BLA BLA BLA BLA BLA BLA BLA BLA BLA BLA BLA BLA BLA BLA BLA BLA BLA 
BLA BLA BLA BLA BLA BLA BLA BLA BLA BLA BLA BLA BLA BLA BLA BLA BLA BLA BLA BLA 
BLA BLA BLA BLA BLA BLA BLA BLA BLA BLA BLA BLA BLA BLA BLA BLA BLA BLA BLA BLA 
BLA BLA BLA BLA BLA BLA BLA BLA BLA BLA BLA BLA BLA BLA BLA BLA BLA BLA BLA BLA 
BLA BLA BLA BLA BLA BLA BLA BLA BLA BLA BLA BLA BLA BLA BLA BLA BLA BLA BLA BLA 
BLA BLA BLA BLA BLA BLA BLA BLA BLA BLA BLA BLA BLA BLA BLA BLA BLA BLA BLA BLA 
BLA BLA BLA BLA BLA BLA BLA BLA BLA BLA BLA BLA BLA BLA BLA BLA BLA BLA BLA BLA 
BLA BLA BLA BLA BLA BLA BLA BLA BLA BLA BLA BLA BLA BLA BLA BLA BLA BLA BLA BLA 
BLA BLA BLA BLA BLA BLA BLA BLA BLA BLA BLA BLA BLA BLA BLA BLA BLA BLA BLA BLA 
BLA BLA BLA BLA BLA BLA BLA BLA BLA BLA BLA BLA BLA BLA BLA BLA BLA BLA BLA BLA 
BLA BLA BLA BLA BLA BLA BLA BLA BLA BLA BLA BLA BLA BLA BLA BLA BLA BLA BLA BLA 
BLA BLA BLA BLA BLA BLA BLA BLA BLA BLA BLA BLA BLA BLA BLA BLA BLA BLA BLA BLA 
BLA BLA BLA BLA BLA BLA BLA BLA BLA BLA BLA BLA BLA BLA BLA BLA BLA BLA BLA BLA 
BLA BLA BLA BLA BLA BLA BLA BLA BLA BLA BLA BLA BLA BLA BLA BLA BLA BLA BLA BLA 
BLA BLA BLA BLA BLA BLA BLA BLA BLA BLA BLA BLA BLA BLA BLA BLA BLA BLA BLA BLA 
BLA BLA BLA BLA BLA BLA BLA BLA BLA BLA BLA BLA BLA BLA BLA BLA BLA BLA BLA BLA 
BLA BLA BLA BLA BLA BLA BLA BLA BLA BLA BLA BLA BLA BLA BLA BLA BLA BLA BLA BLA 
BLA BLA BLA BLA BLA BLA BLA BLA BLA BLA BLA BLA BLA BLA BLA BLA BLA BLA BLA BLA 
BLA BLA BLA BLA BLA BLA BLA BLA BLA BLA BLA BLA BLA BLA BLA BLA BLA BLA BLA BLA 
BLA BLA BLA BLA BLA BLA BLA BLA BLA BLA BLA BLA BLA BLA BLA BLA BLA BLA BLA BLA 
BLA BLA BLA BLA BLA BLA BLA BLA BLA BLA BLA BLA BLA BLA BLA BLA BLA BLA BLA BLA 
BLA BLA BLA BLA BLA BLA BLA BLA BLA BLA BLA BLA BLA BLA BLA BLA BLA BLA BLA BLA 
BLA BLA BLA BLA BLA BLA BLA BLA BLA BLA BLA BLA BLA BLA BLA BLA BLA BLA BLA BLA 
BLA BLA BLA BLA BLA BLA BLA BLA BLA BLA BLA BLA BLA BLA BLA BLA BLA BLA BLA BLA 
BLA BLA BLA BLA BLA BLA BLA BLA BLA BLA BLA BLA BLA BLA BLA BLA BLA BLA BLA BLA 
BLA BLA BLA BLA BLA BLA BLA BLA BLA BLA BLA BLA BLA BLA BLA BLA BLA BLA BLA BLA 
BLA BLA BLA BLA BLA BLA BLA BLA BLA BLA BLA BLA BLA BLA BLA BLA BLA BLA BLA BLA 
BLA BLA BLA BLA BLA BLA BLA BLA BLA BLA BLA BLA BLA BLA BLA BLA BLA BLA BLA BLA 
BLA BLA BLA BLA BLA BLA BLA BLA BLA BLA BLA BLA BLA BLA BLA BLA BLA BLA BLA BLA 
BLA BLA BLA BLA BLA BLA BLA BLA BLA BLA BLA BLA BLA BLA BLA BLA BLA BLA BLA BLA 
BLA BLA BLA BLA BLA BLA BLA BLA BLA BLA BLA BLA BLA BLA BLA BLA BLA BLA BLA BLA 
BLA BLA BLA BLA BLA BLA BLA BLA BLA BLA BLA BLA BLA BLA BLA BLA BLA BLA BLA BLA 
BLA BLA BLA BLA BLA BLA BLA BLA BLA BLA BLA BLA BLA BLA BLA BLA BLA BLA BLA BLA 
BLA BLA BLA BLA BLA BLA BLA BLA BLA BLA BLA BLA BLA BLA BLA BLA BLA BLA BLA BLA 
BLA BLA BLA BLA BLA BLA BLA BLA BLA BLA BLA BLA BLA BLA BLA BLA BLA BLA BLA BLA 
BLA BLA BLA BLA BLA BLA BLA BLA BLA BLA BLA BLA BLA BLA BLA BLA BLA BLA BLA BLA 
BLA BLA BLA BLA BLA BLA BLA BLA BLA BLA BLA BLA BLA BLA BLA BLA BLA BLA BLA BLA 
BLA BLA BLA BLA BLA BLA BLA BLA BLA BLA BLA BLA BLA BLA BLA BLA BLA BLA BLA BLA 
BLA BLA BLA BLA BLA BLA BLA BLA BLA BLA BLA BLA BLA BLA BLA BLA BLA BLA BLA BLA 
BLA BLA BLA BLA BLA BLA BLA BLA BLA BLA BLA BLA BLA BLA BLA BLA BLA BLA BLA BLA 
BLA BLA BLA BLA BLA BLA BLA BLA BLA BLA BLA BLA BLA BLA BLA BLA BLA BLA BLA BLA 
BLA BLA BLA BLA BLA BLA BLA BLA BLA BLA BLA BLA BLA BLA BLA BLA BLA BLA BLA BLA 
BLA BLA BLA BLA BLA BLA BLA BLA BLA BLA BLA BLA BLA BLA BLA BLA BLA BLA BLA BLA 
BLA BLA BLA BLA BLA BLA BLA BLA BLA BLA BLA BLA BLA BLA BLA BLA BLA BLA BLA BLA 
BLA BLA BLA BLA BLA BLA BLA BLA BLA BLA BLA BLA BLA BLA BLA BLA BLA BLA BLA BLA 
BLA BLA BLA BLA BLA BLA BLA BLA BLA BLA BLA BLA BLA BLA BLA BLA BLA BLA BLA BLA 
BLA BLA BLA BLA BLA BLA BLA BLA BLA BLA BLA BLA BLA BLA BLA BLA BLA BLA BLA BLA 
BLA BLA BLA BLA BLA BLA BLA BLA BLA BLA BLA BLA BLA BLA BLA BLA BLA BLA BLA BLA 
BLA BLA BLA BLA BLA BLA BLA BLA BLA BLA BLA BLA BLA BLA BLA BLA BLA BLA BLA BLA 
BLA BLA BLA BLA BLA BLA BLA BLA BLA BLA BLA BLA BLA BLA BLA BLA BLA BLA BLA BLA 
BLA BLA BLA BLA BLA BLA BLA BLA BLA BLA BLA BLA BLA BLA BLA BLA BLA BLA BLA BLA 
BLA BLA BLA BLA BLA BLA BLA BLA BLA BLA BLA BLA BLA BLA BLA BLA BLA BLA BLA BLA 
BLA BLA BLA BLA BLA BLA BLA BLA BLA BLA BLA BLA BLA BLA BLA BLA BLA BLA BLA BLA 
BLA BLA BLA BLA BLA BLA BLA BLA BLA BLA BLA BLA BLA BLA BLA BLA BLA BLA BLA BLA 
BLA BLA BLA BLA BLA BLA BLA BLA BLA BLA BLA BLA BLA BLA BLA BLA BLA BLA BLA BLA 
BLA BLA BLA BLA BLA BLA BLA BLA BLA BLA BLA BLA BLA BLA BLA BLA BLA BLA BLA BLA 
BLA BLA BLA BLA BLA BLA BLA BLA BLA BLA BLA BLA BLA BLA BLA BLA BLA BLA BLA BLA 
BLA BLA BLA BLA BLA BLA BLA BLA BLA BLA BLA BLA BLA BLA BLA BLA BLA BLA BLA BLA 
BLA BLA BLA BLA BLA BLA BLA BLA BLA BLA BLA BLA BLA BLA BLA BLA BLA BLA BLA BLA 
BLA BLA BLA BLA BLA BLA BLA BLA BLA BLA BLA BLA BLA BLA BLA BLA BLA BLA BLA BLA 
BLA BLA BLA BLA BLA BLA BLA BLA BLA BLA BLA BLA BLA BLA BLA BLA BLA BLA BLA BLA 
BLA BLA BLA BLA BLA BLA BLA BLA BLA BLA BLA BLA BLA BLA BLA BLA BLA BLA BLA BLA 
BLA BLA BLA BLA BLA BLA BLA BLA BLA BLA BLA BLA BLA BLA BLA BLA BLA BLA BLA BLA 
BLA BLA BLA BLA BLA BLA BLA BLA BLA BLA BLA BLA BLA BLA BLA BLA BLA BLA BLA BLA 
BLA BLA BLA BLA BLA BLA BLA BLA BLA BLA BLA BLA BLA BLA BLA BLA BLA BLA BLA BLA 
BLA BLA BLA BLA BLA BLA BLA BLA BLA BLA BLA BLA BLA BLA BLA BLA BLA BLA BLA BLA 
BLA BLA BLA BLA BLA BLA BLA BLA BLA BLA BLA BLA BLA BLA BLA BLA BLA BLA BLA BLA 
BLA BLA BLA BLA BLA BLA BLA BLA BLA BLA BLA BLA BLA BLA BLA BLA BLA BLA BLA BLA 
BLA BLA BLA BLA BLA BLA BLA BLA BLA BLA BLA BLA BLA BLA BLA BLA BLA BLA BLA BLA 
BLA BLA BLA BLA BLA BLA BLA BLA BLA BLA BLA BLA BLA BLA BLA BLA BLA BLA BLA BLA 
BLA BLA BLA BLA BLA BLA BLA BLA BLA BLA BLA BLA BLA BLA BLA BLA BLA BLA BLA BLA 
BLA BLA BLA BLA BLA BLA BLA BLA BLA BLA BLA BLA BLA BLA BLA BLA BLA BLA BLA BLA 
BLA BLA BLA BLA BLA BLA BLA BLA BLA BLA BLA BLA BLA BLA BLA BLA BLA BLA BLA BLA 
BLA BLA BLA BLA BLA BLA BLA BLA BLA BLA BLA BLA BLA BLA BLA BLA BLA BLA BLA BLA 
BLA BLA BLA BLA BLA BLA BLA BLA BLA BLA BLA BLA BLA BLA BLA BLA BLA BLA BLA BLA 
BLA BLA BLA BLA BLA BLA BLA BLA BLA BLA BLA BLA BLA BLA BLA BLA BLA BLA BLA BLA 
BLA BLA BLA BLA BLA BLA BLA BLA BLA BLA BLA BLA BLA BLA BLA BLA BLA BLA BLA BLA 
BLA BLA BLA BLA BLA BLA BLA BLA BLA BLA BLA BLA BLA BLA BLA BLA BLA BLA BLA BLA 
BLA BLA BLA BLA BLA BLA BLA BLA BLA BLA BLA BLA BLA BLA BLA BLA BLA BLA BLA BLA 
BLA BLA BLA BLA BLA BLA BLA BLA BLA BLA BLA BLA BLA BLA BLA BLA BLA BLA BLA BLA 
BLA BLA BLA BLA BLA BLA BLA BLA BLA BLA BLA BLA BLA BLA BLA BLA BLA BLA BLA BLA 
BLA BLA BLA BLA BLA BLA BLA BLA BLA BLA BLA BLA BLA BLA BLA BLA BLA BLA BLA BLA 
BLA BLA BLA BLA BLA BLA BLA BLA BLA BLA BLA BLA BLA BLA BLA BLA BLA BLA BLA BLA 
BLA BLA BLA BLA BLA BLA BLA BLA BLA BLA BLA BLA BLA BLA BLA BLA BLA BLA BLA BLA 
BLA BLA BLA BLA BLA BLA BLA BLA BLA BLA BLA BLA BLA BLA BLA BLA BLA BLA BLA BLA 
BLA BLA BLA BLA BLA BLA BLA BLA BLA BLA BLA BLA BLA BLA BLA BLA BLA BLA BLA BLA 
BLA BLA BLA BLA BLA BLA BLA BLA BLA BLA BLA BLA BLA BLA BLA BLA BLA BLA BLA BLA 
BLA BLA BLA BLA BLA BLA BLA BLA BLA BLA BLA BLA BLA BLA BLA BLA BLA BLA BLA BLA 
BLA BLA BLA BLA BLA BLA BLA BLA BLA BLA BLA BLA BLA BLA BLA BLA BLA BLA BLA BLA 
BLA BLA BLA BLA BLA BLA BLA BLA BLA BLA BLA BLA BLA BLA BLA BLA BLA BLA BLA BLA 
BLA BLA BLA BLA BLA BLA BLA BLA BLA BLA BLA BLA BLA BLA BLA BLA BLA BLA BLA BLA 
BLA BLA BLA BLA BLA BLA BLA BLA BLA BLA BLA BLA BLA BLA BLA BLA BLA BLA BLA BLA 
BLA BLA BLA BLA BLA BLA BLA BLA BLA BLA BLA BLA BLA BLA BLA BLA BLA BLA BLA BLA 
BLA BLA BLA BLA BLA BLA BLA BLA BLA BLA BLA BLA BLA BLA BLA BLA BLA BLA BLA BLA 
BLA BLA BLA BLA BLA BLA BLA BLA BLA BLA BLA BLA BLA BLA BLA BLA BLA BLA BLA BLA 
BLA BLA BLA BLA BLA BLA BLA BLA BLA BLA BLA BLA BLA BLA BLA BLA BLA BLA BLA BLA 
BLA BLA BLA BLA BLA BLA BLA BLA BLA BLA BLA BLA BLA BLA BLA BLA BLA BLA BLA BLA 
BLA BLA BLA BLA BLA BLA BLA BLA BLA BLA BLA BLA BLA BLA BLA BLA BLA BLA BLA BLA 
BLA BLA BLA BLA BLA BLA BLA BLA BLA BLA BLA BLA BLA BLA BLA BLA BLA BLA BLA BLA 
BLA BLA BLA BLA BLA BLA BLA BLA BLA BLA BLA BLA BLA BLA BLA BLA BLA BLA BLA BLA 
BLA BLA BLA BLA BLA BLA BLA BLA BLA BLA BLA BLA BLA BLA BLA BLA BLA BLA BLA BLA 
BLA BLA BLA BLA BLA BLA BLA BLA BLA BLA BLA BLA BLA BLA BLA BLA BLA BLA BLA BLA 
BLA BLA BLA BLA BLA BLA BLA BLA BLA BLA BLA BLA BLA BLA BLA BLA BLA BLA BLA BLA 
BLA BLA BLA BLA BLA BLA BLA BLA BLA BLA BLA BLA BLA BLA BLA BLA BLA BLA BLA BLA 
BLA BLA BLA BLA BLA BLA BLA BLA BLA BLA BLA BLA BLA BLA BLA BLA BLA BLA BLA BLA 
BLA BLA BLA BLA BLA BLA BLA BLA BLA BLA BLA BLA BLA BLA BLA BLA BLA BLA BLA BLA 
BLA BLA BLA BLA BLA BLA BLA BLA BLA BLA BLA BLA BLA BLA BLA BLA BLA BLA BLA BLA 
BLA BLA BLA BLA BLA BLA BLA BLA BLA BLA BLA BLA BLA BLA BLA BLA BLA BLA BLA BLA 
BLA BLA BLA BLA BLA BLA BLA BLA BLA BLA BLA BLA BLA BLA BLA BLA BLA BLA BLA BLA 
BLA BLA BLA BLA BLA BLA BLA BLA BLA BLA BLA BLA BLA BLA BLA BLA BLA BLA BLA BLA 
BLA BLA BLA BLA BLA BLA BLA BLA BLA BLA BLA BLA BLA BLA BLA BLA BLA BLA BLA BLA 
BLA BLA BLA BLA BLA BLA BLA BLA BLA BLA BLA BLA BLA BLA BLA BLA BLA BLA BLA BLA 
BLA BLA BLA BLA BLA BLA BLA BLA BLA BLA BLA BLA BLA BLA BLA BLA BLA BLA BLA BLA 
BLA BLA BLA BLA BLA BLA BLA BLA BLA BLA BLA BLA BLA BLA BLA BLA BLA BLA BLA BLA 
BLA BLA BLA BLA BLA BLA BLA BLA BLA BLA BLA BLA BLA BLA BLA BLA BLA BLA BLA BLA 
BLA BLA BLA BLA BLA BLA BLA BLA BLA BLA BLA BLA BLA BLA BLA BLA BLA BLA BLA BLA 
BLA BLA BLA BLA BLA BLA BLA BLA BLA BLA BLA BLA BLA BLA BLA BLA BLA BLA BLA BLA 
BLA BLA BLA BLA BLA BLA BLA BLA BLA BLA BLA BLA BLA BLA BLA BLA BLA BLA BLA BLA 
BLA BLA BLA BLA BLA BLA BLA BLA BLA BLA BLA BLA BLA BLA BLA BLA BLA BLA BLA BLA 
BLA BLA BLA BLA BLA BLA BLA BLA BLA BLA BLA BLA BLA BLA BLA BLA BLA BLA BLA BLA 
BLA BLA BLA BLA BLA BLA BLA BLA BLA BLA BLA BLA BLA BLA BLA BLA BLA BLA BLA BLA 
BLA BLA BLA BLA BLA BLA BLA BLA BLA BLA BLA BLA BLA BLA BLA BLA BLA BLA BLA BLA 
BLA BLA BLA BLA BLA BLA BLA BLA BLA BLA BLA BLA BLA BLA BLA BLA BLA BLA BLA BLA 
BLA BLA BLA BLA BLA BLA BLA BLA BLA BLA BLA BLA BLA BLA BLA BLA BLA BLA BLA BLA 
BLA BLA BLA BLA BLA BLA BLA BLA BLA BLA BLA BLA BLA BLA BLA BLA BLA BLA BLA BLA 
BLA BLA BLA BLA BLA BLA BLA BLA BLA BLA BLA BLA BLA BLA BLA BLA BLA BLA BLA BLA 
BLA BLA BLA BLA BLA BLA BLA BLA BLA BLA BLA BLA BLA BLA BLA BLA BLA BLA BLA BLA 
BLA BLA BLA BLA BLA BLA BLA BLA BLA BLA BLA BLA BLA BLA BLA BLA BLA BLA BLA BLA 
BLA BLA BLA BLA BLA BLA BLA BLA BLA BLA BLA BLA BLA BLA BLA BLA BLA BLA BLA BLA 
BLA BLA BLA BLA BLA BLA BLA BLA BLA BLA BLA BLA BLA BLA BLA BLA BLA BLA BLA BLA 
BLA BLA BLA BLA BLA BLA BLA BLA BLA BLA BLA BLA BLA BLA BLA BLA BLA BLA BLA BLA 
BLA BLA BLA BLA BLA BLA BLA BLA BLA BLA BLA BLA BLA BLA BLA BLA BLA BLA BLA BLA 
BLA BLA BLA BLA BLA BLA BLA BLA BLA BLA BLA BLA BLA BLA BLA BLA BLA BLA BLA BLA 
BLA BLA BLA BLA BLA BLA BLA BLA BLA BLA BLA BLA BLA BLA BLA BLA BLA BLA BLA BLA 
BLA BLA BLA BLA BLA BLA BLA BLA BLA BLA BLA BLA BLA BLA BLA BLA BLA BLA BLA BLA 
BLA BLA BLA BLA BLA BLA BLA BLA BLA BLA BLA BLA BLA BLA BLA BLA BLA BLA BLA BLA 
BLA BLA BLA BLA BLA BLA BLA BLA BLA BLA BLA BLA BLA BLA BLA BLA BLA BLA BLA BLA 
BLA BLA BLA BLA BLA BLA BLA BLA BLA BLA BLA BLA BLA BLA BLA BLA BLA BLA BLA BLA 
BLA BLA BLA BLA BLA BLA BLA BLA BLA BLA BLA BLA BLA BLA BLA BLA BLA BLA BLA BLA 
BLA BLA BLA BLA BLA BLA BLA BLA BLA BLA BLA BLA BLA BLA BLA BLA BLA BLA BLA BLA 
BLA BLA BLA BLA BLA BLA BLA BLA BLA BLA BLA BLA BLA BLA BLA BLA BLA BLA BLA BLA 
BLA BLA BLA BLA BLA BLA BLA BLA BLA BLA BLA BLA BLA BLA BLA BLA BLA BLA BLA BLA 
BLA BLA BLA BLA BLA BLA BLA BLA BLA BLA BLA BLA BLA BLA BLA BLA BLA BLA BLA BLA 
BLA BLA BLA BLA BLA BLA BLA BLA BLA BLA BLA BLA BLA BLA BLA BLA BLA BLA BLA BLA 
BLA BLA BLA BLA BLA BLA BLA BLA BLA BLA BLA BLA BLA BLA BLA BLA BLA BLA BLA BLA 
BLA BLA BLA BLA BLA BLA BLA BLA BLA BLA BLA BLA BLA BLA BLA BLA BLA BLA BLA BLA 
BLA BLA BLA BLA BLA BLA BLA BLA BLA BLA BLA BLA BLA BLA BLA BLA BLA BLA BLA BLA 
BLA BLA BLA BLA BLA BLA BLA BLA BLA BLA BLA BLA BLA BLA BLA BLA BLA BLA BLA BLA 
BLA BLA BLA BLA BLA BLA BLA BLA BLA BLA BLA BLA BLA BLA BLA BLA BLA BLA BLA BLA 
BLA BLA BLA BLA BLA BLA BLA BLA BLA BLA BLA BLA BLA BLA BLA BLA BLA BLA BLA BLA 
BLA BLA BLA BLA BLA BLA BLA BLA BLA BLA BLA BLA BLA BLA BLA BLA BLA BLA BLA BLA 
BLA BLA BLA BLA BLA BLA BLA BLA BLA BLA BLA BLA BLA BLA BLA BLA BLA BLA BLA BLA 
BLA BLA BLA BLA BLA BLA BLA BLA BLA BLA BLA BLA BLA BLA BLA BLA BLA BLA BLA BLA 
BLA BLA BLA BLA BLA BLA BLA BLA BLA BLA BLA BLA BLA BLA BLA BLA BLA BLA BLA BLA 
BLA BLA BLA BLA BLA BLA BLA BLA BLA BLA BLA BLA BLA BLA BLA BLA BLA BLA BLA BLA 
BLA BLA BLA BLA BLA BLA BLA BLA BLA BLA BLA BLA BLA BLA BLA BLA BLA BLA BLA BLA 
BLA BLA BLA BLA BLA BLA BLA BLA BLA BLA BLA BLA BLA BLA BLA BLA BLA BLA BLA BLA 
BLA BLA BLA BLA BLA BLA BLA BLA BLA BLA BLA BLA BLA BLA BLA BLA BLA BLA BLA BLA 
BLA BLA BLA BLA BLA BLA BLA BLA BLA BLA BLA BLA BLA BLA BLA BLA BLA BLA BLA BLA 
BLA BLA BLA BLA BLA BLA BLA BLA BLA BLA BLA BLA BLA BLA BLA BLA BLA BLA BLA BLA 
BLA BLA BLA BLA BLA BLA BLA BLA BLA BLA BLA BLA BLA BLA BLA BLA BLA BLA BLA BLA 
BLA BLA BLA BLA BLA BLA BLA BLA BLA BLA BLA BLA BLA BLA BLA BLA BLA BLA BLA BLA 
BLA BLA BLA BLA BLA BLA BLA BLA BLA BLA BLA BLA BLA BLA BLA BLA BLA BLA BLA BLA 
BLA BLA BLA BLA BLA BLA BLA BLA BLA BLA BLA BLA BLA BLA BLA BLA BLA BLA BLA BLA 
BLA BLA BLA BLA BLA BLA BLA BLA BLA BLA BLA BLA BLA BLA BLA BLA BLA BLA BLA BLA 
BLA BLA BLA BLA BLA BLA BLA BLA BLA BLA BLA BLA BLA BLA BLA BLA BLA BLA BLA BLA 
BLA BLA BLA BLA BLA BLA BLA BLA BLA BLA BLA BLA BLA BLA BLA BLA BLA BLA BLA BLA 
BLA BLA BLA BLA BLA BLA BLA BLA BLA BLA BLA BLA BLA BLA BLA BLA BLA BLA BLA BLA 
BLA BLA BLA BLA BLA BLA BLA BLA BLA BLA BLA BLA BLA BLA BLA BLA BLA BLA BLA BLA 
BLA BLA BLA BLA BLA BLA BLA BLA BLA BLA BLA BLA BLA BLA BLA BLA BLA BLA BLA BLA 
BLA BLA BLA BLA BLA BLA BLA BLA BLA BLA BLA BLA BLA BLA BLA BLA BLA BLA BLA BLA 
BLA BLA BLA BLA BLA BLA BLA BLA BLA BLA BLA BLA BLA BLA BLA BLA BLA BLA BLA BLA 
BLA BLA BLA BLA BLA BLA BLA BLA BLA BLA BLA BLA BLA BLA BLA BLA BLA BLA BLA BLA 
BLA BLA BLA BLA BLA BLA BLA BLA BLA BLA BLA BLA BLA BLA BLA BLA BLA BLA BLA BLA 
BLA BLA BLA BLA BLA BLA BLA BLA BLA BLA BLA BLA BLA BLA BLA BLA BLA BLA BLA BLA 
BLA BLA BLA BLA BLA BLA BLA BLA BLA BLA BLA BLA BLA BLA BLA BLA BLA BLA BLA BLA 
BLA BLA BLA BLA BLA BLA BLA BLA BLA BLA BLA BLA BLA BLA BLA BLA BLA BLA BLA BLA 
BLA BLA BLA BLA BLA BLA BLA BLA BLA BLA BLA BLA BLA BLA BLA BLA BLA BLA BLA BLA 
BLA BLA BLA BLA BLA BLA BLA BLA BLA BLA BLA BLA BLA BLA BLA BLA BLA BLA BLA BLA 
BLA BLA BLA BLA BLA BLA BLA BLA BLA BLA BLA BLA BLA BLA BLA BLA BLA BLA BLA BLA 
BLA BLA BLA BLA BLA BLA BLA BLA BLA BLA BLA BLA BLA BLA BLA BLA BLA BLA BLA BLA 
BLA BLA BLA BLA BLA BLA BLA BLA BLA BLA BLA BLA BLA BLA BLA BLA BLA BLA BLA BLA 
BLA BLA BLA BLA BLA BLA BLA BLA BLA BLA BLA BLA BLA BLA BLA BLA BLA BLA BLA BLA 
BLA BLA BLA BLA BLA BLA BLA BLA BLA BLA BLA BLA BLA BLA BLA BLA BLA BLA BLA BLA 
BLA BLA BLA BLA BLA BLA BLA BLA BLA BLA BLA BLA BLA BLA BLA BLA BLA BLA BLA BLA 
BLA BLA BLA BLA BLA BLA BLA BLA BLA BLA BLA BLA BLA BLA BLA BLA BLA BLA BLA BLA 
BLA BLA BLA BLA BLA BLA BLA BLA BLA BLA BLA BLA BLA BLA BLA BLA BLA BLA BLA BLA 
BLA BLA BLA BLA BLA BLA BLA BLA BLA BLA BLA BLA BLA BLA BLA BLA BLA BLA BLA BLA 
BLA BLA BLA BLA BLA BLA BLA BLA BLA BLA BLA BLA BLA BLA BLA BLA BLA BLA BLA BLA 
BLA BLA BLA BLA BLA BLA BLA BLA BLA BLA BLA BLA BLA BLA BLA BLA BLA BLA BLA BLA 
BLA BLA BLA BLA BLA BLA BLA BLA BLA BLA BLA BLA BLA BLA BLA BLA BLA BLA BLA BLA 
BLA BLA BLA BLA BLA BLA BLA BLA BLA BLA BLA BLA BLA BLA BLA BLA BLA BLA BLA BLA 
BLA BLA BLA BLA BLA BLA BLA BLA BLA BLA BLA BLA BLA BLA BLA BLA BLA BLA BLA BLA 
BLA BLA BLA BLA BLA BLA BLA BLA BLA BLA BLA BLA BLA BLA BLA BLA BLA BLA BLA BLA 
BLA BLA BLA BLA BLA BLA BLA BLA BLA BLA BLA BLA BLA BLA BLA BLA BLA BLA BLA BLA 
BLA BLA BLA BLA BLA BLA BLA BLA BLA BLA BLA BLA BLA BLA BLA BLA BLA BLA BLA BLA 
BLA BLA BLA BLA BLA BLA BLA BLA BLA BLA BLA BLA BLA BLA BLA BLA BLA BLA BLA BLA 
BLA BLA BLA BLA BLA BLA BLA BLA BLA BLA BLA BLA BLA BLA BLA BLA BLA BLA BLA BLA 
BLA BLA BLA BLA BLA BLA BLA BLA BLA BLA BLA BLA BLA BLA BLA BLA BLA BLA BLA BLA 
BLA BLA BLA BLA BLA BLA BLA BLA BLA BLA BLA BLA BLA BLA BLA BLA BLA BLA BLA BLA 
BLA BLA BLA BLA BLA BLA BLA BLA BLA BLA BLA BLA BLA BLA BLA BLA BLA BLA BLA BLA 
BLA BLA BLA BLA BLA BLA BLA BLA BLA BLA BLA BLA BLA BLA BLA BLA BLA BLA BLA BLA 
BLA BLA BLA BLA BLA BLA BLA BLA BLA BLA BLA BLA BLA BLA BLA BLA BLA BLA BLA BLA 
BLA BLA BLA BLA BLA BLA BLA BLA BLA BLA BLA BLA BLA BLA BLA BLA BLA BLA BLA BLA 
BLA BLA BLA BLA BLA BLA BLA BLA BLA BLA BLA BLA BLA BLA BLA BLA BLA BLA BLA BLA 
BLA BLA BLA BLA BLA BLA BLA BLA BLA BLA BLA BLA BLA BLA BLA BLA BLA BLA BLA BLA 
BLA BLA BLA BLA BLA BLA BLA BLA BLA BLA BLA BLA BLA BLA BLA BLA BLA BLA BLA BLA 
BLA BLA BLA BLA BLA BLA BLA BLA BLA BLA BLA BLA BLA BLA BLA BLA BLA BLA BLA BLA 
BLA BLA BLA BLA BLA BLA BLA BLA BLA BLA BLA BLA BLA BLA BLA BLA BLA BLA BLA BLA 
BLA BLA BLA BLA BLA BLA BLA BLA BLA BLA BLA BLA BLA BLA BLA BLA BLA BLA BLA BLA 
BLA BLA BLA BLA BLA BLA BLA BLA BLA BLA BLA BLA BLA BLA BLA BLA BLA BLA BLA BLA 
BLA BLA BLA BLA BLA BLA BLA BLA BLA BLA BLA BLA BLA BLA BLA BLA BLA BLA BLA BLA 
BLA BLA BLA BLA BLA BLA BLA BLA BLA BLA BLA BLA BLA BLA BLA BLA BLA BLA BLA BLA 
BLA BLA BLA BLA BLA BLA BLA BLA BLA BLA BLA BLA BLA BLA BLA BLA BLA BLA BLA BLA 
BLA BLA BLA BLA BLA BLA BLA BLA BLA BLA BLA BLA BLA BLA BLA BLA BLA BLA BLA BLA 
BLA BLA BLA BLA BLA BLA BLA BLA BLA BLA BLA BLA BLA BLA BLA BLA BLA BLA BLA BLA 
BLA BLA BLA BLA BLA BLA BLA BLA BLA BLA BLA BLA BLA BLA BLA BLA BLA BLA BLA BLA 
BLA BLA BLA BLA BLA BLA BLA BLA BLA BLA BLA BLA BLA BLA BLA BLA BLA BLA BLA BLA 
BLA BLA BLA BLA BLA BLA BLA BLA BLA BLA BLA BLA BLA BLA BLA BLA BLA BLA BLA BLA 
BLA BLA BLA BLA BLA BLA BLA BLA BLA BLA BLA BLA BLA BLA BLA BLA BLA BLA BLA BLA 
BLA BLA BLA BLA BLA BLA BLA BLA BLA BLA BLA BLA BLA BLA BLA BLA BLA BLA BLA BLA 
BLA BLA BLA BLA BLA BLA BLA BLA BLA BLA BLA BLA BLA BLA BLA BLA BLA BLA BLA BLA 
BLA BLA BLA BLA BLA BLA BLA BLA BLA BLA BLA BLA BLA BLA BLA BLA BLA BLA BLA BLA 
BLA BLA BLA BLA BLA BLA BLA BLA BLA BLA BLA BLA BLA BLA BLA BLA BLA BLA BLA BLA 
BLA BLA BLA BLA BLA BLA BLA BLA BLA BLA BLA BLA BLA BLA BLA BLA BLA BLA BLA BLA 
BLA BLA BLA BLA BLA BLA BLA BLA BLA BLA BLA BLA BLA BLA BLA BLA BLA BLA BLA BLA 
BLA BLA BLA BLA BLA BLA BLA BLA BLA BLA BLA BLA BLA BLA BLA BLA BLA BLA BLA BLA 
BLA BLA BLA BLA BLA BLA BLA BLA BLA BLA BLA BLA BLA BLA BLA BLA BLA BLA BLA BLA 
BLA BLA BLA BLA BLA BLA BLA BLA BLA BLA BLA BLA BLA BLA BLA BLA BLA BLA BLA BLA 
BLA BLA BLA BLA BLA BLA BLA BLA BLA BLA BLA BLA BLA BLA BLA BLA BLA BLA BLA BLA 
BLA BLA BLA BLA BLA BLA BLA BLA BLA BLA BLA BLA BLA BLA BLA BLA BLA BLA BLA BLA 
BLA BLA BLA BLA BLA BLA BLA BLA BLA BLA BLA BLA BLA BLA BLA BLA BLA BLA BLA BLA 
BLA BLA BLA BLA BLA BLA BLA BLA BLA BLA BLA BLA BLA BLA BLA BLA BLA BLA BLA BLA 
BLA BLA BLA BLA BLA BLA BLA BLA BLA BLA BLA BLA BLA BLA BLA BLA BLA BLA BLA BLA 
BLA BLA BLA BLA BLA BLA BLA BLA BLA BLA BLA BLA BLA BLA BLA BLA BLA BLA BLA BLA 
BLA BLA BLA BLA BLA BLA BLA BLA BLA BLA BLA BLA BLA BLA BLA BLA BLA BLA BLA BLA 
BLA BLA BLA BLA BLA BLA BLA BLA BLA BLA BLA BLA BLA BLA BLA BLA BLA BLA BLA BLA 
BLA BLA BLA BLA BLA BLA BLA BLA BLA BLA BLA BLA BLA BLA BLA BLA BLA BLA BLA BLA 
BLA BLA BLA BLA BLA BLA BLA BLA BLA BLA BLA BLA BLA BLA BLA BLA BLA BLA BLA BLA 
BLA BLA BLA BLA BLA BLA BLA BLA BLA BLA BLA BLA BLA BLA BLA BLA BLA BLA BLA BLA 
BLA BLA BLA BLA BLA BLA BLA BLA BLA BLA BLA BLA BLA BLA BLA BLA BLA BLA BLA BLA 
BLA BLA BLA BLA BLA BLA BLA BLA BLA BLA BLA BLA BLA BLA BLA BLA BLA BLA BLA BLA 
BLA BLA BLA BLA BLA BLA BLA BLA BLA BLA BLA BLA BLA BLA BLA BLA BLA BLA BLA BLA 
BLA BLA BLA BLA BLA BLA BLA BLA BLA BLA BLA BLA BLA BLA BLA BLA BLA BLA BLA BLA 
BLA BLA BLA BLA BLA BLA BLA BLA BLA BLA BLA BLA BLA BLA BLA BLA BLA BLA BLA BLA 
BLA BLA BLA BLA BLA BLA BLA BLA BLA BLA BLA BLA BLA BLA BLA BLA BLA BLA BLA BLA 
BLA BLA BLA BLA BLA BLA BLA BLA BLA BLA BLA BLA BLA BLA BLA BLA BLA BLA BLA BLA 
BLA BLA BLA BLA BLA BLA BLA BLA BLA BLA BLA BLA BLA BLA BLA BLA BLA BLA BLA BLA 
BLA BLA BLA BLA BLA BLA BLA BLA BLA BLA BLA BLA BLA BLA BLA BLA BLA BLA BLA BLA 
BLA BLA BLA BLA BLA BLA BLA BLA BLA BLA BLA BLA BLA BLA BLA BLA BLA BLA BLA BLA 
BLA BLA BLA BLA BLA BLA BLA BLA BLA BLA BLA BLA BLA BLA BLA BLA BLA BLA BLA BLA 
BLA BLA BLA BLA BLA BLA BLA BLA BLA BLA BLA BLA BLA BLA BLA BLA BLA BLA BLA BLA 
BLA BLA BLA BLA BLA BLA BLA BLA BLA BLA BLA BLA BLA BLA BLA BLA BLA BLA BLA BLA 
BLA BLA BLA BLA BLA BLA BLA BLA BLA BLA BLA BLA BLA BLA BLA BLA BLA BLA BLA BLA 
BLA BLA BLA BLA BLA BLA BLA BLA BLA BLA BLA BLA BLA BLA BLA BLA BLA BLA BLA BLA 
BLA BLA BLA BLA BLA BLA BLA BLA BLA BLA BLA BLA BLA BLA BLA BLA BLA BLA BLA BLA 
BLA BLA BLA BLA BLA BLA BLA BLA BLA BLA BLA BLA BLA BLA BLA BLA BLA BLA BLA BLA 
BLA BLA BLA BLA BLA BLA BLA BLA BLA BLA BLA BLA BLA BLA BLA BLA BLA BLA BLA BLA 
BLA BLA BLA BLA BLA BLA BLA BLA BLA BLA BLA BLA BLA BLA BLA BLA BLA BLA BLA BLA 
BLA BLA BLA BLA BLA BLA BLA BLA BLA BLA BLA BLA BLA BLA BLA BLA BLA BLA BLA BLA 
BLA BLA BLA BLA BLA BLA BLA BLA BLA BLA BLA BLA BLA BLA BLA BLA BLA BLA BLA BLA 
BLA BLA BLA BLA BLA BLA BLA BLA BLA BLA BLA BLA BLA BLA BLA BLA BLA BLA BLA BLA 
BLA BLA BLA BLA BLA BLA BLA BLA BLA BLA BLA BLA BLA BLA BLA BLA BLA BLA BLA BLA 
BLA BLA BLA BLA BLA BLA BLA BLA BLA BLA BLA BLA BLA BLA BLA BLA BLA BLA BLA BLA 
BLA BLA BLA BLA BLA BLA BLA BLA BLA BLA BLA BLA BLA BLA BLA BLA BLA BLA BLA BLA 
BLA BLA BLA BLA BLA BLA BLA BLA BLA BLA BLA BLA BLA BLA BLA BLA BLA BLA BLA BLA 
BLA BLA BLA BLA BLA BLA BLA BLA BLA BLA BLA BLA BLA BLA BLA BLA BLA BLA BLA BLA 
BLA BLA BLA BLA BLA BLA BLA BLA BLA BLA BLA BLA BLA BLA BLA BLA BLA BLA BLA BLA 
BLA BLA BLA BLA BLA BLA BLA BLA BLA BLA BLA BLA BLA BLA BLA BLA BLA BLA BLA BLA 
BLA BLA BLA BLA BLA BLA BLA BLA BLA BLA BLA BLA BLA BLA BLA BLA BLA BLA BLA BLA 
BLA BLA BLA BLA BLA BLA BLA BLA BLA BLA BLA BLA BLA BLA BLA BLA BLA BLA BLA BLA 
BLA BLA BLA BLA BLA BLA BLA BLA BLA BLA BLA BLA BLA BLA BLA BLA BLA BLA BLA BLA 
BLA BLA BLA BLA BLA BLA BLA BLA BLA BLA BLA BLA BLA BLA BLA BLA BLA BLA BLA BLA 
BLA BLA BLA BLA BLA BLA BLA BLA BLA BLA BLA BLA BLA BLA BLA BLA BLA BLA BLA BLA 
BLA BLA BLA BLA BLA BLA BLA BLA BLA BLA BLA BLA BLA BLA BLA BLA BLA BLA BLA BLA 
BLA BLA BLA BLA BLA BLA BLA BLA BLA BLA BLA BLA BLA BLA BLA BLA BLA BLA BLA BLA 
BLA BLA BLA BLA BLA BLA BLA BLA BLA BLA BLA BLA BLA BLA BLA BLA BLA BLA BLA BLA 
BLA BLA BLA BLA BLA BLA BLA BLA BLA BLA BLA BLA BLA BLA BLA BLA BLA BLA BLA BLA 
BLA BLA BLA BLA BLA BLA BLA BLA BLA BLA BLA BLA BLA BLA BLA BLA BLA BLA BLA BLA 
BLA BLA BLA BLA BLA BLA BLA BLA BLA BLA BLA BLA BLA BLA BLA BLA BLA BLA BLA BLA 
BLA BLA BLA BLA BLA BLA BLA BLA BLA BLA BLA BLA BLA BLA BLA BLA BLA BLA BLA BLA 
BLA BLA BLA BLA BLA BLA BLA BLA BLA BLA BLA BLA BLA BLA BLA BLA BLA BLA BLA BLA 
BLA BLA BLA BLA BLA BLA BLA BLA BLA BLA BLA BLA BLA BLA BLA BLA BLA BLA BLA BLA 
BLA BLA BLA BLA BLA BLA BLA BLA BLA BLA BLA BLA BLA BLA BLA BLA BLA BLA BLA BLA 
BLA BLA BLA BLA BLA BLA BLA BLA BLA BLA BLA BLA BLA BLA BLA BLA BLA BLA BLA BLA 
BLA BLA BLA BLA BLA BLA BLA BLA BLA BLA BLA BLA BLA BLA BLA BLA BLA BLA BLA BLA 
BLA BLA BLA BLA BLA BLA BLA BLA BLA BLA BLA BLA BLA BLA BLA BLA BLA BLA BLA BLA 
BLA BLA BLA BLA BLA BLA BLA BLA BLA BLA BLA BLA BLA BLA BLA BLA BLA BLA BLA BLA 
BLA BLA BLA BLA BLA BLA BLA BLA BLA BLA BLA BLA BLA BLA BLA BLA BLA BLA BLA BLA 
BLA BLA BLA BLA BLA BLA BLA BLA BLA BLA BLA BLA BLA BLA BLA BLA BLA BLA BLA BLA 
BLA BLA BLA BLA BLA BLA BLA BLA BLA BLA BLA BLA BLA BLA BLA BLA BLA BLA BLA BLA 
BLA BLA BLA BLA BLA BLA BLA BLA BLA BLA BLA BLA BLA BLA BLA BLA BLA BLA BLA BLA 
BLA BLA BLA BLA BLA BLA BLA BLA BLA BLA BLA BLA BLA BLA BLA BLA BLA BLA BLA BLA 
BLA BLA BLA BLA BLA BLA BLA BLA BLA BLA BLA BLA BLA BLA BLA BLA BLA BLA BLA BLA 
BLA BLA BLA BLA BLA BLA BLA BLA BLA BLA BLA BLA BLA BLA BLA BLA BLA BLA BLA BLA 
BLA BLA BLA BLA BLA BLA BLA BLA BLA BLA BLA BLA BLA BLA BLA BLA BLA BLA BLA BLA 
BLA BLA BLA BLA BLA BLA BLA BLA BLA BLA BLA BLA BLA BLA BLA BLA BLA BLA BLA BLA 
BLA BLA BLA BLA BLA BLA BLA BLA BLA BLA BLA BLA BLA BLA BLA BLA BLA BLA BLA BLA 
BLA BLA BLA BLA BLA BLA BLA BLA BLA BLA BLA BLA BLA BLA BLA BLA BLA BLA BLA BLA 
BLA BLA BLA BLA BLA BLA BLA BLA BLA BLA BLA BLA BLA BLA BLA BLA BLA BLA BLA BLA 
BLA BLA BLA BLA BLA BLA BLA BLA BLA BLA BLA BLA BLA BLA BLA BLA BLA BLA BLA BLA 
BLA BLA BLA BLA BLA BLA BLA BLA BLA BLA BLA BLA BLA BLA BLA BLA BLA BLA BLA BLA 
BLA BLA BLA BLA BLA BLA BLA BLA BLA BLA BLA BLA BLA BLA BLA BLA BLA BLA BLA BLA 
BLA BLA BLA BLA BLA BLA BLA BLA BLA BLA BLA BLA BLA BLA BLA BLA BLA BLA BLA BLA 
BLA BLA BLA BLA BLA BLA BLA BLA BLA BLA BLA BLA BLA BLA BLA BLA BLA BLA BLA BLA 
BLA BLA BLA BLA BLA BLA BLA BLA BLA BLA BLA BLA BLA BLA BLA BLA BLA BLA BLA BLA 
BLA BLA BLA BLA BLA BLA BLA BLA BLA BLA BLA BLA BLA BLA BLA BLA BLA BLA BLA BLA 
BLA BLA BLA BLA BLA BLA BLA BLA BLA BLA BLA BLA BLA BLA BLA BLA BLA BLA BLA BLA 
BLA BLA BLA BLA BLA BLA BLA BLA BLA BLA BLA BLA BLA BLA BLA BLA BLA BLA BLA BLA 
BLA BLA BLA BLA BLA BLA BLA BLA BLA BLA BLA BLA BLA BLA BLA BLA BLA BLA BLA BLA 
BLA BLA BLA BLA BLA BLA BLA BLA BLA BLA BLA BLA BLA BLA BLA BLA BLA BLA BLA BLA 
BLA BLA BLA BLA BLA BLA BLA BLA BLA BLA BLA BLA BLA BLA BLA BLA BLA BLA BLA BLA 
BLA BLA BLA BLA BLA BLA BLA BLA BLA BLA BLA BLA BLA BLA BLA BLA BLA BLA BLA BLA 
BLA BLA BLA BLA BLA BLA BLA BLA BLA BLA BLA BLA BLA BLA BLA BLA BLA BLA BLA BLA 
BLA BLA BLA BLA BLA BLA BLA BLA BLA BLA BLA BLA BLA BLA BLA BLA BLA BLA BLA BLA 
BLA BLA BLA BLA BLA BLA BLA BLA BLA BLA BLA BLA BLA BLA BLA BLA BLA BLA BLA BLA 
BLA BLA BLA BLA BLA BLA BLA BLA BLA BLA BLA BLA BLA BLA BLA BLA BLA BLA BLA BLA 
BLA BLA BLA BLA BLA BLA BLA BLA BLA BLA BLA BLA BLA BLA BLA BLA BLA BLA BLA BLA 
BLA BLA BLA BLA BLA BLA BLA BLA BLA BLA BLA BLA BLA BLA BLA BLA BLA BLA BLA BLA 
BLA BLA BLA BLA BLA BLA BLA BLA BLA BLA BLA BLA BLA BLA BLA BLA BLA BLA BLA BLA 
BLA BLA BLA BLA BLA BLA BLA BLA BLA BLA BLA BLA BLA BLA BLA BLA BLA BLA BLA BLA 
BLA BLA BLA BLA BLA BLA BLA BLA BLA BLA BLA BLA BLA BLA BLA BLA BLA BLA BLA BLA 
BLA BLA BLA BLA BLA BLA BLA BLA BLA BLA BLA BLA BLA BLA BLA BLA BLA BLA BLA BLA 
BLA BLA BLA BLA BLA BLA BLA BLA BLA BLA BLA BLA BLA BLA BLA BLA BLA BLA BLA BLA 
BLA BLA BLA BLA BLA BLA BLA BLA BLA BLA BLA BLA BLA BLA BLA BLA BLA BLA BLA BLA 
BLA BLA BLA BLA BLA BLA BLA BLA BLA BLA BLA BLA BLA BLA BLA BLA BLA BLA BLA BLA 
BLA BLA BLA BLA BLA BLA BLA BLA BLA BLA BLA BLA BLA BLA BLA BLA BLA BLA BLA BLA 
BLA BLA BLA BLA BLA BLA BLA BLA BLA BLA BLA BLA BLA BLA BLA BLA BLA BLA BLA BLA 
BLA BLA BLA BLA BLA BLA BLA BLA BLA BLA BLA BLA BLA BLA BLA BLA BLA BLA BLA BLA 
BLA BLA BLA BLA BLA BLA BLA BLA BLA BLA BLA BLA BLA BLA BLA BLA BLA BLA BLA BLA 
BLA BLA BLA BLA BLA BLA BLA BLA BLA BLA BLA BLA BLA BLA BLA BLA BLA BLA BLA BLA 
BLA BLA BLA BLA BLA BLA BLA BLA BLA BLA BLA BLA BLA BLA BLA BLA BLA BLA BLA BLA 
BLA BLA BLA BLA BLA BLA BLA BLA BLA BLA BLA BLA BLA BLA BLA BLA BLA BLA BLA BLA 
BLA BLA BLA BLA BLA BLA BLA BLA BLA BLA BLA BLA BLA BLA BLA BLA BLA BLA BLA BLA 
BLA BLA BLA BLA BLA BLA BLA BLA BLA BLA BLA BLA BLA BLA BLA BLA BLA BLA BLA BLA 
BLA BLA BLA BLA BLA BLA BLA BLA BLA BLA BLA BLA BLA BLA BLA BLA BLA BLA BLA BLA 
BLA BLA BLA BLA BLA BLA BLA BLA BLA BLA BLA BLA BLA BLA BLA BLA BLA BLA BLA BLA 
BLA BLA BLA BLA BLA BLA BLA BLA BLA BLA BLA BLA BLA BLA BLA BLA BLA BLA BLA BLA 
BLA BLA BLA BLA BLA BLA BLA BLA BLA BLA BLA BLA BLA BLA BLA BLA BLA BLA BLA BLA 
BLA BLA BLA BLA BLA BLA BLA BLA BLA BLA BLA BLA BLA BLA BLA BLA BLA BLA BLA BLA 
BLA BLA BLA BLA BLA BLA BLA BLA BLA BLA BLA BLA BLA BLA BLA BLA BLA BLA BLA BLA 
BLA BLA BLA BLA BLA BLA BLA BLA BLA BLA BLA BLA BLA BLA BLA BLA BLA BLA BLA BLA 
BLA BLA BLA BLA BLA BLA BLA BLA BLA BLA BLA BLA BLA BLA BLA BLA BLA BLA BLA BLA 
BLA BLA BLA BLA BLA BLA BLA BLA BLA BLA BLA BLA BLA BLA BLA BLA BLA BLA BLA BLA 
BLA BLA BLA BLA BLA BLA BLA BLA BLA BLA BLA BLA BLA BLA BLA BLA BLA BLA BLA BLA 
BLA BLA BLA BLA BLA BLA BLA BLA BLA BLA BLA BLA BLA BLA BLA BLA BLA BLA BLA BLA 
BLA BLA BLA BLA BLA BLA BLA BLA BLA BLA BLA BLA BLA BLA BLA BLA BLA BLA BLA BLA 
BLA BLA BLA BLA BLA BLA BLA BLA BLA BLA BLA BLA BLA BLA BLA BLA BLA BLA BLA BLA 
BLA BLA BLA BLA BLA BLA BLA BLA BLA BLA BLA BLA BLA BLA BLA BLA BLA BLA BLA BLA 
BLA BLA BLA BLA BLA BLA BLA BLA BLA BLA BLA BLA BLA BLA BLA BLA BLA BLA BLA BLA 
BLA BLA BLA BLA BLA BLA BLA BLA BLA BLA BLA BLA BLA BLA BLA BLA BLA BLA BLA BLA 
BLA BLA BLA BLA BLA BLA BLA BLA BLA BLA BLA BLA BLA BLA BLA BLA BLA BLA BLA BLA 
BLA BLA BLA BLA BLA BLA BLA BLA BLA BLA BLA BLA BLA BLA BLA BLA BLA BLA BLA BLA 
BLA BLA BLA BLA BLA BLA BLA BLA BLA BLA BLA BLA BLA BLA BLA BLA BLA BLA BLA BLA 
BLA BLA BLA BLA BLA BLA BLA BLA BLA BLA BLA BLA BLA BLA BLA BLA BLA BLA BLA BLA 
BLA BLA BLA BLA BLA BLA BLA BLA BLA BLA BLA BLA BLA BLA BLA BLA BLA BLA BLA BLA 
BLA BLA BLA BLA BLA BLA BLA BLA BLA BLA BLA BLA BLA BLA BLA BLA BLA BLA BLA BLA 
BLA BLA BLA BLA BLA BLA BLA BLA BLA BLA BLA BLA BLA BLA BLA BLA BLA BLA BLA BLA 
BLA BLA BLA BLA BLA BLA BLA BLA BLA BLA BLA BLA BLA BLA BLA BLA BLA BLA BLA BLA 
BLA BLA BLA BLA BLA BLA BLA BLA BLA BLA BLA BLA BLA BLA BLA BLA BLA BLA BLA BLA 
BLA BLA BLA BLA BLA BLA BLA BLA BLA BLA BLA BLA BLA BLA BLA BLA BLA BLA BLA BLA 
BLA BLA BLA BLA BLA BLA BLA BLA BLA BLA BLA BLA BLA BLA BLA BLA BLA BLA BLA BLA 
BLA BLA BLA BLA BLA BLA BLA BLA BLA BLA BLA BLA BLA BLA BLA BLA BLA BLA BLA BLA 
BLA BLA BLA BLA BLA BLA BLA BLA BLA BLA BLA BLA BLA BLA BLA BLA BLA BLA BLA BLA 
BLA BLA BLA BLA BLA BLA BLA BLA BLA BLA BLA BLA BLA BLA BLA BLA BLA BLA BLA BLA 
BLA BLA BLA BLA BLA BLA BLA BLA BLA BLA BLA BLA BLA BLA BLA BLA BLA BLA BLA BLA 
BLA BLA BLA BLA BLA BLA BLA BLA BLA BLA BLA BLA BLA BLA BLA BLA BLA BLA BLA BLA 
BLA BLA BLA BLA BLA BLA BLA BLA BLA BLA BLA BLA BLA BLA BLA BLA BLA BLA BLA BLA 
BLA BLA BLA BLA BLA BLA BLA BLA BLA BLA BLA BLA BLA BLA BLA BLA BLA BLA BLA BLA 
BLA BLA BLA BLA BLA BLA BLA BLA BLA BLA BLA BLA BLA BLA BLA BLA BLA BLA BLA BLA 
BLA BLA BLA BLA BLA BLA BLA BLA BLA BLA BLA BLA BLA BLA BLA BLA BLA BLA BLA BLA 
BLA BLA BLA BLA BLA BLA BLA BLA BLA BLA BLA BLA BLA BLA BLA BLA BLA BLA BLA BLA 
BLA BLA BLA BLA BLA BLA BLA BLA BLA BLA BLA BLA BLA BLA BLA BLA BLA BLA BLA BLA 
BLA BLA BLA BLA BLA BLA BLA BLA BLA BLA BLA BLA BLA BLA BLA BLA BLA BLA BLA BLA 
BLA BLA BLA BLA BLA BLA BLA BLA BLA BLA BLA BLA BLA BLA BLA BLA BLA BLA BLA BLA 
BLA BLA BLA BLA BLA BLA BLA BLA BLA BLA BLA BLA BLA BLA BLA BLA BLA BLA BLA BLA 
BLA BLA BLA BLA BLA BLA BLA BLA BLA BLA BLA BLA BLA BLA BLA BLA BLA BLA BLA BLA 
BLA BLA BLA BLA BLA BLA BLA BLA BLA BLA BLA BLA BLA BLA BLA BLA BLA BLA BLA BLA 
BLA BLA BLA BLA BLA BLA BLA BLA BLA BLA BLA BLA BLA BLA BLA BLA BLA BLA BLA BLA 
BLA BLA BLA BLA BLA BLA BLA BLA BLA BLA BLA BLA BLA BLA BLA BLA BLA BLA BLA BLA 
BLA BLA BLA BLA BLA BLA BLA BLA BLA BLA BLA BLA BLA BLA BLA BLA BLA BLA BLA BLA 
BLA BLA BLA BLA BLA BLA BLA BLA BLA BLA BLA BLA BLA BLA BLA BLA BLA BLA BLA BLA 
BLA BLA BLA BLA BLA BLA BLA BLA BLA BLA BLA BLA BLA BLA BLA BLA BLA BLA BLA BLA 
BLA BLA BLA BLA BLA BLA BLA BLA BLA BLA BLA BLA BLA BLA BLA BLA BLA BLA BLA BLA 
BLA BLA BLA BLA BLA BLA BLA BLA BLA BLA BLA BLA BLA BLA BLA BLA BLA BLA BLA BLA 
BLA BLA BLA BLA BLA BLA BLA BLA BLA BLA BLA BLA BLA BLA BLA BLA BLA BLA BLA BLA 
BLA BLA BLA BLA BLA BLA BLA BLA BLA BLA BLA BLA BLA BLA BLA BLA BLA BLA BLA BLA 
BLA BLA BLA BLA BLA BLA BLA BLA BLA BLA BLA BLA BLA BLA BLA BLA BLA BLA BLA BLA 
BLA BLA BLA BLA BLA BLA BLA BLA BLA BLA BLA BLA BLA BLA BLA BLA BLA BLA BLA BLA 
BLA BLA BLA BLA BLA BLA BLA BLA BLA BLA BLA BLA BLA BLA BLA BLA BLA BLA BLA BLA 
BLA BLA BLA BLA BLA BLA BLA BLA BLA BLA BLA BLA BLA BLA BLA BLA BLA BLA BLA BLA 
BLA BLA BLA BLA BLA BLA BLA BLA BLA BLA BLA BLA BLA BLA BLA BLA BLA BLA BLA BLA 
BLA BLA BLA BLA BLA BLA BLA BLA BLA BLA BLA BLA BLA BLA BLA BLA BLA BLA BLA BLA 
BLA BLA BLA BLA BLA BLA BLA BLA BLA BLA BLA BLA BLA BLA BLA BLA BLA BLA BLA BLA 
BLA BLA BLA BLA BLA BLA BLA BLA BLA BLA BLA BLA BLA BLA BLA BLA BLA BLA BLA BLA 
BLA BLA BLA BLA BLA BLA BLA BLA BLA BLA BLA BLA BLA BLA BLA BLA BLA BLA BLA BLA 
BLA BLA BLA BLA BLA BLA BLA BLA BLA BLA BLA BLA BLA BLA BLA BLA BLA BLA BLA BLA 
BLA BLA BLA BLA BLA BLA BLA BLA BLA BLA BLA BLA BLA BLA BLA BLA BLA BLA BLA BLA 
BLA BLA BLA BLA BLA BLA BLA BLA BLA BLA BLA BLA BLA BLA BLA BLA BLA BLA BLA BLA 
BLA BLA BLA BLA BLA BLA BLA BLA BLA BLA BLA BLA BLA BLA BLA BLA BLA BLA BLA BLA 
BLA BLA BLA BLA BLA BLA BLA BLA BLA BLA BLA BLA BLA BLA BLA BLA BLA BLA BLA BLA 
BLA BLA BLA BLA BLA BLA BLA BLA BLA BLA BLA BLA BLA BLA BLA BLA BLA BLA BLA BLA 
BLA BLA BLA BLA BLA BLA BLA BLA BLA BLA BLA BLA BLA BLA BLA BLA BLA BLA BLA BLA 
BLA BLA BLA BLA BLA BLA BLA BLA BLA BLA BLA BLA BLA BLA BLA BLA BLA BLA BLA BLA 
BLA BLA BLA BLA BLA BLA BLA BLA BLA BLA BLA BLA BLA BLA BLA BLA BLA BLA BLA BLA 
BLA BLA BLA BLA BLA BLA BLA BLA BLA BLA BLA BLA BLA BLA BLA BLA BLA BLA BLA BLA 
BLA BLA BLA BLA BLA BLA BLA BLA BLA BLA BLA BLA BLA BLA BLA BLA BLA BLA BLA BLA 
BLA BLA BLA BLA BLA BLA BLA BLA BLA BLA BLA BLA BLA BLA BLA BLA BLA BLA BLA BLA 
BLA BLA BLA BLA BLA BLA BLA BLA BLA BLA BLA BLA BLA BLA BLA BLA BLA BLA BLA BLA 
BLA BLA BLA BLA BLA BLA BLA BLA BLA BLA BLA BLA BLA BLA BLA BLA BLA BLA BLA BLA 
BLA BLA BLA BLA BLA BLA BLA BLA BLA BLA BLA BLA BLA BLA BLA BLA BLA BLA BLA BLA 
BLA BLA BLA BLA BLA BLA BLA BLA BLA BLA BLA BLA BLA BLA BLA BLA BLA BLA BLA BLA 
BLA BLA BLA BLA BLA BLA BLA BLA BLA BLA BLA BLA BLA BLA BLA BLA BLA BLA BLA BLA 
BLA BLA BLA BLA BLA BLA BLA BLA BLA BLA BLA BLA BLA BLA BLA BLA BLA BLA BLA BLA 
BLA BLA BLA BLA BLA BLA BLA BLA BLA BLA BLA BLA BLA BLA BLA BLA BLA BLA BLA BLA 
BLA BLA BLA BLA BLA BLA BLA BLA BLA BLA BLA BLA BLA BLA BLA BLA BLA BLA BLA BLA 
BLA BLA BLA BLA BLA BLA BLA BLA BLA BLA BLA BLA BLA BLA BLA BLA BLA BLA BLA BLA 
BLA BLA BLA BLA BLA BLA BLA BLA BLA BLA BLA BLA BLA BLA BLA BLA BLA BLA BLA BLA 
BLA BLA BLA BLA BLA BLA BLA BLA BLA BLA BLA BLA BLA BLA BLA BLA BLA BLA BLA BLA 
BLA BLA BLA BLA BLA BLA BLA BLA BLA BLA BLA BLA BLA BLA BLA BLA BLA BLA BLA BLA 
BLA BLA BLA BLA BLA BLA BLA BLA BLA BLA BLA BLA BLA BLA BLA BLA BLA BLA BLA BLA 
BLA BLA BLA BLA BLA BLA BLA BLA BLA BLA BLA BLA BLA BLA BLA BLA BLA BLA BLA BLA 
BLA BLA BLA BLA BLA BLA BLA BLA BLA BLA BLA BLA BLA BLA BLA BLA BLA BLA BLA BLA 
BLA BLA BLA BLA BLA BLA BLA BLA BLA BLA BLA BLA BLA BLA BLA BLA BLA BLA BLA BLA 
BLA BLA BLA BLA BLA BLA BLA BLA BLA BLA BLA BLA BLA BLA BLA BLA BLA BLA BLA BLA 
BLA BLA BLA BLA BLA BLA BLA BLA BLA BLA BLA BLA BLA BLA BLA BLA BLA BLA BLA BLA 
BLA BLA BLA BLA BLA BLA BLA BLA BLA BLA BLA BLA BLA BLA BLA BLA BLA BLA BLA BLA 
BLA BLA BLA BLA BLA BLA BLA BLA BLA BLA BLA BLA BLA BLA BLA BLA BLA BLA BLA BLA 
BLA BLA BLA BLA BLA BLA BLA BLA BLA BLA BLA BLA BLA BLA BLA BLA BLA BLA BLA BLA 
BLA BLA BLA BLA BLA BLA BLA BLA BLA BLA BLA BLA BLA BLA BLA BLA BLA BLA BLA BLA 
BLA BLA BLA BLA BLA BLA BLA BLA BLA BLA BLA BLA BLA BLA BLA BLA BLA BLA BLA BLA 
BLA BLA BLA BLA BLA BLA BLA BLA BLA BLA BLA BLA BLA BLA BLA BLA BLA BLA BLA BLA 
BLA BLA BLA BLA BLA BLA BLA BLA BLA BLA BLA BLA BLA BLA BLA BLA BLA BLA BLA BLA 
BLA BLA BLA BLA BLA BLA BLA BLA BLA BLA BLA BLA BLA BLA BLA BLA BLA BLA BLA BLA 
BLA BLA BLA BLA BLA BLA BLA BLA BLA BLA BLA BLA BLA BLA BLA BLA BLA BLA BLA BLA 
BLA BLA BLA BLA BLA BLA BLA BLA BLA BLA BLA BLA BLA BLA BLA BLA BLA BLA BLA BLA 
BLA BLA BLA BLA BLA BLA BLA BLA BLA BLA BLA BLA BLA BLA BLA BLA BLA BLA BLA BLA 
BLA BLA BLA BLA BLA BLA BLA BLA BLA BLA BLA BLA BLA BLA BLA BLA BLA BLA BLA BLA 
BLA BLA BLA BLA BLA BLA BLA BLA BLA BLA BLA BLA BLA BLA BLA BLA BLA BLA BLA BLA 
BLA BLA BLA BLA BLA BLA BLA BLA BLA BLA BLA BLA BLA BLA BLA BLA BLA BLA BLA BLA 
BLA BLA BLA BLA BLA BLA BLA BLA BLA BLA BLA BLA BLA BLA BLA BLA BLA BLA BLA BLA 
BLA BLA BLA BLA BLA BLA BLA BLA BLA BLA BLA BLA BLA BLA BLA BLA BLA BLA BLA BLA 
BLA BLA BLA BLA BLA BLA BLA BLA BLA BLA BLA BLA BLA BLA BLA BLA BLA BLA BLA BLA 
BLA BLA BLA BLA BLA BLA BLA BLA BLA BLA BLA BLA BLA BLA BLA BLA BLA BLA BLA BLA 
BLA BLA BLA BLA BLA BLA BLA BLA BLA BLA BLA BLA BLA BLA BLA BLA BLA BLA BLA BLA 
BLA BLA BLA BLA BLA BLA BLA BLA BLA BLA BLA BLA BLA BLA BLA BLA BLA BLA BLA BLA 
BLA BLA BLA BLA BLA BLA BLA BLA BLA BLA BLA BLA BLA BLA BLA BLA BLA BLA BLA BLA 
BLA BLA BLA BLA BLA BLA BLA BLA BLA BLA BLA BLA BLA BLA BLA BLA BLA BLA BLA BLA 
BLA BLA BLA BLA BLA BLA BLA BLA BLA BLA BLA BLA BLA BLA BLA BLA BLA BLA BLA BLA 
BLA BLA BLA BLA BLA BLA BLA BLA BLA BLA BLA BLA BLA BLA BLA BLA BLA BLA BLA BLA 
BLA BLA BLA BLA BLA BLA BLA BLA BLA BLA BLA BLA BLA BLA BLA BLA BLA BLA BLA BLA 
BLA BLA BLA BLA BLA BLA BLA BLA BLA BLA BLA BLA BLA BLA BLA BLA BLA BLA BLA BLA 
BLA BLA BLA BLA BLA BLA BLA BLA BLA BLA BLA BLA BLA BLA BLA BLA BLA BLA BLA BLA 
BLA BLA BLA BLA BLA BLA BLA BLA BLA BLA BLA BLA BLA BLA BLA BLA BLA BLA BLA BLA 
BLA BLA BLA BLA BLA BLA BLA BLA BLA BLA BLA BLA BLA BLA BLA BLA BLA BLA BLA BLA 
BLA BLA BLA BLA BLA BLA BLA BLA BLA BLA BLA BLA BLA BLA BLA BLA BLA BLA BLA BLA 
BLA BLA BLA BLA BLA BLA BLA BLA BLA BLA BLA BLA BLA BLA BLA BLA BLA BLA BLA BLA 
BLA BLA BLA BLA BLA BLA BLA BLA BLA BLA BLA BLA BLA BLA BLA BLA BLA BLA BLA BLA 
BLA BLA BLA BLA BLA BLA BLA BLA BLA BLA BLA BLA BLA BLA BLA BLA BLA BLA BLA BLA 
BLA BLA BLA BLA BLA BLA BLA BLA BLA BLA BLA BLA BLA BLA BLA BLA BLA BLA BLA BLA 
BLA BLA BLA BLA BLA BLA BLA BLA BLA BLA BLA BLA BLA BLA BLA BLA BLA BLA BLA BLA 
BLA BLA BLA BLA BLA BLA BLA BLA BLA BLA BLA BLA BLA BLA BLA BLA BLA BLA BLA BLA 
BLA BLA BLA BLA BLA BLA BLA BLA BLA BLA BLA BLA BLA BLA BLA BLA BLA BLA BLA BLA 
BLA BLA BLA BLA BLA BLA BLA BLA BLA BLA BLA BLA BLA BLA BLA BLA BLA BLA BLA BLA 
BLA BLA BLA BLA BLA BLA BLA BLA BLA BLA BLA BLA BLA BLA BLA BLA BLA BLA BLA BLA 
BLA BLA BLA BLA BLA BLA BLA BLA BLA BLA BLA BLA BLA BLA BLA BLA BLA BLA BLA BLA 
BLA BLA BLA BLA BLA BLA BLA BLA BLA BLA BLA BLA BLA BLA BLA BLA BLA BLA BLA BLA 
BLA BLA BLA BLA BLA BLA BLA BLA BLA BLA BLA BLA BLA BLA BLA BLA BLA BLA BLA BLA 
BLA BLA BLA BLA BLA BLA BLA BLA BLA BLA BLA BLA BLA BLA BLA BLA BLA BLA BLA BLA 
BLA BLA BLA BLA BLA BLA BLA BLA BLA BLA BLA BLA BLA BLA BLA BLA BLA BLA BLA BLA 
BLA BLA BLA BLA BLA BLA BLA BLA BLA BLA BLA BLA BLA BLA BLA BLA BLA BLA BLA BLA 
BLA BLA BLA BLA BLA BLA BLA BLA BLA BLA BLA BLA BLA BLA BLA BLA BLA BLA BLA BLA 
BLA BLA BLA BLA BLA BLA BLA BLA BLA BLA BLA BLA BLA BLA BLA BLA BLA BLA BLA BLA 
BLA BLA BLA BLA BLA BLA BLA BLA BLA BLA BLA BLA BLA BLA BLA BLA BLA BLA BLA BLA 
BLA BLA BLA BLA BLA BLA BLA BLA BLA BLA BLA BLA BLA BLA BLA BLA BLA BLA BLA BLA 
BLA BLA BLA BLA BLA BLA BLA BLA BLA BLA BLA BLA BLA BLA BLA BLA BLA BLA BLA BLA 
BLA BLA BLA BLA BLA BLA BLA BLA BLA BLA BLA BLA BLA BLA BLA BLA BLA BLA BLA BLA 
BLA BLA BLA BLA BLA BLA BLA BLA BLA BLA BLA BLA BLA BLA BLA BLA BLA BLA BLA BLA 
BLA BLA BLA BLA BLA BLA BLA BLA BLA BLA BLA BLA BLA BLA BLA BLA BLA BLA BLA BLA 
BLA BLA BLA BLA BLA BLA BLA BLA BLA BLA BLA BLA BLA BLA BLA BLA BLA BLA BLA BLA 
BLA BLA BLA BLA BLA BLA BLA BLA BLA BLA BLA BLA BLA BLA BLA BLA BLA BLA BLA BLA 
BLA BLA BLA BLA BLA BLA BLA BLA BLA BLA BLA BLA BLA BLA BLA BLA BLA BLA BLA BLA 
BLA BLA BLA BLA BLA BLA BLA BLA BLA BLA BLA BLA BLA BLA BLA BLA BLA BLA BLA BLA 
BLA BLA BLA BLA BLA BLA BLA BLA BLA BLA BLA BLA BLA BLA BLA BLA BLA BLA BLA BLA 
BLA BLA BLA BLA BLA BLA BLA BLA BLA BLA BLA BLA BLA BLA BLA BLA BLA BLA BLA BLA 
BLA BLA BLA BLA BLA BLA BLA BLA BLA BLA BLA BLA BLA BLA BLA BLA BLA BLA BLA BLA 
BLA BLA BLA BLA BLA BLA BLA BLA BLA BLA BLA BLA BLA BLA BLA BLA BLA BLA BLA BLA 
BLA BLA BLA BLA BLA BLA BLA BLA BLA BLA BLA BLA BLA BLA BLA BLA BLA BLA BLA BLA 
BLA BLA BLA BLA BLA BLA BLA BLA BLA BLA BLA BLA BLA BLA BLA BLA BLA BLA BLA BLA 
BLA BLA BLA BLA BLA BLA BLA BLA BLA BLA BLA BLA BLA BLA BLA BLA BLA BLA BLA BLA 
BLA BLA BLA BLA BLA BLA BLA BLA BLA BLA BLA BLA BLA BLA BLA BLA BLA BLA BLA BLA 
BLA BLA BLA BLA BLA BLA BLA BLA BLA BLA BLA BLA BLA BLA BLA BLA BLA BLA BLA BLA 
BLA BLA BLA BLA BLA BLA BLA BLA BLA BLA BLA BLA BLA BLA BLA BLA BLA BLA BLA BLA 
BLA BLA BLA BLA BLA BLA BLA BLA BLA BLA BLA BLA BLA BLA BLA BLA BLA BLA BLA BLA 
BLA BLA BLA BLA BLA BLA BLA BLA BLA BLA BLA BLA BLA BLA BLA BLA BLA BLA BLA BLA 
BLA BLA BLA BLA BLA BLA BLA BLA BLA BLA BLA BLA BLA BLA BLA BLA BLA BLA BLA BLA 
BLA BLA BLA BLA BLA BLA BLA BLA BLA BLA BLA BLA BLA BLA BLA BLA BLA BLA BLA BLA 
BLA BLA BLA BLA BLA BLA BLA BLA BLA BLA BLA BLA BLA BLA BLA BLA BLA BLA BLA BLA 
BLA BLA BLA BLA BLA BLA BLA BLA BLA BLA BLA BLA BLA BLA BLA BLA BLA BLA BLA BLA 
BLA BLA BLA BLA BLA BLA BLA BLA BLA BLA BLA BLA BLA BLA BLA BLA BLA BLA BLA BLA 
BLA BLA BLA BLA BLA BLA BLA BLA BLA BLA BLA BLA BLA BLA BLA BLA BLA BLA BLA BLA 
BLA BLA BLA BLA BLA BLA BLA BLA BLA BLA BLA BLA BLA BLA BLA BLA BLA BLA BLA BLA 
BLA BLA BLA BLA BLA BLA BLA BLA BLA BLA BLA BLA BLA BLA BLA BLA BLA BLA BLA BLA 
BLA BLA BLA BLA BLA BLA BLA BLA BLA BLA BLA BLA BLA BLA BLA BLA BLA BLA BLA BLA 
BLA BLA BLA BLA BLA BLA BLA BLA BLA BLA BLA BLA BLA BLA BLA BLA BLA BLA BLA BLA 
BLA BLA BLA BLA BLA BLA BLA BLA BLA BLA BLA BLA BLA BLA BLA BLA BLA BLA BLA BLA 
BLA BLA BLA BLA BLA BLA BLA BLA BLA BLA BLA BLA BLA BLA BLA BLA BLA BLA BLA BLA 
BLA BLA BLA BLA BLA BLA BLA BLA BLA BLA BLA BLA BLA BLA BLA BLA BLA BLA BLA BLA 
BLA BLA BLA BLA BLA BLA BLA BLA BLA BLA BLA BLA BLA BLA BLA BLA BLA BLA BLA BLA 
BLA BLA BLA BLA BLA BLA BLA BLA BLA BLA BLA BLA BLA BLA BLA BLA BLA BLA BLA BLA 
BLA BLA BLA BLA BLA BLA BLA BLA BLA BLA BLA BLA BLA BLA BLA BLA BLA BLA BLA BLA 
BLA BLA BLA BLA BLA BLA BLA BLA BLA BLA BLA BLA BLA BLA BLA BLA BLA BLA BLA BLA 
BLA BLA BLA BLA BLA BLA BLA BLA BLA BLA BLA BLA BLA BLA BLA BLA BLA BLA BLA BLA 
BLA BLA BLA BLA BLA BLA BLA BLA BLA BLA BLA BLA BLA BLA BLA BLA BLA BLA BLA BLA 
BLA BLA BLA BLA BLA BLA BLA BLA BLA BLA BLA BLA BLA BLA BLA BLA BLA BLA BLA BLA 
BLA BLA BLA BLA BLA BLA BLA BLA BLA BLA BLA BLA BLA BLA BLA BLA BLA BLA BLA BLA 
BLA BLA BLA BLA BLA BLA BLA BLA BLA BLA BLA BLA BLA BLA BLA BLA BLA BLA BLA BLA 
BLA BLA BLA BLA BLA BLA BLA BLA BLA BLA BLA BLA BLA BLA BLA BLA BLA BLA BLA BLA 
BLA BLA BLA BLA BLA BLA BLA BLA BLA BLA BLA BLA BLA BLA BLA BLA BLA BLA BLA BLA 
BLA BLA BLA BLA BLA BLA BLA BLA BLA BLA BLA BLA BLA BLA BLA BLA BLA BLA BLA BLA 
BLA BLA BLA BLA BLA BLA BLA BLA BLA BLA BLA BLA BLA BLA BLA BLA BLA BLA BLA BLA 
BLA BLA BLA BLA BLA BLA BLA BLA BLA BLA BLA BLA BLA BLA BLA BLA BLA BLA BLA BLA 
BLA BLA BLA BLA BLA BLA BLA BLA BLA BLA BLA BLA BLA BLA BLA BLA BLA BLA BLA BLA 
BLA BLA BLA BLA BLA BLA BLA BLA BLA BLA BLA BLA BLA BLA BLA BLA BLA BLA BLA BLA 
BLA BLA BLA BLA BLA BLA BLA BLA BLA BLA BLA BLA BLA BLA BLA BLA BLA BLA BLA BLA 
BLA BLA BLA BLA BLA BLA BLA BLA BLA BLA BLA BLA BLA BLA BLA BLA BLA BLA BLA BLA 
BLA BLA BLA BLA BLA BLA BLA BLA BLA BLA BLA BLA BLA BLA BLA BLA BLA BLA BLA BLA 
BLA BLA BLA BLA BLA BLA BLA BLA BLA BLA BLA BLA BLA BLA BLA BLA BLA BLA BLA BLA 
BLA BLA BLA BLA BLA BLA BLA BLA BLA BLA BLA BLA BLA BLA BLA BLA BLA BLA BLA BLA 
BLA BLA BLA BLA BLA BLA BLA BLA BLA BLA BLA BLA BLA BLA BLA BLA BLA BLA BLA BLA 
BLA BLA BLA BLA BLA BLA BLA BLA BLA BLA BLA BLA BLA BLA BLA BLA BLA BLA BLA BLA 
BLA BLA BLA BLA BLA BLA BLA BLA BLA BLA BLA BLA BLA BLA BLA BLA BLA BLA BLA BLA 
BLA BLA BLA BLA BLA BLA BLA BLA BLA BLA BLA BLA BLA BLA BLA BLA BLA BLA BLA BLA 
BLA BLA BLA BLA BLA BLA BLA BLA BLA BLA BLA BLA BLA BLA BLA BLA BLA BLA BLA BLA 
BLA BLA BLA BLA BLA BLA BLA BLA BLA BLA BLA BLA BLA BLA BLA BLA BLA BLA BLA BLA 
BLA BLA BLA BLA BLA BLA BLA BLA BLA BLA BLA BLA BLA BLA BLA BLA BLA BLA BLA BLA 
BLA BLA BLA BLA BLA BLA BLA BLA BLA BLA BLA BLA BLA BLA BLA BLA BLA BLA BLA BLA 
BLA BLA BLA BLA BLA BLA BLA BLA BLA BLA BLA BLA BLA BLA BLA BLA BLA BLA BLA BLA 
BLA BLA BLA BLA BLA BLA BLA BLA BLA BLA BLA BLA BLA BLA BLA BLA BLA BLA BLA BLA 
BLA BLA BLA BLA BLA BLA BLA BLA BLA BLA BLA BLA BLA BLA BLA BLA BLA BLA BLA BLA 
BLA BLA BLA BLA BLA BLA BLA BLA BLA BLA BLA BLA BLA BLA BLA BLA BLA BLA BLA BLA 
BLA BLA BLA BLA BLA BLA BLA BLA BLA BLA BLA BLA BLA BLA BLA BLA BLA BLA BLA BLA 
BLA BLA BLA BLA BLA BLA BLA BLA BLA BLA BLA BLA BLA BLA BLA BLA BLA BLA BLA BLA 
BLA BLA BLA BLA BLA BLA BLA BLA BLA BLA BLA BLA BLA BLA BLA BLA BLA BLA BLA BLA 
BLA BLA BLA BLA BLA BLA BLA BLA BLA BLA BLA BLA BLA BLA BLA BLA BLA BLA BLA BLA 
BLA BLA BLA BLA BLA BLA BLA BLA BLA BLA BLA BLA BLA BLA BLA BLA BLA BLA BLA BLA 
BLA BLA BLA BLA BLA BLA BLA BLA BLA BLA BLA BLA BLA BLA BLA BLA BLA BLA BLA BLA 
BLA BLA BLA BLA BLA BLA BLA BLA BLA BLA BLA BLA BLA BLA BLA BLA BLA BLA BLA BLA 
BLA BLA BLA BLA BLA BLA BLA BLA BLA BLA BLA BLA BLA BLA BLA BLA BLA BLA BLA BLA 
BLA BLA BLA BLA BLA BLA BLA BLA BLA BLA BLA BLA BLA BLA BLA BLA BLA BLA BLA BLA 
BLA BLA BLA BLA BLA BLA BLA BLA BLA BLA BLA BLA BLA BLA BLA BLA BLA BLA BLA BLA 
BLA BLA BLA BLA BLA BLA BLA BLA BLA BLA BLA BLA BLA BLA BLA BLA BLA BLA BLA BLA 
BLA BLA BLA BLA BLA BLA BLA BLA BLA BLA BLA BLA BLA BLA BLA BLA BLA BLA BLA BLA 
BLA BLA BLA BLA BLA BLA BLA BLA BLA BLA BLA BLA BLA BLA BLA BLA BLA BLA BLA BLA 
BLA BLA BLA BLA BLA BLA BLA BLA BLA BLA BLA BLA BLA BLA BLA BLA BLA BLA BLA BLA 
BLA BLA BLA BLA BLA BLA BLA BLA BLA BLA BLA BLA BLA BLA BLA BLA BLA BLA BLA BLA 
BLA BLA BLA BLA BLA BLA BLA BLA BLA BLA BLA BLA BLA BLA BLA BLA BLA BLA BLA BLA 
BLA BLA BLA BLA BLA BLA BLA BLA BLA BLA BLA BLA BLA BLA BLA BLA BLA BLA BLA BLA 
BLA BLA BLA BLA BLA BLA BLA BLA BLA BLA BLA BLA BLA BLA BLA BLA BLA BLA BLA BLA 
BLA BLA BLA BLA BLA BLA BLA BLA BLA BLA BLA BLA BLA BLA BLA BLA BLA BLA BLA BLA 
BLA BLA BLA BLA BLA BLA BLA BLA BLA BLA BLA BLA BLA BLA BLA BLA BLA BLA BLA BLA 
BLA BLA BLA BLA BLA BLA BLA BLA BLA BLA BLA BLA BLA BLA BLA BLA BLA BLA BLA BLA 
BLA BLA BLA BLA BLA BLA BLA BLA BLA BLA BLA BLA BLA BLA BLA BLA BLA BLA BLA BLA 
BLA BLA BLA BLA BLA BLA BLA BLA BLA BLA BLA BLA BLA BLA BLA BLA BLA BLA BLA BLA 
BLA BLA BLA BLA BLA BLA BLA BLA BLA BLA BLA BLA BLA BLA BLA BLA BLA BLA BLA BLA 
BLA BLA BLA BLA BLA BLA BLA BLA BLA BLA BLA BLA BLA BLA BLA BLA BLA BLA BLA BLA 
BLA BLA BLA BLA BLA BLA BLA BLA BLA BLA BLA BLA BLA BLA BLA BLA BLA BLA BLA BLA 
BLA BLA BLA BLA BLA BLA BLA BLA BLA BLA BLA BLA BLA BLA BLA BLA BLA BLA BLA BLA 
BLA BLA BLA BLA BLA BLA BLA BLA BLA BLA BLA BLA BLA BLA BLA BLA BLA BLA BLA BLA 
BLA BLA BLA BLA BLA BLA BLA BLA BLA BLA BLA BLA BLA BLA BLA BLA BLA BLA BLA BLA 
BLA BLA BLA BLA BLA BLA BLA BLA BLA BLA BLA BLA BLA BLA BLA BLA BLA BLA BLA BLA 
BLA BLA BLA BLA BLA BLA BLA BLA BLA BLA BLA BLA BLA BLA BLA BLA BLA BLA BLA BLA 
BLA BLA BLA BLA BLA BLA BLA BLA BLA BLA BLA BLA BLA BLA BLA BLA BLA BLA BLA BLA 
BLA BLA BLA BLA BLA BLA BLA BLA BLA BLA BLA BLA BLA BLA BLA BLA BLA BLA BLA BLA 
BLA BLA BLA BLA BLA BLA BLA BLA BLA BLA BLA BLA BLA BLA BLA BLA BLA BLA BLA BLA 
BLA BLA BLA BLA BLA BLA BLA BLA BLA BLA BLA BLA BLA BLA BLA BLA BLA BLA BLA BLA 
BLA BLA BLA BLA BLA BLA BLA BLA BLA BLA BLA BLA BLA BLA BLA BLA BLA BLA BLA BLA 
BLA BLA BLA BLA BLA BLA BLA BLA BLA BLA BLA BLA BLA BLA BLA BLA BLA BLA BLA BLA 
BLA BLA BLA BLA BLA BLA BLA BLA BLA BLA BLA BLA BLA BLA BLA BLA BLA BLA BLA BLA 
BLA BLA BLA BLA BLA BLA BLA BLA BLA BLA BLA BLA BLA BLA BLA BLA BLA BLA BLA BLA 
BLA BLA BLA BLA BLA BLA BLA BLA BLA BLA BLA BLA BLA BLA BLA BLA BLA BLA BLA BLA 
BLA BLA BLA BLA BLA BLA BLA BLA BLA BLA BLA BLA BLA BLA BLA BLA BLA BLA BLA BLA 
BLA BLA BLA BLA BLA BLA BLA BLA BLA BLA BLA BLA BLA BLA BLA BLA BLA BLA BLA BLA 
BLA BLA BLA BLA BLA BLA BLA BLA BLA BLA BLA BLA BLA BLA BLA BLA BLA BLA BLA BLA 
BLA BLA BLA BLA BLA BLA BLA BLA BLA BLA BLA BLA BLA BLA BLA BLA BLA BLA BLA BLA 
BLA BLA BLA BLA BLA BLA BLA BLA BLA BLA BLA BLA BLA BLA BLA BLA BLA BLA BLA BLA 
BLA BLA BLA BLA BLA BLA BLA BLA BLA BLA BLA BLA BLA BLA BLA BLA BLA BLA BLA BLA 
BLA BLA BLA BLA BLA BLA BLA BLA BLA BLA BLA BLA BLA BLA BLA BLA BLA BLA BLA BLA 
BLA BLA BLA BLA BLA BLA BLA BLA BLA BLA BLA BLA BLA BLA BLA BLA BLA BLA BLA BLA 
BLA BLA BLA BLA BLA BLA BLA BLA BLA BLA BLA BLA BLA BLA BLA BLA BLA BLA BLA BLA 
BLA BLA BLA BLA BLA BLA BLA BLA BLA BLA BLA BLA BLA BLA BLA BLA BLA BLA BLA BLA 
BLA BLA BLA BLA BLA BLA BLA BLA BLA BLA BLA BLA BLA BLA BLA BLA BLA BLA BLA BLA 
BLA BLA BLA BLA BLA BLA BLA BLA BLA BLA BLA BLA BLA BLA BLA BLA BLA BLA BLA BLA 
BLA BLA BLA BLA BLA BLA BLA BLA BLA BLA BLA BLA BLA BLA BLA BLA BLA BLA BLA BLA 
BLA BLA BLA BLA BLA BLA BLA BLA BLA BLA BLA BLA BLA BLA BLA BLA BLA BLA BLA BLA 
BLA BLA BLA BLA BLA BLA BLA BLA BLA BLA BLA BLA BLA BLA BLA BLA BLA BLA BLA BLA 
BLA BLA BLA BLA BLA BLA BLA BLA BLA BLA BLA BLA BLA BLA BLA BLA BLA BLA BLA BLA 
BLA BLA BLA BLA BLA BLA BLA BLA BLA BLA BLA BLA BLA BLA BLA BLA BLA BLA BLA BLA 
BLA BLA BLA BLA BLA BLA BLA BLA BLA BLA BLA BLA BLA BLA BLA BLA BLA BLA BLA BLA 
BLA BLA BLA BLA BLA BLA BLA BLA BLA BLA BLA BLA BLA BLA BLA BLA BLA BLA BLA BLA 
BLA BLA BLA BLA BLA BLA BLA BLA BLA BLA BLA BLA BLA BLA BLA BLA BLA BLA BLA BLA 
BLA BLA BLA BLA BLA BLA BLA BLA BLA BLA BLA BLA BLA BLA BLA BLA BLA BLA BLA BLA 
BLA BLA BLA BLA BLA BLA BLA BLA BLA BLA BLA BLA BLA BLA BLA BLA BLA BLA BLA BLA 
BLA BLA BLA BLA BLA BLA BLA BLA BLA BLA BLA BLA BLA BLA BLA BLA BLA BLA BLA BLA 
BLA BLA BLA BLA BLA BLA BLA BLA BLA BLA BLA BLA BLA BLA BLA BLA BLA BLA BLA BLA 
BLA BLA BLA BLA BLA BLA BLA BLA BLA BLA BLA BLA BLA BLA BLA BLA BLA BLA BLA BLA 
BLA BLA BLA BLA BLA BLA BLA BLA BLA BLA BLA BLA BLA BLA BLA BLA BLA BLA BLA BLA 
BLA BLA BLA BLA BLA BLA BLA BLA BLA BLA BLA BLA BLA BLA BLA BLA BLA BLA BLA BLA 
BLA BLA BLA BLA BLA BLA BLA BLA BLA BLA BLA BLA BLA BLA BLA BLA BLA BLA BLA BLA 
BLA BLA BLA BLA BLA BLA BLA BLA BLA BLA BLA BLA BLA BLA BLA BLA BLA BLA BLA BLA 
BLA BLA BLA BLA BLA BLA BLA BLA BLA BLA BLA BLA BLA BLA BLA BLA BLA BLA BLA BLA 
BLA BLA BLA BLA BLA BLA BLA BLA BLA BLA BLA BLA BLA BLA BLA BLA BLA BLA BLA BLA 
BLA BLA BLA BLA BLA BLA BLA BLA BLA BLA BLA BLA BLA BLA BLA BLA BLA BLA BLA BLA 
BLA BLA BLA BLA BLA BLA BLA BLA BLA BLA BLA BLA BLA BLA BLA BLA BLA BLA BLA BLA 
BLA BLA BLA BLA BLA BLA BLA BLA BLA BLA BLA BLA BLA BLA BLA BLA BLA BLA BLA BLA 
BLA BLA BLA BLA BLA BLA BLA BLA BLA BLA BLA BLA BLA BLA BLA BLA BLA BLA BLA BLA 
BLA BLA BLA BLA BLA BLA BLA BLA BLA BLA BLA BLA BLA BLA BLA BLA BLA BLA BLA BLA 
BLA BLA BLA BLA BLA BLA BLA BLA BLA BLA BLA BLA BLA BLA BLA BLA BLA BLA BLA BLA 
BLA BLA BLA BLA BLA BLA BLA BLA BLA BLA BLA BLA BLA BLA BLA BLA BLA BLA BLA BLA 
BLA BLA BLA BLA BLA BLA BLA BLA BLA BLA BLA BLA BLA BLA BLA BLA BLA BLA BLA BLA 
BLA BLA BLA BLA BLA BLA BLA BLA BLA BLA BLA BLA BLA BLA BLA BLA BLA BLA BLA BLA 
BLA BLA BLA BLA BLA BLA BLA BLA BLA BLA BLA BLA BLA BLA BLA BLA BLA BLA BLA BLA 
BLA BLA BLA BLA BLA BLA BLA BLA BLA BLA BLA BLA BLA BLA BLA BLA BLA BLA BLA BLA 
BLA BLA BLA BLA BLA BLA BLA BLA BLA BLA BLA BLA BLA BLA BLA BLA BLA BLA BLA BLA 
BLA BLA BLA BLA BLA BLA BLA BLA BLA BLA BLA BLA BLA BLA BLA BLA BLA BLA BLA BLA 
BLA BLA BLA BLA BLA BLA BLA BLA BLA BLA BLA BLA BLA BLA BLA BLA BLA BLA BLA BLA 
BLA BLA BLA BLA BLA BLA BLA BLA BLA BLA BLA BLA BLA BLA BLA BLA BLA BLA BLA BLA 
BLA BLA BLA BLA BLA BLA BLA BLA BLA BLA BLA BLA BLA BLA BLA BLA BLA BLA BLA BLA 
BLA BLA BLA BLA BLA BLA BLA BLA BLA BLA BLA BLA BLA BLA BLA BLA BLA BLA BLA BLA 
BLA BLA BLA BLA BLA BLA BLA BLA BLA BLA BLA BLA BLA BLA BLA BLA BLA BLA BLA BLA 
BLA BLA BLA BLA BLA BLA BLA BLA BLA BLA BLA BLA BLA BLA BLA BLA BLA BLA BLA BLA 
BLA BLA BLA BLA BLA BLA BLA BLA BLA BLA BLA BLA BLA BLA BLA BLA BLA BLA BLA BLA 
BLA BLA BLA BLA BLA BLA BLA BLA BLA BLA BLA BLA BLA BLA BLA BLA BLA BLA BLA BLA 
BLA BLA BLA BLA BLA BLA BLA BLA BLA BLA BLA BLA BLA BLA BLA BLA BLA BLA BLA BLA 
BLA BLA BLA BLA BLA BLA BLA BLA BLA BLA BLA BLA BLA BLA BLA BLA BLA BLA BLA BLA 
BLA BLA BLA BLA BLA BLA BLA BLA BLA BLA BLA BLA BLA BLA BLA BLA BLA BLA BLA BLA 
BLA BLA BLA BLA BLA BLA BLA BLA BLA BLA BLA BLA BLA BLA BLA BLA BLA BLA BLA BLA 
BLA BLA BLA BLA BLA BLA BLA BLA BLA BLA BLA BLA BLA BLA BLA BLA BLA BLA BLA BLA 
BLA BLA BLA BLA BLA BLA BLA BLA BLA BLA BLA BLA BLA BLA BLA BLA BLA BLA BLA BLA 
BLA BLA BLA BLA BLA BLA BLA BLA BLA BLA BLA BLA BLA BLA BLA BLA BLA BLA BLA BLA 
BLA BLA BLA BLA BLA BLA BLA BLA BLA BLA BLA BLA BLA BLA BLA BLA BLA BLA BLA BLA 
BLA BLA BLA BLA BLA BLA BLA BLA BLA BLA BLA BLA BLA BLA BLA BLA BLA BLA BLA BLA 
BLA BLA BLA BLA BLA BLA BLA BLA BLA BLA BLA BLA BLA BLA BLA BLA BLA BLA BLA BLA 
BLA BLA BLA BLA BLA BLA BLA BLA BLA BLA BLA BLA BLA BLA BLA BLA BLA BLA BLA BLA 
BLA BLA BLA BLA BLA BLA BLA BLA BLA BLA BLA BLA BLA BLA BLA BLA BLA BLA BLA BLA 
BLA BLA BLA BLA BLA BLA BLA BLA BLA BLA BLA BLA BLA BLA BLA BLA BLA BLA BLA BLA 
BLA BLA BLA BLA BLA BLA BLA BLA BLA BLA BLA BLA BLA BLA BLA BLA BLA BLA BLA BLA 
BLA BLA BLA BLA BLA BLA BLA BLA BLA BLA BLA BLA BLA BLA BLA BLA BLA BLA BLA BLA 
BLA BLA BLA BLA BLA BLA BLA BLA BLA BLA BLA BLA BLA BLA BLA BLA BLA BLA BLA BLA 
BLA BLA BLA BLA BLA BLA BLA BLA BLA BLA BLA BLA BLA BLA BLA BLA BLA BLA BLA BLA 
BLA BLA BLA BLA BLA BLA BLA BLA BLA BLA BLA BLA BLA BLA BLA BLA BLA BLA BLA BLA 
BLA BLA BLA BLA BLA BLA BLA BLA BLA BLA BLA BLA BLA BLA BLA BLA BLA BLA BLA BLA 
BLA BLA BLA BLA BLA BLA BLA BLA BLA BLA BLA BLA BLA BLA BLA BLA BLA BLA BLA BLA 
BLA BLA BLA BLA BLA BLA BLA BLA BLA BLA BLA BLA BLA BLA BLA BLA BLA BLA BLA BLA 
BLA BLA BLA BLA BLA BLA BLA BLA BLA BLA BLA BLA BLA BLA BLA BLA BLA BLA BLA BLA 
BLA BLA BLA BLA BLA BLA BLA BLA BLA BLA BLA BLA BLA BLA BLA BLA BLA BLA BLA BLA 
BLA BLA BLA BLA BLA BLA BLA BLA BLA BLA BLA BLA BLA BLA BLA BLA BLA BLA BLA BLA 
BLA BLA BLA BLA BLA BLA BLA BLA BLA BLA BLA BLA BLA BLA BLA BLA BLA BLA BLA BLA 
BLA BLA BLA BLA BLA BLA BLA BLA BLA BLA BLA BLA BLA BLA BLA BLA BLA BLA BLA BLA 
BLA BLA BLA BLA BLA BLA BLA BLA BLA BLA BLA BLA BLA BLA BLA BLA BLA BLA BLA BLA 
BLA BLA BLA BLA BLA BLA BLA BLA BLA BLA BLA BLA BLA BLA BLA BLA BLA BLA BLA BLA 
BLA BLA BLA BLA BLA BLA BLA BLA BLA BLA BLA BLA BLA BLA BLA BLA BLA BLA BLA BLA 
BLA BLA BLA BLA BLA BLA BLA BLA BLA BLA BLA BLA BLA BLA BLA BLA BLA BLA BLA BLA 
BLA BLA BLA BLA BLA BLA BLA BLA BLA BLA BLA BLA BLA BLA BLA BLA BLA BLA BLA BLA 
BLA BLA BLA BLA BLA BLA BLA BLA BLA BLA BLA BLA BLA BLA BLA BLA BLA BLA BLA BLA 
BLA BLA BLA BLA BLA BLA BLA BLA BLA BLA BLA BLA BLA BLA BLA BLA BLA BLA BLA BLA 
BLA BLA BLA BLA BLA BLA BLA BLA BLA BLA BLA BLA BLA BLA BLA BLA BLA BLA BLA BLA 
BLA BLA BLA BLA BLA BLA BLA BLA BLA BLA BLA BLA BLA BLA BLA BLA BLA BLA BLA BLA 
BLA BLA BLA BLA BLA BLA BLA BLA BLA BLA BLA BLA BLA BLA BLA BLA BLA BLA BLA BLA 
BLA BLA BLA BLA BLA BLA BLA BLA BLA BLA BLA BLA BLA BLA BLA BLA BLA BLA BLA BLA 
BLA BLA BLA BLA BLA BLA BLA BLA BLA BLA BLA BLA BLA BLA BLA BLA BLA BLA BLA BLA 
BLA BLA BLA BLA BLA BLA BLA BLA BLA BLA BLA BLA BLA BLA BLA BLA BLA BLA BLA 
%FLAG JOIN_ARRAY                                                                
%FORMAT(10I8)                                                                   
       0       0       0       0       0       0       0       0       0       0
       0       0       0       0       0       0       0       0       0       0
       0       0       0       0       0       0       0       0       0       0
       0       0       0       0       0       0       0       0       0       0
       0       0       0       0       0       0       0       0       0       0
       0       0       0       0       0       0       0       0       0       0
       0       0       0       0       0       0       0       0       0       0
       0       0       0       0       0       0       0       0       0       0
       0       0       0       0       0       0       0       0       0       0
       0       0       0       0       0       0       0       0       0       0
       0       0       0       0       0       0       0       0       0       0
       0       0       0       0       0       0       0       0       0       0
       0       0       0       0       0       0       0       0       0       0
       0       0       0       0       0       0       0       0       0       0
       0       0       0       0       0       0       0       0       0       0
       0       0       0       0       0       0       0       0       0       0
       0       0       0       0       0       0       0       0       0       0
       0       0       0       0       0       0       0       0       0       0
       0       0       0       0       0       0       0       0       0       0
       0       0       0       0       0       0       0       0       0       0
       0       0       0       0       0       0       0       0       0       0
       0       0       0       0       0       0       0       0       0       0
       0       0       0       0       0       0       0       0       0       0
       0       0       0       0       0       0       0       0       0       0
       0       0       0       0       0       0       0       0       0       0
       0       0       0       0       0       0       0       0       0       0
       0       0       0       0       0       0       0       0       0       0
       0       0       0       0       0       0       0       0       0       0
       0       0       0       0       0       0       0       0       0       0
       0       0       0       0       0       0       0       0       0       0
       0       0       0       0       0       0       0       0       0       0
       0       0       0       0       0       0       0       0       0       0
       0       0       0       0       0       0       0       0       0       0
       0       0       0       0       0       0       0       0       0       0
       0       0       0       0       0       0       0       0       0       0
       0       0       0       0       0       0       0       0       0       0
       0       0       0       0       0       0       0       0       0       0
       0       0       0       0       0       0       0       0       0       0
       0       0       0       0       0       0       0       0       0       0
       0       0       0       0       0       0       0       0       0       0
       0       0       0       0       0       0       0       0       0       0
       0       0       0       0       0       0       0       0       0       0
       0       0       0       0       0       0       0       0       0       0
       0       0       0       0       0       0       0       0       0       0
       0       0       0       0       0       0       0       0       0       0
       0       0       0       0       0       0       0       0       0       0
       0       0       0       0       0       0       0       0       0       0
       0       0       0       0       0       0       0       0       0       0
       0       0       0       0       0       0       0       0       0       0
       0       0       0       0       0       0       0       0       0       0
       0       0       0       0       0       0       0       0       0       0
       0       0       0       0       0       0       0       0       0       0
       0       0       0       0       0       0       0       0       0       0
       0       0       0       0       0       0       0       0       0       0
       0       0       0       0       0       0       0       0       0       0
       0       0       0       0       0       0       0       0       0       0
       0       0       0       0       0       0       0       0       0       0
       0       0       0       0       0       0       0       0       0       0
       0       0       0       0       0       0       0       0       0       0
       0       0       0       0       0       0       0       0       0       0
       0       0       0       0       0       0       0       0       0       0
       0       0       0       0       0       0       0       0       0       0
       0       0       0       0       0       0       0       0       0       0
       0       0       0       0       0       0       0       0       0       0
       0       0       0       0       0       0       0       0       0       0
       0       0       0       0       0       0       0       0       0       0
       0       0       0       0       0       0       0       0       0       0
       0       0       0       0       0       0       0       0       0       0
       0       0       0       0       0       0       0       0       0       0
       0       0       0       0       0       0       0       0       0       0
       0       0       0       0       0       0       0       0       0       0
       0       0       0       0       0       0       0       0       0       0
       0       0       0       0       0       0       0       0       0       0
       0       0       0       0       0       0       0       0       0       0
       0       0       0       0       0       0       0       0       0       0
       0       0       0       0       0       0       0       0       0       0
       0       0       0       0       0       0       0       0       0       0
       0       0       0       0       0       0       0       0       0       0
       0       0       0       0       0       0       0       0       0       0
       0       0       0       0       0       0       0       0       0       0
       0       0       0       0       0       0       0       0       0       0
       0       0       0       0       0       0       0       0       0       0
       0       0       0       0       0       0       0       0       0       0
       0       0       0       0       0       0       0       0       0       0
       0       0       0       0       0       0       0       0       0       0
       0       0       0       0       0       0       0       0       0       0
       0       0       0       0       0       0       0       0       0       0
       0       0       0       0       0       0       0       0       0       0
       0       0       0       0       0       0       0       0       0       0
       0       0       0       0       0       0       0       0       0       0
       0       0       0       0       0       0       0       0       0       0
       0       0       0       0       0       0       0       0       0       0
       0       0       0       0       0       0       0       0       0       0
       0       0       0       0       0       0       0       0       0       0
       0       0       0       0       0       0       0       0       0       0
       0       0       0       0       0       0       0       0       0       0
       0       0       0       0       0       0       0       0       0       0
       0       0       0       0       0       0       0       0       0       0
       0       0       0       0       0       0       0       0       0       0
       0       0       0       0       0       0       0       0       0       0
       0       0       0       0       0       0       0       0       0       0
       0       0       0       0       0       0       0       0       0       0
       0       0       0       0       0       0       0       0       0       0
       0       0       0       0       0       0       0       0       0       0
       0       0       0       0       0       0       0       0       0       0
       0       0       0       0       0       0       0       0       0       0
       0       0       0       0       0       0       0       0       0       0
       0       0       0       0       0       0       0       0       0       0
       0       0       0       0       0       0       0       0       0       0
       0       0       0       0       0       0       0       0       0       0
       0       0       0       0       0       0       0       0       0       0
       0       0       0       0       0       0       0       0       0       0
       0       0       0       0       0       0       0       0       0       0
       0       0       0       0       0       0       0       0       0       0
       0       0       0       0       0       0       0       0       0       0
       0       0       0       0       0       0       0       0       0       0
       0       0       0       0       0       0       0       0       0       0
       0       0       0       0       0       0       0       0       0       0
       0       0       0       0       0       0       0       0       0       0
       0       0       0       0       0       0       0       0       0       0
       0       0       0       0       0       0       0       0       0       0
       0       0       0       0       0       0       0       0       0       0
       0       0       0       0       0       0       0       0       0       0
       0       0       0       0       0       0       0       0       0       0
       0       0       0       0       0       0       0       0       0       0
       0       0       0       0       0       0       0       0       0       0
       0       0       0       0       0       0       0       0       0       0
       0       0       0       0       0       0       0       0       0       0
       0       0       0       0       0       0       0       0       0       0
       0       0       0       0       0       0       0       0       0       0
       0       0       0       0       0       0       0       0       0       0
       0       0       0       0       0       0       0       0       0       0
       0       0       0       0       0       0       0       0       0       0
       0       0       0       0       0       0       0       0       0       0
       0       0       0       0       0       0       0       0       0       0
       0       0       0       0       0       0       0       0       0       0
       0       0       0       0       0       0       0       0       0       0
       0       0       0       0       0       0       0       0       0       0
       0       0       0       0       0       0       0       0       0       0
       0       0       0       0       0       0       0       0       0       0
       0       0       0       0       0       0       0       0       0       0
       0       0       0       0       0       0       0       0       0       0
       0       0       0       0       0       0       0       0       0       0
       0       0       0       0       0       0       0       0       0       0
       0       0       0       0       0       0       0       0       0       0
       0       0       0       0       0       0       0       0       0       0
       0       0       0       0       0       0       0       0       0       0
       0       0       0       0       0       0       0       0       0       0
       0       0       0       0       0       0       0       0       0       0
       0       0       0       0       0       0       0       0       0       0
       0       0       0       0       0       0       0       0       0       0
       0       0       0       0       0       0       0       0       0       0
       0       0       0       0       0       0       0       0       0       0
       0       0       0       0       0       0       0       0       0       0
       0       0       0       0       0       0       0       0       0       0
       0       0       0       0       0       0       0       0       0       0
       0       0       0       0       0       0       0       0       0       0
       0       0       0       0       0       0       0       0       0       0
       0       0       0       0       0       0       0       0       0       0
       0       0       0       0       0       0       0       0       0       0
       0       0       0       0       0       0       0       0       0       0
       0       0       0       0       0       0       0       0       0       0
       0       0       0       0       0       0       0       0       0       0
       0       0       0       0       0       0       0       0       0       0
       0       0       0       0       0       0       0       0       0       0
       0       0       0       0       0       0       0       0       0       0
       0       0       0       0       0       0       0       0       0       0
       0       0       0       0       0       0       0       0       0       0
       0       0       0       0       0       0       0       0       0       0
       0       0       0       0       0       0       0       0       0       0
       0       0       0       0       0       0       0       0       0       0
       0       0       0       0       0       0       0       0       0       0
       0       0       0       0       0       0       0       0       0       0
       0       0       0       0       0       0       0       0       0       0
       0       0       0       0       0       0       0       0       0       0
       0       0       0       0       0       0       0       0       0       0
       0       0       0       0       0       0       0       0       0       0
       0       0       0       0       0       0       0       0       0       0
       0       0       0       0       0       0       0       0       0       0
       0       0       0       0       0       0       0       0       0       0
       0       0       0       0       0       0       0       0       0       0
       0       0       0       0       0       0       0       0       0       0
       0       0       0       0       0       0       0       0       0       0
       0       0       0       0       0       0       0       0       0       0
       0       0       0       0       0       0       0       0       0       0
       0       0       0       0       0       0       0       0       0       0
       0       0       0       0       0       0       0       0       0       0
       0       0       0       0       0       0       0       0       0       0
       0       0       0       0       0       0       0       0       0       0
       0       0       0       0       0       0       0       0       0       0
       0       0       0       0       0       0       0       0       0       0
       0       0       0       0       0       0       0       0       0       0
       0       0       0       0       0       0       0       0       0       0
       0       0       0       0       0       0       0       0       0       0
       0       0       0       0       0       0       0       0       0       0
       0       0       0       0       0       0       0       0       0       0
       0       0       0       0       0       0       0       0       0       0
       0       0       0       0       0       0       0       0       0       0
       0       0       0       0       0       0       0       0       0       0
       0       0       0       0       0       0       0       0       0       0
       0       0       0       0       0       0       0       0       0       0
       0       0       0       0       0       0       0       0       0       0
       0       0       0       0       0       0       0       0       0       0
       0       0       0       0       0       0       0       0       0       0
       0       0       0       0       0       0       0       0       0       0
       0       0       0       0       0       0       0       0       0       0
       0       0       0       0       0       0       0       0       0       0
       0       0       0       0       0       0       0       0       0       0
       0       0       0       0       0       0       0       0       0       0
       0       0       0       0       0       0       0       0       0       0
       0       0       0       0       0       0       0       0       0       0
       0       0       0       0       0       0       0       0       0       0
       0       0       0       0       0       0       0       0       0       0
       0       0       0       0       0       0       0       0       0       0
       0       0       0       0       0       0       0       0       0       0
       0       0       0       0       0       0       0       0       0       0
       0       0       0       0       0       0       0       0       0       0
       0       0       0       0       0       0       0       0       0       0
       0       0       0       0       0       0       0       0       0       0
       0       0       0       0       0       0       0       0       0       0
       0       0       0       0       0       0       0       0       0       0
       0       0       0       0       0       0       0       0       0       0
       0       0       0       0       0       0       0       0       0       0
       0       0       0       0       0       0       0       0       0       0
       0       0       0       0       0       0       0       0       0       0
       0       0       0       0       0       0       0       0       0       0
       0       0       0       0       0       0       0       0       0       0
       0       0       0       0       0       0       0       0       0       0
       0       0       0       0       0       0       0       0       0       0
       0       0       0       0       0       0       0       0       0       0
       0       0       0       0       0       0       0       0       0       0
       0       0       0       0       0       0       0       0       0       0
       0       0       0       0       0       0       0       0       0       0
       0       0       0       0       0       0       0       0       0       0
       0       0       0       0       0       0       0       0       0       0
       0       0       0       0       0       0       0       0       0       0
       0       0       0       0       0       0       0       0       0       0
       0       0       0       0       0       0       0       0       0       0
       0       0       0       0       0       0       0       0       0       0
       0       0       0       0       0       0       0       0       0       0
       0       0       0       0       0       0       0       0       0       0
       0       0       0       0       0       0       0       0       0       0
       0       0       0       0       0       0       0       0       0       0
       0       0       0       0       0       0       0       0       0       0
       0       0       0       0       0       0       0       0       0       0
       0       0       0       0       0       0       0       0       0       0
       0       0       0       0       0       0       0       0       0       0
       0       0       0       0       0       0       0       0       0       0
       0       0       0       0       0       0       0       0       0       0
       0       0       0       0       0       0       0       0       0       0
       0       0       0       0       0       0       0       0       0       0
       0       0       0       0       0       0       0       0       0       0
       0       0       0       0       0       0       0       0       0       0
       0       0       0       0       0       0       0       0       0       0
       0       0       0       0       0       0       0       0       0       0
       0       0       0       0       0       0       0       0       0       0
       0       0       0       0       0       0       0       0       0       0
       0       0       0       0       0       0       0       0       0       0
       0       0       0       0       0       0       0       0       0       0
       0       0       0       0       0       0       0       0       0       0
       0       0       0       0       0       0       0       0       0       0
       0       0       0       0       0       0       0       0       0       0
       0       0       0       0       0       0       0       0       0       0
       0       0       0       0       0       0       0       0       0       0
       0       0       0       0       0       0       0       0       0       0
       0       0       0       0       0       0       0       0       0       0
       0       0       0       0       0       0       0       0       0       0
       0       0       0       0       0       0       0       0       0       0
       0       0       0       0       0       0       0       0       0       0
       0       0       0       0       0       0       0       0       0       0
       0       0       0       0       0       0       0       0       0       0
       0       0       0       0       0       0       0       0       0       0
       0       0       0       0       0       0       0       0       0       0
       0       0       0       0       0       0       0       0       0       0
       0       0       0       0       0       0       0       0       0       0
       0       0       0       0       0       0       0       0       0       0
       0       0       0       0       0       0       0       0       0       0
       0       0       0       0       0       0       0       0       0       0
       0       0       0       0       0       0       0       0       0       0
       0       0       0       0       0       0       0       0       0       0
       0       0       0       0       0       0       0       0       0       0
       0       0       0       0       0       0       0       0       0       0
       0       0       0       0       0       0       0       0       0       0
       0       0       0       0       0       0       0       0       0       0
       0       0       0       0       0       0       0       0       0       0
       0       0       0       0       0       0       0       0       0       0
       0       0       0       0       0       0       0       0       0       0
       0       0       0       0       0       0       0       0       0       0
       0       0       0       0       0       0       0       0       0       0
       0       0       0       0       0       0       0       0       0       0
       0       0       0       0       0       0       0       0       0       0
       0       0       0       0       0       0       0       0       0       0
       0       0       0       0       0       0       0       0       0       0
       0       0       0       0       0       0       0       0       0       0
       0       0       0       0       0       0       0       0       0       0
       0       0       0       0       0       0       0       0       0       0
       0       0       0       0       0       0       0       0       0       0
       0       0       0       0       0       0       0       0       0       0
       0       0       0       0       0       0       0       0       0       0
       0       0       0       0       0       0       0       0       0       0
       0       0       0       0       0       0       0       0       0       0
       0       0       0       0       0       0       0       0       0       0
       0       0       0       0       0       0       0       0       0       0
       0       0       0       0       0       0       0       0       0       0
       0       0       0       0       0       0       0       0       0       0
       0       0       0       0       0       0       0       0       0       0
       0       0       0       0       0       0       0       0       0       0
       0       0       0       0       0       0       0       0       0       0
       0       0       0       0       0       0       0       0       0       0
       0       0       0       0       0       0       0       0       0       0
       0       0       0       0       0       0       0       0       0       0
       0       0       0       0       0       0       0       0       0       0
       0       0       0       0       0       0       0       0       0       0
       0       0       0       0       0       0       0       0       0       0
       0       0       0       0       0       0       0       0       0       0
       0       0       0       0       0       0       0       0       0       0
       0       0       0       0       0       0       0       0       0       0
       0       0       0       0       0       0       0       0       0       0
       0       0       0       0       0       0       0       0       0       0
       0       0       0       0       0       0       0       0       0       0
       0       0       0       0       0       0       0       0       0       0
       0       0       0       0       0       0       0       0       0       0
       0       0       0       0       0       0       0       0       0       0
       0       0       0       0       0       0       0       0       0       0
       0       0       0       0       0       0       0       0       0       0
       0       0       0       0       0       0       0       0       0       0
       0       0       0       0       0       0       0       0       0       0
       0       0       0       0       0       0       0       0       0       0
       0       0       0       0       0       0       0       0       0       0
       0       0       0       0       0       0       0       0       0       0
       0       0       0       0       0       0       0       0       0       0
       0       0       0       0       0       0       0       0       0       0
       0       0       0       0       0       0       0       0       0       0
       0       0       0       0       0       0       0       0       0       0
       0       0       0       0       0       0       0       0       0       0
       0       0       0       0       0       0       0       0       0       0
       0       0       0       0       0       0       0       0       0       0
       0       0       0       0       0       0       0       0       0       0
       0       0       0       0       0       0       0       0       0       0
       0       0       0       0       0       0       0       0       0       0
       0       0       0       0       0       0       0       0       0       0
       0       0       0       0       0       0       0       0       0       0
       0       0       0       0       0       0       0       0       0       0
       0       0       0       0       0       0       0       0       0       0
       0       0       0       0       0       0       0       0       0       0
       0       0       0       0       0       0       0       0       0       0
       0       0       0       0       0       0       0       0       0       0
       0       0       0       0       0       0       0       0       0       0
       0       0       0       0       0       0       0       0       0       0
       0       0       0       0       0       0       0       0       0       0
       0       0       0       0       0       0       0       0       0       0
       0       0       0       0       0       0       0       0       0       0
       0       0       0       0       0       0       0       0       0       0
       0       0       0       0       0       0       0       0       0       0
       0       0       0       0       0       0       0       0       0       0
       0       0       0       0       0       0       0       0       0       0
       0       0       0       0       0       0       0       0       0       0
       0       0       0       0       0       0       0       0       0       0
       0       0       0       0       0       0       0       0       0       0
       0       0       0       0       0       0       0       0       0       0
       0       0       0       0       0       0       0       0       0       0
       0       0       0       0       0       0       0       0       0       0
       0       0       0       0       0       0       0       0       0       0
       0       0       0       0       0       0       0       0       0       0
       0       0       0       0       0       0       0       0       0       0
       0       0       0       0       0       0       0       0       0       0
       0       0       0       0       0       0       0       0       0       0
       0       0       0       0       0       0       0       0       0       0
       0       0       0       0       0       0       0       0       0       0
       0       0       0       0       0       0       0       0       0       0
       0       0       0       0       0       0       0       0       0       0
       0       0       0       0       0       0       0       0       0       0
       0       0       0       0       0       0       0       0       0       0
       0       0       0       0       0       0       0       0       0       0
       0       0       0       0       0       0       0       0       0       0
       0       0       0       0       0       0       0       0       0       0
       0       0       0       0       0       0       0       0       0       0
       0       0       0       0       0       0       0       0       0       0
       0       0       0       0       0       0       0       0       0       0
       0       0       0       0       0       0       0       0       0       0
       0       0       0       0       0       0       0       0       0       0
       0       0       0       0       0       0       0       0       0       0
       0       0       0       0       0       0       0       0       0       0
       0       0       0       0       0       0       0       0       0       0
       0       0       0       0       0       0       0       0       0       0
       0       0       0       0       0       0       0       0       0       0
       0       0       0       0       0       0       0       0       0       0
       0       0       0       0       0       0       0       0       0       0
       0       0       0       0       0       0       0       0       0       0
       0       0       0       0       0       0       0       0       0       0
       0       0       0       0       0       0       0       0       0       0
       0       0       0       0       0       0       0       0       0       0
       0       0       0       0       0       0       0       0       0       0
       0       0       0       0       0       0       0       0       0       0
       0       0       0       0       0       0       0       0       0       0
       0       0       0       0       0       0       0       0       0       0
       0       0       0       0       0       0       0       0       0       0
       0       0       0       0       0       0       0       0       0       0
       0       0       0       0       0       0       0       0       0       0
       0       0       0       0       0       0       0       0       0       0
       0       0       0       0       0       0       0       0       0       0
       0       0       0       0       0       0       0       0       0       0
       0       0       0       0       0       0       0       0       0       0
       0       0       0       0       0       0       0       0       0       0
       0       0       0       0       0       0       0       0       0       0
       0       0       0       0       0       0       0       0       0       0
       0       0       0       0       0       0       0       0       0       0
       0       0       0       0       0       0       0       0       0       0
       0       0       0       0       0       0       0       0       0       0
       0       0       0       0       0       0       0       0       0       0
       0       0       0       0       0       0       0       0       0       0
       0       0       0       0       0       0       0       0       0       0
       0       0       0       0       0       0       0       0       0       0
       0       0       0       0       0       0       0       0       0       0
       0       0       0       0       0       0       0       0       0       0
       0       0       0       0       0       0       0       0       0       0
       0       0       0       0       0       0       0       0       0       0
       0       0       0       0       0       0       0       0       0       0
       0       0       0       0       0       0       0       0       0       0
       0       0       0       0       0       0       0       0       0       0
       0       0       0       0       0       0       0       0       0       0
       0       0       0       0       0       0       0       0       0       0
       0       0       0       0       0       0       0       0       0       0
       0       0       0       0       0       0       0       0       0       0
       0       0       0       0       0       0       0       0       0       0
       0       0       0       0       0       0       0       0       0       0
       0       0       0       0       0       0       0       0       0       0
       0       0       0       0       0       0       0       0       0       0
       0       0       0       0       0       0       0       0       0       0
       0       0       0       0       0       0       0       0       0       0
       0       0       0       0       0       0       0       0       0       0
       0       0       0       0       0       0       0       0       0       0
       0       0       0       0       0       0       0       0       0       0
       0       0       0       0       0       0       0       0       0       0
       0       0       0       0       0       0       0       0       0       0
       0       0       0       0       0       0       0       0       0       0
       0       0       0       0       0       0       0       0       0       0
       0       0       0       0       0       0       0       0       0       0
       0       0       0       0       0       0       0       0       0       0
       0       0       0       0       0       0       0       0       0       0
       0       0       0       0       0       0       0       0       0       0
       0       0       0       0       0       0       0       0       0       0
       0       0       0       0       0       0       0       0       0       0
       0       0       0       0       0       0       0       0       0       0
       0       0       0       0       0       0       0       0       0       0
       0       0       0       0       0       0       0       0       0       0
       0       0       0       0       0       0       0       0       0       0
       0       0       0       0       0       0       0       0       0       0
       0       0       0       0       0       0       0       0       0       0
       0       0       0       0       0       0       0       0       0       0
       0       0       0       0       0       0       0       0       0       0
       0       0       0       0       0       0       0       0       0       0
       0       0       0       0       0       0       0       0       0       0
       0       0       0       0       0       0       0       0       0       0
       0       0       0       0       0       0       0       0       0       0
       0       0       0       0       0       0       0       0       0       0
       0       0       0       0       0       0       0       0       0       0
       0       0       0       0       0       0       0       0       0       0
       0       0       0       0       0       0       0       0       0       0
       0       0       0       0       0       0       0       0       0       0
       0       0       0       0       0       0       0       0       0       0
       0       0       0       0       0       0       0       0       0       0
       0       0       0       0       0       0       0       0       0       0
       0       0       0       0       0       0       0       0       0       0
       0       0       0       0       0       0       0       0       0       0
       0       0       0       0       0       0       0       0       0       0
       0       0       0       0       0       0       0       0       0       0
       0       0       0       0       0       0       0       0       0       0
       0       0       0       0       0       0       0       0       0       0
       0       0       0       0       0       0       0       0       0       0
       0       0       0       0       0       0       0       0       0       0
       0       0       0       0       0       0       0       0       0       0
       0       0       0       0       0       0       0       0       0       0
       0       0       0       0       0       0       0       0       0       0
       0       0       0       0       0       0       0       0       0       0
       0       0       0       0       0       0       0       0       0       0
       0       0       0       0       0       0       0       0       0       0
       0       0       0       0       0       0       0       0       0       0
       0       0       0       0       0       0       0       0       0       0
       0       0       0       0       0       0       0       0       0       0
       0       0       0       0       0       0       0       0       0       0
       0       0       0       0       0       0       0       0       0       0
       0       0       0       0       0       0       0       0       0       0
       0       0       0       0       0       0       0       0       0       0
       0       0       0       0       0       0       0       0       0       0
       0       0       0       0       0       0       0       0       0       0
       0       0       0       0       0       0       0       0       0       0
       0       0       0       0       0       0       0       0       0       0
       0       0       0       0       0       0       0       0       0       0
       0       0       0       0       0       0       0       0       0       0
       0       0       0       0       0       0       0       0       0       0
       0       0       0       0       0       0       0       0       0       0
       0       0       0       0       0       0       0       0       0       0
       0       0       0       0       0       0       0       0       0       0
       0       0       0       0       0       0       0       0       0       0
       0       0       0       0       0       0       0       0       0       0
       0       0       0       0       0       0       0       0       0       0
       0       0       0       0       0       0       0       0       0       0
       0       0       0       0       0       0       0       0       0       0
       0       0       0       0       0       0       0       0       0       0
       0       0       0       0       0       0       0       0       0       0
       0       0       0       0       0       0       0       0       0       0
       0       0       0       0       0       0       0       0       0       0
       0       0       0       0       0       0       0       0       0       0
       0       0       0       0       0       0       0       0       0       0
       0       0       0       0       0       0       0       0       0       0
       0       0       0       0       0       0       0       0       0       0
       0       0       0       0       0       0       0       0       0       0
       0       0       0       0       0       0       0       0       0       0
       0       0       0       0       0       0       0       0       0       0
       0       0       0       0       0       0       0       0       0       0
       0       0       0       0       0       0       0       0       0       0
       0       0       0       0       0       0       0       0       0       0
       0       0       0       0       0       0       0       0       0       0
       0       0       0       0       0       0       0       0       0       0
       0       0       0       0       0       0       0       0       0       0
       0       0       0       0       0       0       0       0       0       0
       0       0       0       0       0       0       0       0       0       0
       0       0       0       0       0       0       0       0       0       0
       0       0       0       0       0       0       0       0       0       0
       0       0       0       0       0       0       0       0       0       0
       0       0       0       0       0       0       0       0       0       0
       0       0       0       0       0       0       0       0       0       0
       0       0       0       0       0       0       0       0       0       0
       0       0       0       0       0       0       0       0       0       0
       0       0       0       0       0       0       0       0       0       0
       0       0       0       0       0       0       0       0       0       0
       0       0       0       0       0       0       0       0       0       0
       0       0       0       0       0       0       0       0       0       0
       0       0       0       0       0       0       0       0       0       0
       0       0       0       0       0       0       0       0       0       0
       0       0       0       0       0       0       0       0       0       0
       0       0       0       0       0       0       0       0       0       0
       0       0       0       0       0       0       0       0       0       0
       0       0       0       0       0       0       0       0       0       0
       0       0       0       0       0       0       0       0       0       0
       0       0       0       0       0       0       0       0       0       0
       0       0       0       0       0       0       0       0       0       0
       0       0       0       0       0       0       0       0       0       0
       0       0       0       0       0       0       0       0       0       0
       0       0       0       0       0       0       0       0       0       0
       0       0       0       0       0       0       0       0       0       0
       0       0       0       0       0       0       0       0       0       0
       0       0       0       0       0       0       0       0       0       0
       0       0       0       0       0       0       0       0       0       0
       0       0       0       0       0       0       0       0       0       0
       0       0       0       0       0       0       0       0       0       0
       0       0       0       0       0       0       0       0       0       0
       0       0       0       0       0       0       0       0       0       0
       0       0       0       0       0       0       0       0       0       0
       0       0       0       0       0       0       0       0       0       0
       0       0       0       0       0       0       0       0       0       0
       0       0       0       0       0       0       0       0       0       0
       0       0       0       0       0       0       0       0       0       0
       0       0       0       0       0       0       0       0       0       0
       0       0       0       0       0       0       0       0       0       0
       0       0       0       0       0       0       0       0       0       0
       0       0       0       0       0       0       0       0       0       0
       0       0       0       0       0       0       0       0       0       0
       0       0       0       0       0       0       0       0       0       0
       0       0       0       0       0       0       0       0       0       0
       0       0       0       0       0       0       0       0       0       0
       0       0       0       0       0       0       0       0       0       0
       0       0       0       0       0       0       0       0       0       0
       0       0       0       0       0       0       0       0       0       0
       0       0       0       0       0       0       0       0       0       0
       0       0       0       0       0       0       0       0       0       0
       0       0       0       0       0       0       0       0       0       0
       0       0       0       0       0       0       0       0       0       0
       0       0       0       0       0       0       0       0       0       0
       0       0       0       0       0       0       0       0       0       0
       0       0       0       0       0       0       0       0       0       0
       0       0       0       0       0       0       0       0       0       0
       0       0       0       0       0       0       0       0       0       0
       0       0       0       0       0       0       0       0       0       0
       0       0       0       0       0       0       0       0       0       0
       0       0       0       0       0       0       0       0       0       0
       0       0       0       0       0       0       0       0       0       0
       0       0       0       0       0       0       0       0       0       0
       0       0       0       0       0       0       0       0       0       0
       0       0       0       0       0       0       0       0       0       0
       0       0       0       0       0       0       0       0       0       0
       0       0       0       0       0       0       0       0       0       0
       0       0       0       0       0       0       0       0       0       0
       0       0       0       0       0       0       0       0       0       0
       0       0       0       0       0       0       0       0       0       0
       0       0       0       0       0       0       0       0       0       0
       0       0       0       0       0       0       0       0       0       0
       0       0       0       0       0       0       0       0       0       0
       0       0       0       0       0       0       0       0       0       0
       0       0       0       0       0       0       0       0       0       0
       0       0       0       0       0       0       0       0       0       0
       0       0       0       0       0       0       0       0       0       0
       0       0       0       0       0       0       0       0       0       0
       0       0       0       0       0       0       0       0       0       0
       0       0       0       0       0       0       0       0       0       0
       0       0       0       0       0       0       0       0       0       0
       0       0       0       0       0       0       0       0       0       0
       0       0       0       0       0       0       0       0       0       0
       0       0       0       0       0       0       0       0       0       0
       0       0       0       0       0       0       0       0       0       0
       0       0       0       0       0       0       0       0       0       0
       0       0       0       0       0       0       0       0       0       0
       0       0       0       0       0       0       0       0       0       0
       0       0       0       0       0       0       0       0       0       0
       0       0       0       0       0       0       0       0       0       0
       0       0       0       0       0       0       0       0       0       0
       0       0       0       0       0       0       0       0       0       0
       0       0       0       0       0       0       0       0       0       0
       0       0       0       0       0       0       0       0       0       0
       0       0       0       0       0       0       0       0       0       0
       0       0       0       0       0       0       0       0       0       0
       0       0       0       0       0       0       0       0       0       0
       0       0       0       0       0       0       0       0       0       0
       0       0       0       0       0       0       0       0       0       0
       0       0       0       0       0       0       0       0       0       0
       0       0       0       0       0       0       0       0       0       0
       0       0       0       0       0       0       0       0       0       0
       0       0       0       0       0       0       0       0       0       0
       0       0       0       0       0       0       0       0       0       0
       0       0       0       0       0       0       0       0       0       0
       0       0       0       0       0       0       0       0       0       0
       0       0       0       0       0       0       0       0       0       0
       0       0       0       0       0       0       0       0       0       0
       0       0       0       0       0       0       0       0       0       0
       0       0       0       0       0       0       0       0       0       0
       0       0       0       0       0       0       0       0       0       0
       0       0       0       0       0       0       0       0       0       0
       0       0       0       0       0       0       0       0       0       0
       0       0       0       0       0       0       0       0       0       0
       0       0       0       0       0       0       0       0       0       0
       0       0       0       0       0       0       0       0       0       0
       0       0       0       0       0       0       0       0       0       0
       0       0       0       0       0       0       0       0       0       0
       0       0       0       0       0       0       0       0       0       0
       0       0       0       0       0       0       0       0       0       0
       0       0       0       0       0       0       0       0       0       0
       0       0       0       0       0       0       0       0       0       0
       0       0       0       0       0       0       0       0       0       0
       0       0       0       0       0       0       0       0       0       0
       0       0       0       0       0       0       0       0       0       0
       0       0       0       0       0       0       0       0       0       0
       0       0       0       0       0       0       0       0       0       0
       0       0       0       0       0       0       0       0       0       0
       0       0       0       0       0       0       0       0       0       0
       0       0       0       0       0       0       0       0       0       0
       0       0       0       0       0       0       0       0       0       0
       0       0       0       0       0       0       0       0       0       0
       0       0       0       0       0       0       0       0       0       0
       0       0       0       0       0       0       0       0       0       0
       0       0       0       0       0       0       0       0       0       0
       0       0       0       0       0       0       0       0       0       0
       0       0       0       0       0       0       0       0       0       0
       0       0       0       0       0       0       0       0       0       0
       0       0       0       0       0       0       0       0       0       0
       0       0       0       0       0       0       0       0       0       0
       0       0       0       0       0       0       0       0       0       0
       0       0       0       0       0       0       0       0       0       0
       0       0       0       0       0       0       0       0       0       0
       0       0       0       0       0       0       0       0       0       0
       0       0       0       0       0       0       0       0       0       0
       0       0       0       0       0       0       0       0       0       0
       0       0       0       0       0       0       0       0       0       0
       0       0       0       0       0       0       0       0       0       0
       0       0       0       0       0       0       0       0       0       0
       0       0       0       0       0       0       0       0       0       0
       0       0       0       0       0       0       0       0       0       0
       0       0       0       0       0       0       0       0       0       0
       0       0       0       0       0       0       0       0       0       0
       0       0       0       0       0       0       0       0       0       0
       0       0       0       0       0       0       0       0       0       0
       0       0       0       0       0       0       0       0       0       0
       0       0       0       0       0       0       0       0       0       0
       0       0       0       0       0       0       0       0       0       0
       0       0       0       0       0       0       0       0       0       0
       0       0       0       0       0       0       0       0       0       0
       0       0       0       0       0       0       0       0       0       0
       0       0       0       0       0       0       0       0       0       0
       0       0       0       0       0       0       0       0       0       0
       0       0       0       0       0       0       0       0       0       0
       0       0       0       0       0       0       0       0       0       0
       0       0       0       0       0       0       0       0       0       0
       0       0       0       0       0       0       0       0       0       0
       0       0       0       0       0       0       0       0       0       0
       0       0       0       0       0       0       0       0       0       0
       0       0       0       0       0       0       0       0       0       0
       0       0       0       0       0       0       0       0       0       0
       0       0       0       0       0       0       0       0       0       0
       0       0       0       0       0       0       0       0       0       0
       0       0       0       0       0       0       0       0       0       0
       0       0       0       0       0       0       0       0       0       0
       0       0       0       0       0       0       0       0       0       0
       0       0       0       0       0       0       0       0       0       0
       0       0       0       0       0       0       0       0       0       0
       0       0       0       0       0       0       0       0       0       0
       0       0       0       0       0       0       0       0       0       0
       0       0       0       0       0       0       0       0       0       0
       0       0       0       0       0       0       0       0       0       0
       0       0       0       0       0       0       0       0       0       0
       0       0       0       0       0       0       0       0       0       0
       0       0       0       0       0       0       0       0       0       0
       0       0       0       0       0       0       0       0       0       0
       0       0       0       0       0       0       0       0       0       0
       0       0       0       0       0       0       0       0       0       0
       0       0       0       0       0       0       0       0       0       0
       0       0       0       0       0       0       0       0       0       0
       0       0       0       0       0       0       0       0       0       0
       0       0       0       0       0       0       0       0       0       0
       0       0       0       0       0       0       0       0       0       0
       0       0       0       0       0       0       0       0       0       0
       0       0       0       0       0       0       0       0       0       0
       0       0       0       0       0       0       0       0       0       0
       0       0       0       0       0       0       0       0       0       0
       0       0       0       0       0       0       0       0       0       0
       0       0       0       0       0       0       0       0       0       0
       0       0       0       0       0       0       0       0       0       0
       0       0       0       0       0       0       0       0       0       0
       0       0       0       0       0       0       0       0       0       0
       0       0       0       0       0       0       0       0       0       0
       0       0       0       0       0       0       0       0       0       0
       0       0       0       0       0       0       0       0       0       0
       0       0       0       0       0       0       0       0       0       0
       0       0       0       0       0       0       0       0       0       0
       0       0       0       0       0       0       0       0       0       0
       0       0       0       0       0       0       0       0       0       0
       0       0       0       0       0       0       0       0       0       0
       0       0       0       0       0       0       0       0       0       0
       0       0       0       0       0       0       0       0       0       0
       0       0       0       0       0       0       0       0       0       0
       0       0       0       0       0       0       0       0       0       0
       0       0       0       0       0       0       0       0       0       0
       0       0       0       0       0       0       0       0       0       0
       0       0       0       0       0       0       0       0       0       0
       0       0       0       0       0       0       0       0       0       0
       0       0       0       0       0       0       0       0       0       0
       0       0       0       0       0       0       0       0       0       0
       0       0       0       0       0       0       0       0       0       0
       0       0       0       0       0       0       0       0       0       0
       0       0       0       0       0       0       0       0       0       0
       0       0       0       0       0       0       0       0       0       0
       0       0       0       0       0       0       0       0       0       0
       0       0       0       0       0       0       0       0       0       0
       0       0       0       0       0       0       0       0       0       0
       0       0       0       0       0       0       0       0       0       0
       0       0       0       0       0       0       0       0       0       0
       0       0       0       0       0       0       0       0       0       0
       0       0       0       0       0       0       0       0       0       0
       0       0       0       0       0       0       0       0       0       0
       0       0       0       0       0       0       0       0       0       0
       0       0       0       0       0       0       0       0       0       0
       0       0       0       0       0       0       0       0       0       0
       0       0       0       0       0       0       0       0       0       0
       0       0       0       0       0       0       0       0       0       0
       0       0       0       0       0       0       0       0       0       0
       0       0       0       0       0       0       0       0       0       0
       0       0       0       0       0       0       0       0       0       0
       0       0       0       0       0       0       0       0       0       0
       0       0       0       0       0       0       0       0       0       0
       0       0       0       0       0       0       0       0       0       0
       0       0       0       0       0       0       0       0       0       0
       0       0       0       0       0       0       0       0       0       0
       0       0       0       0       0       0       0       0       0       0
       0       0       0       0       0       0       0       0       0       0
       0       0       0       0       0       0       0       0       0       0
       0       0       0       0       0       0       0       0       0       0
       0       0       0       0       0       0       0       0       0       0
       0       0       0       0       0       0       0       0       0       0
       0       0       0       0       0       0       0       0       0       0
       0       0       0       0       0       0       0       0       0       0
       0       0       0       0       0       0       0       0       0       0
       0       0       0       0       0       0       0       0       0       0
       0       0       0       0       0       0       0       0       0       0
       0       0       0       0       0       0       0       0       0       0
       0       0       0       0       0       0       0       0       0       0
       0       0       0       0       0       0       0       0       0       0
       0       0       0       0       0       0       0       0       0       0
       0       0       0       0       0       0       0       0       0       0
       0       0       0       0       0       0       0       0       0       0
       0       0       0       0       0       0       0       0       0       0
       0       0       0       0       0       0       0       0       0       0
       0       0       0       0       0       0       0       0       0       0
       0       0       0       0       0       0       0       0       0       0
       0       0       0       0       0       0       0       0       0       0
       0       0       0       0       0       0       0       0       0       0
       0       0       0       0       0       0       0       0       0       0
       0       0       0       0       0       0       0       0       0       0
       0       0       0       0       0       0       0       0       0       0
       0       0       0       0       0       0       0       0       0       0
       0       0       0       0       0       0       0       0       0       0
       0       0       0       0       0       0       0       0       0       0
       0       0       0       0       0       0       0       0       0       0
       0       0       0       0       0       0       0       0       0       0
       0       0       0       0       0       0       0       0       0       0
       0       0       0       0       0       0       0       0       0       0
       0       0       0       0       0       0       0       0       0       0
       0       0       0       0       0       0       0       0       0       0
       0       0       0       0       0       0       0       0       0       0
       0       0       0       0       0       0       0       0       0       0
       0       0       0       0       0       0       0       0       0       0
       0       0       0       0       0       0       0       0       0       0
       0       0       0       0       0       0       0       0       0       0
       0       0       0       0       0       0       0       0       0       0
       0       0       0       0       0       0       0       0       0       0
       0       0       0       0       0       0       0       0       0       0
       0       0       0       0       0       0       0       0       0       0
       0       0       0       0       0       0       0       0       0       0
       0       0       0       0       0       0       0       0       0       0
       0       0       0       0       0       0       0       0       0       0
       0       0       0       0       0       0       0       0       0       0
       0       0       0       0       0       0       0       0       0       0
       0       0       0       0       0       0       0       0       0       0
       0       0       0       0       0       0       0       0       0       0
       0       0       0       0       0       0       0       0       0       0
       0       0       0       0       0       0       0       0       0       0
       0       0       0       0       0       0       0       0       0       0
       0       0       0       0       0       0       0       0       0       0
       0       0       0       0       0       0       0       0       0       0
       0       0       0       0       0       0       0       0       0       0
       0       0       0       0       0       0       0       0       0       0
       0       0       0       0       0       0       0       0       0       0
       0       0       0       0       0       0       0       0       0       0
       0       0       0       0       0       0       0       0       0       0
       0       0       0       0       0       0       0       0       0       0
       0       0       0       0       0       0       0       0       0       0
       0       0       0       0       0       0       0       0       0       0
       0       0       0       0       0       0       0       0       0       0
       0       0       0       0       0       0       0       0       0       0
       0       0       0       0       0       0       0       0       0       0
       0       0       0       0       0       0       0       0       0       0
       0       0       0       0       0       0       0       0       0       0
       0       0       0       0       0       0       0       0       0       0
       0       0       0       0       0       0       0       0       0       0
       0       0       0       0       0       0       0       0       0       0
       0       0       0       0       0       0       0       0       0       0
       0       0       0       0       0       0       0       0       0       0
       0       0       0       0       0       0       0       0       0       0
       0       0       0       0       0       0       0       0       0       0
       0       0       0       0       0       0       0       0       0       0
       0       0       0       0       0       0       0       0       0       0
       0       0       0       0       0       0       0       0       0       0
       0       0       0       0       0       0       0       0       0       0
       0       0       0       0       0       0       0       0       0       0
       0       0       0       0       0       0       0       0       0       0
       0       0       0       0       0       0       0       0       0       0
       0       0       0       0       0       0       0       0       0       0
       0       0       0       0       0       0       0       0       0       0
       0       0       0       0       0       0       0       0       0       0
       0       0       0       0       0       0       0       0       0       0
       0       0       0       0       0       0       0       0       0       0
       0       0       0       0       0       0       0       0       0       0
       0       0       0       0       0       0       0       0       0       0
       0       0       0       0       0       0       0       0       0       0
       0       0       0       0       0       0       0       0       0       0
       0       0       0       0       0       0       0       0       0       0
       0       0       0       0       0       0       0       0       0       0
       0       0       0       0       0       0       0       0       0       0
       0       0       0       0       0       0       0       0       0       0
       0       0       0       0       0       0       0       0       0       0
       0       0       0       0       0       0       0       0       0       0
       0       0       0       0       0       0       0       0       0       0
       0       0       0       0       0       0       0       0       0       0
       0       0       0       0       0       0       0       0       0       0
       0       0       0       0       0       0       0       0       0       0
       0       0       0       0       0       0       0       0       0       0
       0       0       0       0       0       0       0       0       0       0
       0       0       0       0       0       0       0       0       0       0
       0       0       0       0       0       0       0       0       0       0
       0       0       0       0       0       0       0       0       0       0
       0       0       0       0       0       0       0       0       0       0
       0       0       0       0       0       0       0       0       0       0
       0       0       0       0       0       0       0       0       0       0
       0       0       0       0       0       0       0       0       0       0
       0       0       0       0       0       0       0       0       0       0
       0       0       0       0       0       0       0       0       0       0
       0       0       0       0       0       0       0       0       0       0
       0       0       0       0       0       0       0       0       0       0
       0       0       0       0       0       0       0       0       0       0
       0       0       0       0       0       0       0       0       0       0
       0       0       0       0       0       0       0       0       0       0
       0       0       0       0       0       0       0       0       0       0
       0       0       0       0       0       0       0       0       0       0
       0       0       0       0       0       0       0       0       0       0
       0       0       0       0       0       0       0       0       0       0
       0       0       0       0       0       0       0       0       0       0
       0       0       0       0       0       0       0       0       0       0
       0       0       0       0       0       0       0       0       0       0
       0       0       0       0       0       0       0       0       0       0
       0       0       0       0       0       0       0       0       0       0
       0       0       0       0       0       0       0       0       0       0
       0       0       0       0       0       0       0       0       0       0
       0       0       0       0       0       0       0       0       0       0
       0       0       0       0       0       0       0       0       0       0
       0       0       0       0       0       0       0       0       0       0
       0       0       0       0       0       0       0       0       0       0
       0       0       0       0       0       0       0       0       0       0
       0       0       0       0       0       0       0       0       0       0
       0       0       0       0       0       0       0       0       0       0
       0       0       0       0       0       0       0       0       0       0
       0       0       0       0       0       0       0       0       0       0
       0       0       0       0       0       0       0       0       0       0
       0       0       0       0       0       0       0       0       0       0
       0       0       0       0       0       0       0       0       0       0
       0       0       0       0       0       0       0       0       0       0
       0       0       0       0       0       0       0       0       0       0
       0       0       0       0       0       0       0       0       0       0
       0       0       0       0       0       0       0       0       0       0
       0       0       0       0       0       0       0       0       0       0
       0       0       0       0       0       0       0       0       0       0
       0       0       0       0       0       0       0       0       0       0
       0       0       0       0       0       0       0       0       0       0
       0       0       0       0       0       0       0       0       0       0
       0       0       0       0       0       0       0       0       0       0
       0       0       0       0       0       0       0       0       0       0
       0       0       0       0       0       0       0       0       0       0
       0       0       0       0       0       0       0       0       0       0
       0       0       0       0       0       0       0       0       0       0
       0       0       0       0       0       0       0       0       0       0
       0       0       0       0       0       0       0       0       0       0
       0       0       0       0       0       0       0       0       0       0
       0       0       0       0       0       0       0       0       0       0
       0       0       0       0       0       0       0       0       0       0
       0       0       0       0       0       0       0       0       0       0
       0       0       0       0       0       0       0       0       0       0
       0       0       0       0       0       0       0       0       0       0
       0       0       0       0       0       0       0       0       0       0
       0       0       0       0       0       0       0       0       0       0
       0       0       0       0       0       0       0       0       0       0
       0       0       0       0       0       0       0       0       0       0
       0       0       0       0       0       0       0       0       0       0
       0       0       0       0       0       0       0       0       0       0
       0       0       0       0       0       0       0       0       0       0
       0       0       0       0       0       0       0       0       0       0
       0       0       0       0       0       0       0       0       0       0
       0       0       0       0       0       0       0       0       0       0
       0       0       0       0       0       0       0       0       0       0
       0       0       0       0       0       0       0       0       0       0
       0       0       0       0       0       0       0       0       0       0
       0       0       0       0       0       0       0       0       0       0
       0       0       0       0       0       0       0       0       0       0
       0       0       0       0       0       0       0       0       0       0
       0       0       0       0       0       0       0       0       0       0
       0       0       0       0       0       0       0       0       0       0
       0       0       0       0       0       0       0       0       0       0
       0       0       0       0       0       0       0       0       0       0
       0       0       0       0       0       0       0       0       0       0
       0       0       0       0       0       0       0       0       0       0
       0       0       0       0       0       0       0       0       0       0
       0       0       0       0       0       0       0       0       0       0
       0       0       0       0       0       0       0       0       0       0
       0       0       0       0       0       0       0       0       0       0
       0       0       0       0       0       0       0       0       0       0
       0       0       0       0       0       0       0       0       0       0
       0       0       0       0       0       0       0       0       0       0
       0       0       0       0       0       0       0       0       0       0
       0       0       0       0       0       0       0       0       0       0
       0       0       0       0       0       0       0       0       0       0
       0       0       0       0       0       0       0       0       0       0
       0       0       0       0       0       0       0       0       0       0
       0       0       0       0       0       0       0       0       0       0
       0       0       0       0       0       0       0       0       0       0
       0       0       0       0       0       0       0       0       0       0
       0       0       0       0       0       0       0       0       0       0
       0       0       0       0       0       0       0       0       0       0
       0       0       0       0       0       0       0       0       0       0
       0       0       0       0       0       0       0       0       0       0
       0       0       0       0       0       0       0       0       0       0
       0       0       0       0       0       0       0       0       0       0
       0       0       0       0       0       0       0       0       0       0
       0       0       0       0       0       0       0       0       0       0
       0       0       0       0       0       0       0       0       0       0
       0       0       0       0       0       0       0       0       0       0
       0       0       0       0       0       0       0       0       0       0
       0       0       0       0       0       0       0       0       0       0
       0       0       0       0       0       0       0       0       0       0
       0       0       0       0       0       0       0       0       0       0
       0       0       0       0       0       0       0       0       0       0
       0       0       0       0       0       0       0       0       0       0
       0       0       0       0       0       0       0       0       0       0
       0       0       0       0       0       0       0       0       0       0
       0       0       0       0       0       0       0       0       0       0
       0       0       0       0       0       0       0       0       0       0
       0       0       0       0       0       0       0       0       0       0
       0       0       0       0       0       0       0       0       0       0
       0       0       0       0       0       0       0       0       0       0
       0       0       0       0       0       0       0       0       0       0
       0       0       0       0       0       0       0       0       0       0
       0       0       0       0       0       0       0       0       0       0
       0       0       0       0       0       0       0       0       0       0
       0       0       0       0       0       0       0       0       0       0
       0       0       0       0       0       0       0       0       0       0
       0       0       0       0       0       0       0       0       0       0
       0       0       0       0       0       0       0       0       0       0
       0       0       0       0       0       0       0       0       0       0
       0       0       0       0       0       0       0       0       0       0
       0       0       0       0       0       0       0       0       0       0
       0       0       0       0       0       0       0       0       0       0
       0       0       0       0       0       0       0       0       0       0
       0       0       0       0       0       0       0       0       0       0
       0       0       0       0       0       0       0       0       0       0
       0       0       0       0       0       0       0       0       0       0
       0       0       0       0       0       0       0       0       0       0
       0       0       0       0       0       0       0       0       0       0
       0       0       0       0       0       0       0       0       0       0
       0       0       0       0       0       0       0       0       0       0
       0       0       0       0       0       0       0       0       0       0
       0       0       0       0       0       0       0       0       0       0
       0       0       0       0       0       0       0       0       0       0
       0       0       0       0       0       0       0       0       0       0
       0       0       0       0       0       0       0       0       0       0
       0       0       0       0       0       0       0       0       0       0
       0       0       0       0       0       0       0       0       0       0
       0       0       0       0       0       0       0       0       0       0
       0       0       0       0       0       0       0       0       0       0
       0       0       0       0       0       0       0       0       0       0
       0       0       0       0       0       0       0       0       0       0
       0       0       0       0       0       0       0       0       0       0
       0       0       0       0       0       0       0       0       0       0
       0       0       0       0       0       0       0       0       0       0
       0       0       0       0       0       0       0       0       0       0
       0       0       0       0       0       0       0       0       0       0
       0       0       0       0       0       0       0       0       0       0
       0       0       0       0       0       0       0       0       0       0
       0       0       0       0       0       0       0       0       0       0
       0       0       0       0       0       0       0       0       0       0
       0       0       0       0       0       0       0       0       0       0
       0       0       0       0       0       0       0       0       0       0
       0       0       0       0       0       0       0       0       0       0
       0       0       0       0       0       0       0       0       0       0
       0       0       0       0       0       0       0       0       0       0
       0       0       0       0       0       0       0       0       0       0
       0       0       0       0       0       0       0       0       0       0
       0       0       0       0       0       0       0       0       0       0
       0       0       0       0       0       0       0       0       0       0
       0       0       0       0       0       0       0       0       0       0
       0       0       0       0       0       0       0       0       0       0
       0       0       0       0       0       0       0       0       0       0
       0       0       0       0       0       0       0       0       0       0
       0       0       0       0       0       0       0       0       0       0
       0       0       0       0       0       0       0       0       0       0
       0       0       0       0       0       0       0       0       0       0
       0       0       0       0       0       0       0       0       0       0
       0       0       0       0       0       0       0       0       0       0
       0       0       0       0       0       0       0       0       0       0
       0       0       0       0       0       0       0       0       0       0
       0       0       0       0       0       0       0       0       0       0
       0       0       0       0       0       0       0       0       0       0
       0       0       0       0       0       0       0       0       0       0
       0       0       0       0       0       0       0       0       0       0
       0       0       0       0       0       0       0       0       0       0
       0       0       0       0       0       0       0       0       0       0
       0       0       0       0       0       0       0       0       0       0
       0       0       0       0       0       0       0       0       0       0
       0       0       0       0       0       0       0       0       0       0
       0       0       0       0       0       0       0       0       0       0
       0       0       0       0       0       0       0       0       0       0
       0       0       0       0       0       0       0       0       0       0
       0       0       0       0       0       0       0       0       0       0
       0       0       0       0       0       0       0       0       0       0
       0       0       0       0       0       0       0       0       0       0
       0       0       0       0       0       0       0       0       0       0
       0       0       0       0       0       0       0       0       0       0
       0       0       0       0       0       0       0       0       0       0
       0       0       0       0       0       0       0       0       0       0
       0       0       0       0       0       0       0       0       0       0
       0       0       0       0       0       0       0       0       0       0
       0       0       0       0       0       0       0       0       0       0
       0       0       0       0       0       0       0       0       0       0
       0       0       0       0       0       0       0       0       0       0
       0       0       0       0       0       0       0       0       0       0
       0       0       0       0       0       0       0       0       0       0
       0       0       0       0       0       0       0       0       0       0
       0       0       0       0       0       0       0       0       0       0
       0       0       0       0       0       0       0       0       0       0
       0       0       0       0       0       0       0       0       0       0
       0       0       0       0       0       0       0       0       0       0
       0       0       0       0       0       0       0       0       0       0
       0       0       0       0       0       0       0       0       0       0
       0       0       0       0       0       0       0       0       0       0
       0       0       0       0       0       0       0       0       0       0
       0       0       0       0       0       0       0       0       0       0
       0       0       0       0       0       0       0       0       0       0
       0       0       0       0       0       0       0       0       0       0
       0       0       0       0       0       0       0       0       0       0
       0       0       0       0       0       0       0       0       0       0
       0       0       0       0       0       0       0       0       0       0
       0       0       0       0       0       0       0       0       0       0
       0       0       0       0       0       0       0       0       0       0
       0       0       0       0       0       0       0       0       0       0
       0       0       0       0       0       0       0       0       0       0
       0       0       0       0       0       0       0       0       0       0
       0       0       0       0       0       0       0       0       0       0
       0       0       0       0       0       0       0       0       0       0
       0       0       0       0       0       0       0       0       0       0
       0       0       0       0       0       0       0       0       0       0
       0       0       0       0       0       0       0       0       0       0
       0       0       0       0       0       0       0       0       0       0
       0       0       0       0       0       0       0       0       0       0
       0       0       0       0       0       0       0       0       0       0
       0       0       0       0       0       0       0       0       0       0
       0       0       0       0       0       0       0       0       0       0
       0       0       0       0       0       0       0       0       0       0
       0       0       0       0       0       0       0       0       0       0
       0       0       0       0       0       0       0       0       0       0
       0       0       0       0       0       0       0       0       0       0
       0       0       0       0       0       0       0       0       0       0
       0       0       0       0       0       0       0       0       0       0
       0       0       0       0       0       0       0       0       0       0
       0       0       0       0       0       0       0       0       0       0
       0       0       0       0       0       0       0       0       0       0
       0       0       0       0       0       0       0       0       0       0
       0       0       0       0       0       0       0       0       0       0
       0       0       0       0       0       0       0       0       0       0
       0       0       0       0       0       0       0       0       0       0
       0       0       0       0       0       0       0       0       0       0
       0       0       0       0       0       0       0       0       0       0
       0       0       0       0       0       0       0       0       0       0
       0       0       0       0       0       0       0       0       0       0
       0       0       0       0       0       0       0       0       0       0
       0       0       0       0       0       0       0       0       0       0
       0       0       0       0       0       0       0       0       0       0
       0       0       0       0       0       0       0       0       0       0
       0       0       0       0       0       0       0       0       0       0
       0       0       0       0       0       0       0       0       0       0
       0       0       0       0       0       0       0       0       0       0
       0       0       0       0       0       0       0       0       0       0
       0       0       0       0       0       0       0       0       0       0
       0       0       0       0       0       0       0       0       0       0
       0       0       0       0       0       0       0       0       0       0
       0       0       0       0       0       0       0       0       0       0
       0       0       0       0       0       0       0       0       0       0
       0       0       0       0       0       0       0       0       0       0
       0       0       0       0       0       0       0       0       0       0
       0       0       0       0       0       0       0       0       0       0
       0       0       0       0       0       0       0       0       0       0
       0       0       0       0       0       0       0       0       0       0
       0       0       0       0       0       0       0       0       0       0
       0       0       0       0       0       0       0       0       0       0
       0       0       0       0       0       0       0       0       0       0
       0       0       0       0       0       0       0       0       0       0
       0       0       0       0       0       0       0       0       0       0
       0       0       0       0       0       0       0       0       0       0
       0       0       0       0       0       0       0       0       0       0
       0       0       0       0       0       0       0       0       0       0
       0       0       0       0       0       0       0       0       0       0
       0       0       0       0       0       0       0       0       0       0
       0       0       0       0       0       0       0       0       0       0
       0       0       0       0       0       0       0       0       0       0
       0       0       0       0       0       0       0       0       0       0
       0       0       0       0       0       0       0       0       0       0
       0       0       0       0       0       0       0       0       0       0
       0       0       0       0       0       0       0       0       0       0
       0       0       0       0       0       0       0       0       0       0
       0       0       0       0       0       0       0       0       0       0
       0       0       0       0       0       0       0       0       0       0
       0       0       0       0       0       0       0       0       0       0
       0       0       0       0       0       0       0       0       0       0
       0       0       0       0       0       0       0       0       0       0
       0       0       0       0       0       0       0       0       0       0
       0       0       0       0       0       0       0       0       0       0
       0       0       0       0       0       0       0       0       0       0
       0       0       0       0       0       0       0       0       0       0
       0       0       0       0       0       0       0       0       0       0
       0       0       0       0       0       0       0       0       0       0
       0       0       0       0       0       0       0       0       0       0
       0       0       0       0       0       0       0       0       0       0
       0       0       0       0       0       0       0       0       0       0
       0       0       0       0       0       0       0       0       0       0
       0       0       0       0       0       0       0       0       0       0
       0       0       0       0       0       0       0       0       0       0
       0       0       0       0       0       0       0       0       0       0
       0       0       0       0       0       0       0       0       0       0
       0       0       0       0       0       0       0       0       0       0
       0       0       0       0       0       0       0       0       0       0
       0       0       0       0       0       0       0       0       0       0
       0       0       0       0       0       0       0       0       0       0
       0       0       0       0       0       0       0       0       0       0
       0       0       0       0       0       0       0       0       0       0
       0       0       0       0       0       0       0       0       0       0
       0       0       0       0       0       0       0       0       0       0
       0       0       0       0       0       0       0       0       0       0
       0       0       0       0       0       0       0       0       0       0
       0       0       0       0       0       0       0       0       0       0
       0       0       0       0       0       0       0       0       0       0
       0       0       0       0       0       0       0       0       0       0
       0       0       0       0       0       0       0       0       0       0
       0       0       0       0       0       0       0       0       0       0
       0       0       0       0       0       0       0       0       0       0
       0       0       0       0       0       0       0       0       0       0
       0       0       0       0       0       0       0       0       0       0
       0       0       0       0       0       0       0       0       0       0
       0       0       0       0       0       0       0       0       0       0
       0       0       0       0       0       0       0       0       0       0
       0       0       0       0       0       0       0       0       0       0
       0       0       0       0       0       0       0       0       0       0
       0       0       0       0       0       0       0       0       0       0
       0       0       0       0       0       0       0       0       0       0
       0       0       0       0       0       0       0       0       0       0
       0       0       0       0       0       0       0       0       0       0
       0       0       0       0       0       0       0       0       0       0
       0       0       0       0       0       0       0       0       0       0
       0       0       0       0       0       0       0       0       0       0
       0       0       0       0       0       0       0       0       0       0
       0       0       0       0       0       0       0       0       0       0
       0       0       0       0       0       0       0       0       0       0
       0       0       0       0       0       0       0       0       0       0
       0       0       0       0       0       0       0       0       0       0
       0       0       0       0       0       0       0       0       0       0
       0       0       0       0       0       0       0       0       0       0
       0       0       0       0       0       0       0       0       0       0
       0       0       0       0       0       0       0       0       0       0
       0       0       0       0       0       0       0       0       0       0
       0       0       0       0       0       0       0       0       0       0
       0       0       0       0       0       0       0       0       0       0
       0       0       0       0       0       0       0       0       0       0
       0       0       0       0       0       0       0       0       0       0
       0       0       0       0       0       0       0       0       0       0
       0       0       0       0       0       0       0       0       0       0
       0       0       0       0       0       0       0       0       0       0
       0       0       0       0       0       0       0       0       0       0
       0       0       0       0       0       0       0       0       0       0
       0       0       0       0       0       0       0       0       0       0
       0       0       0       0       0       0       0       0       0       0
       0       0       0       0       0       0       0       0       0       0
       0       0       0       0       0       0       0       0       0       0
       0       0       0       0       0       0       0       0       0       0
       0       0       0       0       0       0       0       0       0       0
       0       0       0       0       0       0       0       0       0       0
       0       0       0       0       0       0       0       0       0       0
       0       0       0       0       0       0       0       0       0       0
       0       0       0       0       0       0       0       0       0       0
       0       0       0       0       0       0       0       0       0       0
       0       0       0       0       0       0       0       0       0       0
       0       0       0       0       0       0       0       0       0       0
       0       0       0       0       0       0       0       0       0       0
       0       0       0       0       0       0       0       0       0       0
       0       0       0       0       0       0       0       0       0       0
       0       0       0       0       0       0       0       0       0       0
       0       0       0       0       0       0       0       0       0       0
       0       0       0       0       0       0       0       0       0       0
       0       0       0       0       0       0       0       0       0       0
       0       0       0       0       0       0       0       0       0       0
       0       0       0       0       0       0       0       0       0       0
       0       0       0       0       0       0       0       0       0       0
       0       0       0       0       0       0       0       0       0       0
       0       0       0       0       0       0       0       0       0       0
       0       0       0       0       0       0       0       0       0       0
       0       0       0       0       0       0       0       0       0       0
       0       0       0       0       0       0       0       0       0       0
       0       0       0       0       0       0       0       0       0       0
       0       0       0       0       0       0       0       0       0       0
       0       0       0       0       0       0       0       0       0       0
       0       0       0       0       0       0       0       0       0       0
       0       0       0       0       0       0       0       0       0       0
       0       0       0       0       0       0       0       0       0       0
       0       0       0       0       0       0       0       0       0       0
       0       0       0       0       0       0       0       0       0       0
       0       0       0       0       0       0       0       0       0       0
       0       0       0       0       0       0       0       0       0       0
       0       0       0       0       0       0       0       0       0       0
       0       0       0       0       0       0       0       0       0       0
       0       0       0       0       0       0       0       0       0       0
       0       0       0       0       0       0       0       0       0       0
       0       0       0       0       0       0       0       0       0       0
       0       0       0       0       0       0       0       0       0       0
       0       0       0       0       0       0       0       0       0       0
       0       0       0       0       0       0       0       0       0       0
       0       0       0       0       0       0       0       0       0       0
       0       0       0       0       0       0       0       0       0       0
       0       0       0       0       0       0       0       0       0       0
       0       0       0       0       0       0       0       0       0       0
       0       0       0       0       0       0       0       0       0       0
       0       0       0       0       0       0       0       0       0       0
       0       0       0       0       0       0       0       0       0       0
       0       0       0       0       0       0       0       0       0       0
       0       0       0       0       0       0       0       0       0       0
       0       0       0       0       0       0       0       0       0       0
       0       0       0       0       0       0       0       0       0       0
       0       0       0       0       0       0       0       0       0       0
       0       0       0       0       0       0       0       0       0       0
       0       0       0       0       0       0       0       0       0       0
       0       0       0       0       0       0       0       0       0       0
       0       0       0       0       0       0       0       0       0       0
       0       0       0       0       0       0       0       0       0       0
       0       0       0       0       0       0       0       0       0       0
       0       0       0       0       0       0       0       0       0       0
       0       0       0       0       0       0       0       0       0       0
       0       0       0       0       0       0       0       0       0       0
       0       0       0       0       0       0       0       0       0       0
       0       0       0       0       0       0       0       0       0       0
       0       0       0       0       0       0       0       0       0       0
       0       0       0       0       0       0       0       0       0       0
       0       0       0       0       0       0       0       0       0       0
       0       0       0       0       0       0       0       0       0       0
       0       0       0       0       0       0       0       0       0       0
       0       0       0       0       0       0       0       0       0       0
       0       0       0       0       0       0       0       0       0       0
       0       0       0       0       0       0       0       0       0       0
       0       0       0       0       0       0       0       0       0       0
       0       0       0       0       0       0       0       0       0       0
       0       0       0       0       0       0       0       0       0       0
       0       0       0       0       0       0       0       0       0       0
       0       0       0       0       0       0       0       0       0       0
       0       0       0       0       0       0       0       0       0       0
       0       0       0       0       0       0       0       0       0       0
       0       0       0       0       0       0       0       0       0       0
       0       0       0       0       0       0       0       0       0       0
       0       0       0       0       0       0       0       0       0       0
       0       0       0       0       0       0       0       0       0       0
       0       0       0       0       0       0       0       0       0       0
       0       0       0       0       0       0       0       0       0       0
       0       0       0       0       0       0       0       0       0       0
       0       0       0       0       0       0       0       0       0       0
       0       0       0       0       0       0       0       0       0       0
       0       0       0       0       0       0       0       0       0       0
       0       0       0       0       0       0       0       0       0       0
       0       0       0       0       0       0       0       0       0       0
       0       0       0       0       0       0       0       0       0       0
       0       0       0       0       0       0       0       0       0       0
       0       0       0       0       0       0       0       0       0       0
       0       0       0       0       0       0       0       0       0       0
       0       0       0       0       0       0       0       0       0       0
       0       0       0       0       0       0       0       0       0       0
       0       0       0       0       0       0       0       0       0       0
       0       0       0       0       0       0       0       0       0       0
       0       0       0       0       0       0       0       0       0       0
       0       0       0       0       0       0       0       0       0       0
       0       0       0       0       0       0       0       0       0       0
       0       0       0       0       0       0       0       0       0       0
       0       0       0       0       0       0       0       0       0       0
       0       0       0       0       0       0       0       0       0       0
       0       0       0       0       0       0       0       0       0       0
       0       0       0       0       0       0       0       0       0       0
       0       0       0       0       0       0       0       0       0       0
       0       0       0       0       0       0       0       0       0       0
       0       0       0       0       0       0       0       0       0       0
       0       0       0       0       0       0       0       0       0       0
       0       0       0       0       0       0       0       0       0       0
       0       0       0       0       0       0       0       0       0       0
       0       0       0       0       0       0       0       0       0       0
       0       0       0       0       0       0       0       0       0       0
       0       0       0       0       0       0       0       0       0       0
       0       0       0       0       0       0       0       0       0       0
       0       0       0       0       0       0       0       0       0       0
       0       0       0       0       0       0       0       0       0       0
       0       0       0       0       0       0       0       0       0       0
       0       0       0       0       0       0       0       0       0       0
       0       0       0       0       0       0       0       0       0       0
       0       0       0       0       0       0       0       0       0       0
       0       0       0       0       0       0       0       0       0       0
       0       0       0       0       0       0       0       0       0       0
       0       0       0       0       0       0       0       0       0       0
       0       0       0       0       0       0       0       0       0       0
       0       0       0       0       0       0       0       0       0       0
       0       0       0       0       0       0       0       0       0       0
       0       0       0       0       0       0       0       0       0       0
       0       0       0       0       0       0       0       0       0       0
       0       0       0       0       0       0       0       0       0       0
       0       0       0       0       0       0       0       0       0       0
       0       0       0       0       0       0       0       0       0       0
       0       0       0       0       0       0       0       0       0       0
       0       0       0       0       0       0       0       0       0       0
       0       0       0       0       0       0       0       0       0       0
       0       0       0       0       0       0       0       0       0       0
       0       0       0       0       0       0       0       0       0       0
       0       0       0       0       0       0       0       0       0       0
       0       0       0       0       0       0       0       0       0       0
       0       0       0       0       0       0       0       0       0       0
       0       0       0       0       0       0       0       0       0       0
       0       0       0       0       0       0       0       0       0       0
       0       0       0       0       0       0       0       0       0       0
       0       0       0       0       0       0       0       0       0       0
       0       0       0       0       0       0       0       0       0       0
       0       0       0       0       0       0       0       0       0       0
       0       0       0       0       0       0       0       0       0       0
       0       0       0       0       0       0       0       0       0       0
       0       0       0       0       0       0       0       0       0       0
       0       0       0       0       0       0       0       0       0       0
       0       0       0       0       0       0       0       0       0       0
       0       0       0       0       0       0       0       0       0       0
       0       0       0       0       0       0       0       0       0       0
       0       0       0       0       0       0       0       0       0       0
       0       0       0       0       0       0       0       0       0       0
       0       0       0       0       0       0       0       0       0       0
       0       0       0       0       0       0       0       0       0       0
       0       0       0       0       0       0       0       0       0       0
       0       0       0       0       0       0       0       0       0       0
       0       0       0       0       0       0       0       0       0       0
       0       0       0       0       0       0       0       0       0       0
       0       0       0       0       0       0       0       0       0       0
       0       0       0       0       0       0       0       0       0       0
       0       0       0       0       0       0       0       0       0       0
       0       0       0       0       0       0       0       0       0       0
       0       0       0       0       0       0       0       0       0       0
       0       0       0       0       0       0       0       0       0       0
       0       0       0       0       0       0       0       0       0       0
       0       0       0       0       0       0       0       0       0       0
       0       0       0       0       0       0       0       0       0       0
       0       0       0       0       0       0       0       0       0       0
       0       0       0       0       0       0       0       0       0       0
       0       0       0       0       0       0       0       0       0       0
       0       0       0       0       0       0       0       0       0       0
       0       0       0       0       0       0       0       0       0       0
       0       0       0       0       0       0       0       0       0       0
       0       0       0       0       0       0       0       0       0       0
       0       0       0       0       0       0       0       0       0       0
       0       0       0       0       0       0       0       0       0       0
       0       0       0       0       0       0       0       0       0       0
       0       0       0       0       0       0       0       0       0       0
       0       0       0       0       0       0       0       0       0       0
       0       0       0       0       0       0       0       0       0       0
       0       0       0       0       0       0       0       0       0       0
       0       0       0       0       0       0       0       0       0       0
       0       0       0       0       0       0       0       0       0       0
       0       0       0       0       0       0       0       0       0       0
       0       0       0       0       0       0       0       0       0       0
       0       0       0       0       0       0       0       0       0       0
       0       0       0       0       0       0       0       0       0       0
       0       0       0       0       0       0       0       0       0       0
       0       0       0       0       0       0       0       0       0       0
       0       0       0       0       0       0       0       0       0       0
       0       0       0       0       0       0       0       0       0       0
       0       0       0       0       0       0       0       0       0       0
       0       0       0       0       0       0       0       0       0       0
       0       0       0       0       0       0       0       0       0       0
       0       0       0       0       0       0       0       0       0       0
       0       0       0       0       0       0       0       0       0       0
       0       0       0       0       0       0       0       0       0       0
       0       0       0       0       0       0       0       0       0       0
       0       0       0       0       0       0       0       0       0       0
       0       0       0       0       0       0       0       0       0       0
       0       0       0       0       0       0       0       0       0       0
       0       0       0       0       0       0       0       0       0       0
       0       0       0       0       0       0       0       0       0       0
       0       0       0       0       0       0       0       0       0       0
       0       0       0       0       0       0       0       0       0       0
       0       0       0       0       0       0       0       0       0       0
       0       0       0       0       0       0       0       0       0       0
       0       0       0       0       0       0       0       0       0       0
       0       0       0       0       0       0       0       0       0       0
       0       0       0       0       0       0       0       0       0       0
       0       0       0       0       0       0       0       0       0       0
       0       0       0       0       0       0       0       0       0       0
       0       0       0       0       0       0       0       0       0       0
       0       0       0       0       0       0       0       0       0       0
       0       0       0       0       0       0       0       0       0       0
       0       0       0       0       0       0       0       0       0       0
       0       0       0       0       0       0       0       0       0       0
       0       0       0       0       0       0       0       0       0       0
       0       0       0       0       0       0       0       0       0       0
       0       0       0       0       0       0       0       0       0       0
       0       0       0       0       0       0       0       0       0       0
       0       0       0       0       0       0       0       0       0       0
       0       0       0       0       0       0       0       0       0       0
       0       0       0       0       0       0       0       0       0       0
       0       0       0       0       0       0       0       0       0       0
       0       0       0       0       0       0       0       0       0       0
       0       0       0       0       0       0       0       0       0       0
       0       0       0       0       0       0       0       0       0       0
       0       0       0       0       0       0       0       0       0       0
       0       0       0       0       0       0       0       0       0       0
       0       0       0       0       0       0       0       0       0       0
       0       0       0       0       0       0       0       0       0       0
       0       0       0       0       0       0       0       0       0       0
       0       0       0       0       0       0       0       0       0       0
       0       0       0       0       0       0       0       0       0       0
       0       0       0       0       0       0       0       0       0       0
       0       0       0       0       0       0       0       0       0       0
       0       0       0       0       0       0       0       0       0       0
       0       0       0       0       0       0       0       0       0       0
       0       0       0       0       0       0       0       0       0       0
       0       0       0       0       0       0       0       0       0       0
       0       0       0       0       0       0       0       0       0       0
       0       0       0       0       0       0       0       0       0       0
       0       0       0       0       0       0       0       0       0       0
       0       0       0       0       0       0       0       0       0       0
       0       0       0       0       0       0       0       0       0       0
       0       0       0       0       0       0       0       0       0       0
       0       0       0       0       0       0       0       0       0       0
       0       0       0       0       0       0       0       0       0       0
       0       0       0       0       0       0       0       0       0       0
       0       0       0       0       0       0       0       0       0       0
       0       0       0       0       0       0       0       0       0       0
       0       0       0       0       0       0       0       0       0       0
       0       0       0       0       0       0       0       0       0       0
       0       0       0       0       0       0       0       0       0       0
       0       0       0       0       0       0       0       0       0       0
       0       0       0       0       0       0       0       0       0       0
       0       0       0       0       0       0       0       0       0       0
       0       0       0       0       0       0       0       0       0       0
       0       0       0       0       0       0       0       0       0       0
       0       0       0       0       0       0       0       0       0       0
       0       0       0       0       0       0       0       0       0       0
       0       0       0       0       0       0       0       0       0       0
       0       0       0       0       0       0       0       0       0       0
       0       0       0       0       0       0       0       0       0       0
       0       0       0       0       0       0       0       0       0       0
       0       0       0       0       0       0       0       0       0       0
       0       0       0       0       0       0       0       0       0       0
       0       0       0       0       0       0       0       0       0       0
       0       0       0       0       0       0       0       0       0       0
       0       0       0       0       0       0       0       0       0       0
       0       0       0       0       0       0       0       0       0       0
       0       0       0       0       0       0       0       0       0       0
       0       0       0       0       0       0       0       0       0       0
       0       0       0       0       0       0       0       0       0       0
       0       0       0       0       0       0       0       0       0       0
       0       0       0       0       0       0       0       0       0       0
       0       0       0       0       0       0       0       0       0       0
       0       0       0       0       0       0       0       0       0       0
       0       0       0       0       0       0       0       0       0       0
       0       0       0       0       0       0       0       0       0       0
       0       0       0       0       0       0       0       0       0       0
       0       0       0       0       0       0       0       0       0       0
       0       0       0       0       0       0       0       0       0       0
       0       0       0       0       0       0       0       0       0       0
       0       0       0       0       0       0       0       0       0       0
       0       0       0       0       0       0       0       0       0       0
       0       0       0       0       0       0       0       0       0       0
       0       0       0       0       0       0       0       0       0       0
       0       0       0       0       0       0       0       0       0       0
       0       0       0       0       0       0       0       0       0       0
       0       0       0       0       0       0       0       0       0       0
       0       0       0       0       0       0       0       0       0       0
       0       0       0       0       0       0       0       0       0       0
       0       0       0       0       0       0       0       0       0       0
       0       0       0       0       0       0       0       0       0       0
       0       0       0       0       0       0       0       0       0       0
       0       0       0       0       0       0       0       0       0       0
       0       0       0       0       0       0       0       0       0       0
       0       0       0       0       0       0       0       0       0       0
       0       0       0       0       0       0       0       0       0       0
       0       0       0       0       0       0       0       0       0       0
       0       0       0       0       0       0       0       0       0       0
       0       0       0       0       0       0       0       0       0       0
       0       0       0       0       0       0       0       0       0       0
       0       0       0       0       0       0       0       0       0       0
       0       0       0       0       0       0       0       0       0       0
       0       0       0       0       0       0       0       0       0       0
       0       0       0       0       0       0       0       0       0       0
       0       0       0       0       0       0       0       0       0       0
       0       0       0       0       0       0       0       0       0       0
       0       0       0       0       0       0       0       0       0       0
       0       0       0       0       0       0       0       0       0       0
       0       0       0       0       0       0       0       0       0       0
       0       0       0       0       0       0       0       0       0       0
       0       0       0       0       0       0       0       0       0       0
       0       0       0       0       0       0       0       0       0       0
       0       0       0       0       0       0       0       0       0       0
       0       0       0       0       0       0       0       0       0       0
       0       0       0       0       0       0       0       0       0       0
       0       0       0       0       0       0       0       0       0       0
       0       0       0       0       0       0       0       0       0       0
       0       0       0       0       0       0       0       0       0       0
       0       0       0       0       0       0       0       0       0       0
       0       0       0       0       0       0       0       0       0       0
       0       0       0       0       0       0       0       0       0       0
       0       0       0       0       0       0       0       0       0       0
       0       0       0       0       0       0       0       0       0       0
       0       0       0       0       0       0       0       0       0       0
       0       0       0       0       0       0       0       0       0       0
       0       0       0       0       0       0       0       0       0       0
       0       0       0       0       0       0       0       0       0       0
       0       0       0       0       0       0       0       0       0       0
       0       0       0       0       0       0       0       0       0       0
       0       0       0       0       0       0       0       0       0       0
       0       0       0       0       0       0       0       0       0       0
       0       0       0       0       0       0       0       0       0       0
       0       0       0       0       0       0       0       0       0       0
       0       0       0       0       0       0       0       0       0       0
       0       0       0       0       0       0       0       0       0       0
       0       0       0       0       0       0       0       0       0       0
       0       0       0       0       0       0       0       0       0       0
       0       0       0       0       0       0       0       0       0       0
       0       0       0       0       0       0       0       0       0       0
       0       0       0       0       0       0       0       0       0       0
       0       0       0       0       0       0       0       0       0       0
       0       0       0       0       0       0       0       0       0       0
       0       0       0       0       0       0       0       0       0       0
       0       0       0       0       0       0       0       0       0       0
       0       0       0       0       0       0       0       0       0       0
       0       0       0       0       0       0       0       0       0       0
       0       0       0       0       0       0       0       0       0       0
       0       0       0       0       0       0       0       0       0       0
       0       0       0       0       0       0       0       0       0       0
       0       0       0       0       0       0       0       0       0       0
       0       0       0       0       0       0       0       0       0       0
       0       0       0       0       0       0       0       0       0       0
       0       0       0       0       0       0       0       0       0       0
       0       0       0       0       0       0       0       0       0       0
       0       0       0       0       0       0       0       0       0       0
       0       0       0       0       0       0       0       0       0       0
       0       0       0       0       0       0       0       0       0       0
       0       0       0       0       0       0       0       0       0       0
       0       0       0       0       0       0       0       0       0       0
       0       0       0       0       0       0       0       0       0       0
       0       0       0       0       0       0       0       0       0       0
       0       0       0       0       0       0       0       0       0       0
       0       0       0       0       0       0       0       0       0       0
       0       0       0       0       0       0       0       0       0       0
       0       0       0       0       0       0       0       0       0       0
       0       0       0       0       0       0       0       0       0       0
       0       0       0       0       0       0       0       0       0       0
       0       0       0       0       0       0       0       0       0       0
       0       0       0       0       0       0       0       0       0       0
       0       0       0       0       0       0       0       0       0       0
       0       0       0       0       0       0       0       0       0       0
       0       0       0       0       0       0       0       0       0       0
       0       0       0       0       0       0       0       0       0       0
       0       0       0       0       0       0       0       0       0       0
       0       0       0       0       0       0       0       0       0       0
       0       0       0       0       0       0       0       0       0       0
       0       0       0       0       0       0       0       0       0       0
       0       0       0       0       0       0       0       0       0       0
       0       0       0       0       0       0       0       0       0       0
       0       0       0       0       0       0       0       0       0       0
       0       0       0       0       0       0       0       0       0       0
       0       0       0       0       0       0       0       0       0       0
       0       0       0       0       0       0       0       0       0       0
       0       0       0       0       0       0       0       0       0       0
       0       0       0       0       0       0       0       0       0       0
       0       0       0       0       0       0       0       0       0       0
       0       0       0       0       0       0       0       0       0       0
       0       0       0       0       0       0       0       0       0       0
       0       0       0       0       0       0       0       0       0       0
       0       0       0       0       0       0       0       0       0       0
       0       0       0       0       0       0       0       0       0       0
       0       0       0       0       0       0       0       0       0       0
       0       0       0       0       0       0       0       0       0       0
       0       0       0       0       0       0       0       0       0       0
       0       0       0       0       0       0       0       0       0       0
       0       0       0       0       0       0       0       0       0       0
       0       0       0       0       0       0       0       0       0       0
       0       0       0       0       0       0       0       0       0       0
       0       0       0       0       0       0       0       0       0       0
       0       0       0       0       0       0       0       0       0       0
       0       0       0       0       0       0       0       0       0       0
       0       0       0       0       0       0       0       0       0       0
       0       0       0       0       0       0       0       0       0       0
       0       0       0       0       0       0       0       0       0       0
       0       0       0       0       0       0       0       0       0       0
       0       0       0       0       0       0       0       0       0       0
       0       0       0       0       0       0       0       0       0       0
       0       0       0       0       0       0       0       0       0       0
       0       0       0       0       0       0       0       0       0       0
       0       0       0       0       0       0       0       0       0       0
       0       0       0       0       0       0       0       0       0       0
       0       0       0       0       0       0       0       0       0       0
       0       0       0       0       0       0       0       0       0       0
       0       0       0       0       0       0       0       0       0       0
       0       0       0       0       0       0       0       0       0       0
       0       0       0       0       0       0       0       0       0       0
       0       0       0       0       0       0       0       0       0       0
       0       0       0       0       0       0       0       0       0       0
       0       0       0       0       0       0       0       0       0       0
       0       0       0       0       0       0       0       0       0       0
       0       0       0       0       0       0       0       0       0       0
       0       0       0       0       0       0       0       0       0       0
       0       0       0       0       0       0       0       0       0       0
       0       0       0       0       0       0       0       0       0       0
       0       0       0       0       0       0       0       0       0       0
       0       0       0       0       0       0       0       0       0       0
       0       0       0       0       0       0       0       0       0       0
       0       0       0       0       0       0       0       0       0       0
       0       0       0       0       0       0       0       0       0       0
       0       0       0       0       0       0       0       0       0       0
       0       0       0       0       0       0       0       0       0       0
       0       0       0       0       0       0       0       0       0       0
       0       0       0       0       0       0       0       0       0       0
       0       0       0       0       0       0       0       0       0       0
       0       0       0       0       0       0       0       0       0       0
       0       0       0       0       0       0       0       0       0       0
       0       0       0       0       0       0       0       0       0       0
       0       0       0       0       0       0       0       0       0       0
       0       0       0       0       0       0       0       0       0       0
       0       0       0       0       0       0       0       0       0       0
       0       0       0       0       0       0       0       0       0       0
       0       0       0       0       0       0       0       0       0       0
       0       0       0       0       0       0       0       0       0       0
       0       0       0       0       0       0       0       0       0       0
       0       0       0       0       0       0       0       0       0       0
       0       0       0       0       0       0       0       0       0       0
       0       0       0       0       0       0       0       0       0       0
       0       0       0       0       0       0       0       0       0       0
       0       0       0       0       0       0       0       0       0       0
       0       0       0       0       0       0       0       0       0       0
       0       0       0       0       0       0       0       0       0       0
       0       0       0       0       0       0       0       0       0       0
       0       0       0       0       0       0       0       0       0       0
       0       0       0       0       0       0       0       0       0       0
       0       0       0       0       0       0       0       0       0       0
       0       0       0       0       0       0       0       0       0       0
       0       0       0       0       0       0       0       0       0       0
       0       0       0       0       0       0       0       0       0       0
       0       0       0       0       0       0       0       0       0       0
       0       0       0       0       0       0       0       0       0       0
       0       0       0       0       0       0       0       0       0       0
       0       0       0       0       0       0       0       0       0       0
       0       0       0       0       0       0       0       0       0       0
       0       0       0       0       0       0       0       0       0       0
       0       0       0       0       0       0       0       0       0       0
       0       0       0       0       0       0       0       0       0       0
       0       0       0       0       0       0       0       0       0       0
       0       0       0       0       0       0       0       0       0       0
       0       0       0       0       0       0       0       0       0       0
       0       0       0       0       0       0       0       0       0       0
       0       0       0       0       0       0       0       0       0       0
       0       0       0       0       0       0       0       0       0       0
       0       0       0       0       0       0       0       0       0       0
       0       0       0       0       0       0       0       0       0       0
       0       0       0       0       0       0       0       0       0       0
       0       0       0       0       0       0       0       0       0       0
       0       0       0       0       0       0       0       0       0       0
       0       0       0       0       0       0       0       0       0       0
       0       0       0       0       0       0       0       0       0       0
       0       0       0       0       0       0       0       0       0       0
       0       0       0       0       0       0       0       0       0       0
       0       0       0       0       0       0       0       0       0       0
       0       0       0       0       0       0       0       0       0       0
       0       0       0       0       0       0       0       0       0       0
       0       0       0       0       0       0       0       0       0       0
       0       0       0       0       0       0       0       0       0       0
       0       0       0       0       0       0       0       0       0       0
       0       0       0       0       0       0       0       0       0       0
       0       0       0       0       0       0       0       0       0       0
       0       0       0       0       0       0       0       0       0       0
       0       0       0       0       0       0       0       0       0       0
       0       0       0       0       0       0       0       0       0       0
       0       0       0       0       0       0       0       0       0       0
       0       0       0       0       0       0       0       0       0       0
       0       0       0       0       0       0       0       0       0       0
       0       0       0       0       0       0       0       0       0       0
       0       0       0       0       0       0       0       0       0       0
       0       0       0       0       0       0       0       0       0       0
       0       0       0       0       0       0       0       0       0       0
       0       0       0       0       0       0       0       0       0       0
       0       0       0       0       0       0       0       0       0       0
       0       0       0       0       0       0       0       0       0       0
       0       0       0       0       0       0       0       0       0       0
       0       0       0       0       0       0       0       0       0       0
       0       0       0       0       0       0       0       0       0       0
       0       0       0       0       0       0       0       0       0       0
       0       0       0       0       0       0       0       0       0       0
       0       0       0       0       0       0       0       0       0       0
       0       0       0       0       0       0       0       0       0       0
       0       0       0       0       0       0       0       0       0       0
       0       0       0       0       0       0       0       0       0       0
       0       0       0       0       0       0       0       0       0       0
       0       0       0       0       0       0       0       0       0       0
       0       0       0       0       0       0       0       0       0       0
       0       0       0       0       0       0       0       0       0       0
       0       0       0       0       0       0       0       0       0       0
       0       0       0       0       0       0       0       0       0       0
       0       0       0       0       0       0       0       0       0       0
       0       0       0       0       0       0       0       0       0       0
       0       0       0       0       0       0       0       0       0       0
       0       0       0       0       0       0       0       0       0       0
       0       0       0       0       0       0       0       0       0       0
       0       0       0       0       0       0       0       0       0       0
       0       0       0       0       0       0       0       0       0       0
       0       0       0       0       0       0       0       0       0       0
       0       0       0       0       0       0       0       0       0       0
       0       0       0       0       0       0       0       0       0       0
       0       0       0       0       0       0       0       0       0       0
       0       0       0       0       0       0       0       0       0       0
       0       0       0       0       0       0       0       0       0       0
       0       0       0       0       0       0       0       0       0       0
       0       0       0       0       0       0       0       0       0       0
       0       0       0       0       0       0       0       0       0       0
       0       0       0       0       0       0       0       0       0       0
       0       0       0       0       0       0       0       0       0       0
       0       0       0       0       0       0       0       0       0       0
       0       0       0       0       0       0       0       0       0       0
       0       0       0       0       0       0       0       0       0       0
       0       0       0       0       0       0       0       0       0       0
       0       0       0       0       0       0       0       0       0       0
       0       0       0       0       0       0       0       0       0       0
       0       0       0       0       0       0       0       0       0       0
       0       0       0       0       0       0       0       0       0       0
       0       0       0       0       0       0       0       0       0       0
       0       0       0       0       0       0       0       0       0       0
       0       0       0       0       0       0       0       0       0       0
       0       0       0       0       0       0       0       0       0       0
       0       0       0       0       0       0       0       0       0       0
       0       0       0       0       0       0       0       0       0       0
       0       0       0       0       0       0       0       0       0       0
       0       0       0       0       0       0       0       0       0       0
       0       0       0       0       0       0       0       0       0       0
       0       0       0       0       0       0       0       0       0       0
       0       0       0       0       0       0       0       0       0       0
       0       0       0       0       0       0       0       0       0       0
       0       0       0       0       0       0       0       0       0       0
       0       0       0       0       0       0       0       0       0       0
       0       0       0       0       0       0       0       0       0       0
       0       0       0       0       0       0       0       0       0       0
       0       0       0       0       0       0       0       0       0       0
       0       0       0       0       0       0       0       0       0       0
       0       0       0       0       0       0       0       0       0       0
       0       0       0       0       0       0       0       0       0       0
       0       0       0       0       0       0       0       0       0       0
       0       0       0       0       0       0       0       0       0       0
       0       0       0       0       0       0       0       0       0       0
       0       0       0       0       0       0       0       0       0       0
       0       0       0       0       0       0       0       0       0       0
       0       0       0       0       0       0       0       0       0       0
       0       0       0       0       0       0       0       0       0       0
       0       0       0       0       0       0       0       0       0       0
       0       0       0       0       0       0       0       0       0       0
       0       0       0       0       0       0       0       0       0       0
       0       0       0       0       0       0       0       0       0       0
       0       0       0       0       0       0       0       0       0       0
       0       0       0       0       0       0       0       0       0       0
       0       0       0       0       0       0       0       0       0       0
       0       0       0       0       0       0       0       0       0       0
       0       0       0       0       0       0       0       0       0       0
       0       0       0       0       0       0       0       0       0       0
       0       0       0       0       0       0       0       0       0       0
       0       0       0       0       0       0       0       0       0       0
       0       0       0       0       0       0       0       0       0       0
       0       0       0       0       0       0       0       0       0       0
       0       0       0       0       0       0       0       0       0       0
       0       0       0       0       0       0       0       0       0       0
       0       0       0       0       0       0       0       0       0       0
       0       0       0       0       0       0       0       0       0       0
       0       0       0       0       0       0       0       0       0       0
       0       0       0       0       0       0       0       0       0       0
       0       0       0       0       0       0       0       0       0       0
       0       0       0       0       0       0       0       0       0       0
       0       0       0       0       0       0       0       0       0       0
       0       0       0       0       0       0       0       0       0       0
       0       0       0       0       0       0       0       0       0       0
       0       0       0       0       0       0       0       0       0       0
       0       0       0       0       0       0       0       0       0       0
       0       0       0       0       0       0       0       0       0       0
       0       0       0       0       0       0       0       0       0       0
       0       0       0       0       0       0       0       0       0       0
       0       0       0       0       0       0       0       0       0       0
       0       0       0       0       0       0       0       0       0       0
       0       0       0       0       0       0       0       0       0       0
       0       0       0       0       0       0       0       0       0       0
       0       0       0       0       0       0       0       0       0       0
       0       0       0       0       0       0       0       0       0       0
       0       0       0       0       0       0       0       0       0       0
       0       0       0       0       0       0       0       0       0       0
       0       0       0       0       0       0       0       0       0       0
       0       0       0       0       0       0       0       0       0       0
       0       0       0       0       0       0       0       0       0       0
       0       0       0       0       0       0       0       0       0       0
       0       0       0       0       0       0       0       0       0       0
       0       0       0       0       0       0       0       0       0       0
       0       0       0       0       0       0       0       0       0       0
       0       0       0       0       0       0       0       0       0       0
       0       0       0       0       0       0       0       0       0       0
       0       0       0       0       0       0       0       0       0       0
       0       0       0       0       0       0       0       0       0       0
       0       0       0       0       0       0       0       0       0       0
       0       0       0       0       0       0       0       0       0       0
       0       0       0       0       0       0       0       0       0       0
       0       0       0       0       0       0       0       0       0       0
       0       0       0       0       0       0       0       0       0       0
       0       0       0       0       0       0       0       0       0       0
       0       0       0       0       0       0       0       0       0       0
       0       0       0       0       0       0       0       0       0       0
       0       0       0       0       0       0       0       0       0       0
       0       0       0       0       0       0       0       0       0       0
       0       0       0       0       0       0       0       0       0       0
       0       0       0       0       0       0       0       0       0       0
       0       0       0       0       0       0       0       0       0       0
       0       0       0       0       0       0       0       0       0       0
       0       0       0       0       0       0       0       0       0       0
       0       0       0       0       0       0       0       0       0       0
       0       0       0       0       0       0       0       0       0       0
       0       0       0       0       0       0       0       0       0       0
       0       0       0       0       0       0       0       0       0       0
       0       0       0       0       0       0       0       0       0       0
       0       0       0       0       0       0       0       0       0       0
       0       0       0       0       0       0       0       0       0       0
       0       0       0       0       0       0       0       0       0       0
       0       0       0       0       0       0       0       0       0       0
       0       0       0       0       0       0       0       0       0       0
       0       0       0       0       0       0       0       0       0       0
       0       0       0       0       0       0       0       0       0       0
       0       0       0       0       0       0       0       0       0       0
       0       0       0       0       0       0       0       0       0       0
       0       0       0       0       0       0       0       0       0       0
       0       0       0       0       0       0       0       0       0       0
       0       0       0       0       0       0       0       0       0       0
       0       0       0       0       0       0       0       0       0       0
       0       0       0       0       0       0       0       0       0       0
       0       0       0       0       0       0       0       0       0       0
       0       0       0       0       0       0       0       0       0       0
       0       0       0       0       0       0       0       0       0       0
       0       0       0       0       0       0       0       0       0       0
       0       0       0       0       0       0       0       0       0       0
       0       0       0       0       0       0       0       0       0       0
       0       0       0       0       0       0       0       0       0       0
       0       0       0       0       0       0       0       0       0       0
       0       0       0       0       0       0       0       0       0       0
       0       0       0       0       0       0       0       0       0       0
       0       0       0       0       0       0       0       0       0       0
       0       0       0       0       0       0       0       0       0       0
       0       0       0       0       0       0       0       0       0       0
       0       0       0       0       0       0       0       0       0       0
       0       0       0       0       0       0       0       0       0       0
       0       0       0       0       0       0       0       0       0       0
       0       0       0       0       0       0       0       0       0       0
       0       0       0       0       0       0       0       0       0       0
       0       0       0       0       0       0       0       0       0       0
       0       0       0       0       0       0       0       0       0       0
       0       0       0       0       0       0       0       0       0       0
       0       0       0       0       0       0       0       0       0       0
       0       0       0       0       0       0       0       0       0       0
       0       0       0       0       0       0       0       0       0       0
       0       0       0       0       0       0       0       0       0       0
       0       0       0       0       0       0       0       0       0       0
       0       0       0       0       0       0       0       0       0       0
       0       0       0       0       0       0       0       0       0       0
       0       0       0       0       0       0       0       0       0       0
       0       0       0       0       0       0       0       0       0       0
       0       0       0       0       0       0       0       0       0       0
       0       0       0       0       0       0       0       0       0       0
       0       0       0       0       0       0       0       0       0       0
       0       0       0       0       0       0       0       0       0       0
       0       0       0       0       0       0       0       0       0       0
       0       0       0       0       0       0       0       0       0       0
       0       0       0       0       0       0       0       0       0       0
       0       0       0       0       0       0       0       0       0       0
       0       0       0       0       0       0       0       0       0       0
       0       0       0       0       0       0       0       0       0       0
       0       0       0       0       0       0       0       0       0       0
       0       0       0       0       0       0       0       0       0       0
       0       0       0       0       0       0       0       0       0       0
       0       0       0       0       0       0       0       0       0       0
       0       0       0       0       0       0       0       0       0       0
       0       0       0       0       0       0       0       0       0       0
       0       0       0       0       0       0       0       0       0       0
       0       0       0       0       0       0       0       0       0       0
       0       0       0       0       0       0       0       0       0       0
       0       0       0       0       0       0       0       0       0       0
       0       0       0       0       0       0       0       0       0       0
       0       0       0       0       0       0       0       0       0       0
       0       0       0       0       0       0       0       0       0       0
       0       0       0       0       0       0       0       0       0       0
       0       0       0       0       0       0       0       0       0       0
       0       0       0       0       0       0       0       0       0       0
       0       0       0       0       0       0       0       0       0       0
       0       0       0       0       0       0       0       0       0       0
       0       0       0       0       0       0       0       0       0       0
       0       0       0       0       0       0       0       0       0       0
       0       0       0       0       0       0       0       0       0       0
       0       0       0       0       0       0       0       0       0       0
       0       0       0       0       0       0       0       0       0       0
       0       0       0       0       0       0       0       0       0       0
       0       0       0       0       0       0       0       0       0       0
       0       0       0       0       0       0       0       0       0       0
       0       0       0       0       0       0       0       0       0       0
       0       0       0       0       0       0       0       0       0       0
       0       0       0       0       0       0       0       0       0       0
       0       0       0       0       0       0       0       0       0       0
       0       0       0       0       0       0       0       0       0       0
       0       0       0       0       0       0       0       0       0       0
       0       0       0       0       0       0       0       0       0       0
       0       0       0       0       0       0       0       0       0       0
       0       0       0       0       0       0       0       0       0       0
       0       0       0       0       0       0       0       0       0       0
       0       0       0       0       0       0       0       0       0       0
       0       0       0       0       0       0       0       0       0       0
       0       0       0       0       0       0       0       0       0       0
       0       0       0       0       0       0       0       0       0       0
       0       0       0       0       0       0       0       0       0       0
       0       0       0       0       0       0       0       0       0       0
       0       0       0       0       0       0       0       0       0       0
       0       0       0       0       0       0       0       0       0       0
       0       0       0       0       0       0       0       0       0       0
       0       0       0       0       0       0       0       0       0       0
       0       0       0       0       0       0       0       0       0       0
       0       0       0       0       0       0       0       0       0       0
       0       0       0       0       0       0       0       0       0       0
       0       0       0       0       0       0       0       0       0       0
       0       0       0       0       0       0       0       0       0       0
       0       0       0       0       0       0       0       0       0       0
       0       0       0       0       0       0       0       0       0       0
       0       0       0       0       0       0       0       0       0       0
       0       0       0       0       0       0       0       0       0       0
       0       0       0       0       0       0       0       0       0       0
       0       0       0       0       0       0       0       0       0       0
       0       0       0       0       0       0       0       0       0       0
       0       0       0       0       0       0       0       0       0       0
       0       0       0       0       0       0       0       0       0       0
       0       0       0       0       0       0       0       0       0       0
       0       0       0       0       0       0       0       0       0       0
       0       0       0       0       0       0       0       0       0       0
       0       0       0       0       0       0       0       0       0       0
       0       0       0       0       0       0       0       0       0       0
       0       0       0       0       0       0       0       0       0       0
       0       0       0       0       0       0       0       0       0       0
       0       0       0       0       0       0       0       0       0       0
       0       0       0       0       0       0       0       0       0       0
       0       0       0       0       0       0       0       0       0       0
       0       0       0       0       0       0       0       0       0       0
       0       0       0       0       0       0       0       0       0       0
       0       0       0       0       0       0       0       0       0       0
       0       0       0       0       0       0       0       0       0       0
       0       0       0       0       0       0       0       0       0       0
       0       0       0       0       0       0       0       0       0       0
       0       0       0       0       0       0       0       0       0       0
       0       0       0       0       0       0       0       0       0       0
       0       0       0       0       0       0       0       0       0       0
       0       0       0       0       0       0       0       0       0       0
       0       0       0       0       0       0       0       0       0       0
       0       0       0       0       0       0       0       0       0       0
       0       0       0       0       0       0       0       0       0       0
       0       0       0       0       0       0       0       0       0       0
       0       0       0       0       0       0       0       0       0       0
       0       0       0       0       0       0       0       0       0       0
       0       0       0       0       0       0       0       0       0       0
       0       0       0       0       0       0       0       0       0       0
       0       0       0       0       0       0       0       0       0       0
       0       0       0       0       0       0       0       0       0       0
       0       0       0       0       0       0       0       0       0       0
       0       0       0       0       0       0       0       0       0       0
       0       0       0       0       0       0       0       0       0       0
       0       0       0       0       0       0       0       0       0       0
       0       0       0       0       0       0       0       0       0       0
       0       0       0       0       0       0       0       0       0       0
       0       0       0       0       0       0       0       0       0       0
       0       0       0       0       0       0       0       0       0       0
       0       0       0       0       0       0       0       0       0       0
       0       0       0       0       0       0       0       0       0       0
       0       0       0       0       0       0       0       0       0       0
       0       0       0       0       0       0       0       0       0       0
       0       0       0       0       0       0       0       0       0       0
       0       0       0       0       0       0       0       0       0       0
       0       0       0       0       0       0       0       0       0       0
       0       0       0       0       0       0       0       0       0       0
       0       0       0       0       0       0       0       0       0       0
       0       0       0       0       0       0       0       0       0       0
       0       0       0       0       0       0       0       0       0       0
       0       0       0       0       0       0       0       0       0       0
       0       0       0       0       0       0       0       0       0       0
       0       0       0       0       0       0       0       0       0       0
       0       0       0       0       0       0       0       0       0       0
       0       0       0       0       0       0       0       0       0       0
       0       0       0       0       0       0       0       0       0       0
       0       0       0       0       0       0       0       0       0       0
       0       0       0       0       0       0       0       0       0       0
       0       0       0       0       0       0       0       0       0       0
       0       0       0       0       0       0       0       0       0       0
       0       0       0       0       0       0       0       0       0       0
       0       0       0       0       0       0       0       0       0       0
       0       0       0       0       0       0       0       0       0       0
       0       0       0       0       0       0       0       0       0       0
       0       0       0       0       0       0       0       0       0       0
       0       0       0       0       0       0       0       0       0       0
       0       0       0       0       0       0       0       0       0       0
       0       0       0       0       0       0       0       0       0       0
       0       0       0       0       0       0       0       0       0       0
       0       0       0       0       0       0       0       0       0       0
       0       0       0       0       0       0       0       0       0       0
       0       0       0       0       0       0       0       0       0       0
       0       0       0       0       0       0       0       0       0       0
       0       0       0       0       0       0       0       0       0       0
       0       0       0       0       0       0       0       0       0       0
       0       0       0       0       0       0       0       0       0       0
       0       0       0       0       0       0       0       0       0       0
       0       0       0       0       0       0       0       0       0       0
       0       0       0       0       0       0       0       0       0       0
       0       0       0       0       0       0       0       0       0       0
       0       0       0       0       0       0       0       0       0       0
       0       0       0       0       0       0       0       0       0       0
       0       0       0       0       0       0       0       0       0       0
       0       0       0       0       0       0       0       0       0       0
       0       0       0       0       0       0       0       0       0       0
       0       0       0       0       0       0       0       0       0       0
       0       0       0       0       0       0       0       0       0       0
       0       0       0       0       0       0       0       0       0       0
       0       0       0       0       0       0       0       0       0       0
       0       0       0       0       0       0       0       0       0       0
       0       0       0       0       0       0       0       0       0       0
       0       0       0       0       0       0       0       0       0       0
       0       0       0       0       0       0       0       0       0       0
       0       0       0       0       0       0       0       0       0       0
       0       0       0       0       0       0       0       0       0       0
       0       0       0       0       0       0       0       0       0       0
       0       0       0       0       0       0       0       0       0       0
       0       0       0       0       0       0       0       0       0       0
       0       0       0       0       0       0       0       0       0       0
       0       0       0       0       0       0       0       0       0       0
       0       0       0       0       0       0       0       0       0       0
       0       0       0       0       0       0       0       0       0       0
       0       0       0       0       0       0       0       0       0       0
       0       0       0       0       0       0       0       0       0       0
       0       0       0       0       0       0       0       0       0       0
       0       0       0       0       0       0       0       0       0       0
       0       0       0       0       0       0       0       0       0       0
       0       0       0       0       0       0       0       0       0       0
       0       0       0       0       0       0       0       0       0       0
       0       0       0       0       0       0       0       0       0       0
       0       0       0       0       0       0       0       0       0       0
       0       0       0       0       0       0       0       0       0       0
       0       0       0       0       0       0       0       0       0       0
       0       0       0       0       0       0       0       0       0       0
       0       0       0       0       0       0       0       0       0       0
       0       0       0       0       0       0       0       0       0       0
       0       0       0       0       0       0       0       0       0       0
       0       0       0       0       0       0       0       0       0       0
       0       0       0       0       0       0       0       0       0       0
       0       0       0       0       0       0       0       0       0       0
       0       0       0       0       0       0       0       0       0       0
       0       0       0       0       0       0       0       0       0       0
       0       0       0       0       0       0       0       0       0       0
       0       0       0       0       0       0       0       0       0       0
       0       0       0       0       0       0       0       0       0       0
       0       0       0       0       0       0       0       0       0       0
       0       0       0       0       0       0       0       0       0       0
       0       0       0       0       0       0       0       0       0       0
       0       0       0       0       0       0       0       0       0       0
       0       0       0       0       0       0       0       0       0       0
       0       0       0       0       0       0       0       0       0       0
       0       0       0       0       0       0       0       0       0       0
       0       0       0       0       0       0       0       0       0       0
       0       0       0       0       0       0       0       0       0       0
       0       0       0       0       0       0       0       0       0       0
       0       0       0       0       0       0       0       0       0       0
       0       0       0       0       0       0       0       0       0       0
       0       0       0       0       0       0       0       0       0       0
       0       0       0       0       0       0       0       0       0       0
       0       0       0       0       0       0       0       0       0       0
       0       0       0       0       0       0       0       0       0       0
       0       0       0       0       0       0       0       0       0       0
       0       0       0       0       0       0       0       0       0       0
       0       0       0       0       0       0       0       0       0       0
       0       0       0       0       0       0       0       0       0       0
       0       0       0       0       0       0       0       0       0       0
       0       0       0       0       0       0       0       0       0       0
       0       0       0       0       0       0       0       0       0       0
       0       0       0       0       0       0       0       0       0       0
       0       0       0       0       0       0       0       0       0       0
       0       0       0       0       0       0       0       0       0       0
       0       0       0       0       0       0       0       0       0       0
       0       0       0       0       0       0       0       0       0       0
       0       0       0       0       0       0       0       0       0       0
       0       0       0       0       0       0       0       0       0       0
       0       0       0       0       0       0       0       0       0       0
       0       0       0       0       0       0       0       0       0       0
       0       0       0       0       0       0       0       0       0       0
       0       0       0       0       0       0       0       0       0       0
       0       0       0       0       0       0       0       0       0       0
       0       0       0       0       0       0       0       0       0       0
       0       0       0       0       0       0       0       0       0       0
       0       0       0       0       0       0       0       0       0       0
       0       0       0       0       0       0       0       0       0       0
       0       0       0       0       0       0       0       0       0       0
       0       0       0       0       0       0       0       0       0       0
       0       0       0       0       0       0       0       0       0       0
       0       0       0       0       0       0       0       0       0       0
       0       0       0       0       0       0       0       0       0       0
       0       0       0       0       0       0       0       0       0       0
       0       0       0       0       0       0       0       0       0       0
       0       0       0       0       0       0       0       0       0       0
       0       0       0       0       0       0       0       0       0       0
       0       0       0       0       0       0       0       0       0       0
       0       0       0       0       0       0       0       0       0       0
       0       0       0       0       0       0       0       0       0       0
       0       0       0       0       0       0       0       0       0       0
       0       0       0       0       0       0       0       0       0       0
       0       0       0       0       0       0       0       0       0       0
       0       0       0       0       0       0       0       0       0       0
       0       0       0       0       0       0       0       0       0       0
       0       0       0       0       0       0       0       0       0       0
       0       0       0       0       0       0       0       0       0       0
       0       0       0       0       0       0       0       0       0       0
       0       0       0       0       0       0       0       0       0       0
       0       0       0       0       0       0       0       0       0       0
       0       0       0       0       0       0       0       0       0       0
       0       0       0       0       0       0       0       0       0       0
       0       0       0       0       0       0       0       0       0       0
       0       0       0       0       0       0       0       0       0       0
       0       0       0       0       0       0       0       0       0       0
       0       0       0       0       0       0       0       0       0       0
       0       0       0       0       0       0       0       0       0       0
       0       0       0       0       0       0       0       0       0       0
       0       0       0       0       0       0       0       0       0       0
       0       0       0       0       0       0       0       0       0       0
       0       0       0       0       0       0       0       0       0       0
       0       0       0       0       0       0       0       0       0       0
       0       0       0       0       0       0       0       0       0       0
       0       0       0       0       0       0       0       0       0       0
       0       0       0       0       0       0       0       0       0       0
       0       0       0       0       0       0       0       0       0       0
       0       0       0       0       0       0       0       0       0       0
       0       0       0       0       0       0       0       0       0       0
       0       0       0       0       0       0       0       0       0       0
       0       0       0       0       0       0       0       0       0       0
       0       0       0       0       0       0       0       0       0       0
       0       0       0       0       0       0       0       0       0       0
       0       0       0       0       0       0       0       0       0       0
       0       0       0       0       0       0       0       0       0       0
       0       0       0       0       0       0       0       0       0       0
       0       0       0       0       0       0       0       0       0       0
       0       0       0       0       0       0       0       0       0       0
       0       0       0       0       0       0       0       0       0       0
       0       0       0       0       0       0       0       0       0       0
       0       0       0       0       0       0       0       0       0       0
       0       0       0       0       0       0       0       0       0       0
       0       0       0       0       0       0       0       0       0       0
       0       0       0       0       0       0       0       0       0       0
       0       0       0       0       0       0       0       0       0       0
       0       0       0       0       0       0       0       0       0       0
       0       0       0       0       0       0       0       0       0       0
       0       0       0       0       0       0       0       0       0       0
       0       0       0       0       0       0       0       0       0       0
       0       0       0       0       0       0       0       0       0       0
       0       0       0       0       0       0       0       0       0       0
       0       0       0       0       0       0       0       0       0       0
       0       0       0       0       0       0       0       0       0       0
       0       0       0       0       0       0       0       0       0       0
       0       0       0       0       0       0       0       0       0       0
       0       0       0       0       0       0       0       0       0       0
       0       0       0       0       0       0       0       0       0       0
       0       0       0       0       0       0       0       0       0       0
       0       0       0       0       0       0       0       0       0       0
       0       0       0       0       0       0       0       0       0       0
       0       0       0       0       0       0       0       0       0       0
       0       0       0       0       0       0       0       0       0       0
       0       0       0       0       0       0       0       0       0       0
       0       0       0       0       0       0       0       0       0       0
       0       0       0       0       0       0       0       0       0       0
       0       0       0       0       0       0       0       0       0       0
       0       0       0       0       0       0       0       0       0       0
       0       0       0       0       0       0       0       0       0       0
       0       0       0       0       0       0       0       0       0       0
       0       0       0       0       0       0       0       0       0       0
       0       0       0       0       0       0       0       0       0       0
       0       0       0       0       0       0       0       0       0       0
       0       0       0       0       0       0       0       0       0       0
       0       0       0       0       0       0       0       0       0       0
       0       0       0       0       0       0       0       0       0       0
       0       0       0       0       0       0       0       0       0       0
       0       0       0       0       0       0       0       0       0       0
       0       0       0       0       0       0       0       0       0       0
       0       0       0       0       0       0       0       0       0       0
       0       0       0       0       0       0       0       0       0       0
       0       0       0       0       0       0       0       0       0       0
       0       0       0       0       0       0       0       0       0       0
       0       0       0       0       0       0       0       0       0       0
       0       0       0       0       0       0       0       0       0       0
       0       0       0       0       0       0       0       0       0       0
       0       0       0       0       0       0       0       0       0       0
       0       0       0       0       0       0       0       0       0       0
       0       0       0       0       0       0       0       0       0       0
       0       0       0       0       0       0       0       0       0       0
       0       0       0       0       0       0       0       0       0       0
       0       0       0       0       0       0       0       0       0       0
       0       0       0       0       0       0       0       0       0       0
       0       0       0       0       0       0       0       0       0       0
       0       0       0       0       0       0       0       0       0       0
       0       0       0       0       0       0       0       0       0       0
       0       0       0       0       0       0       0       0       0       0
       0       0       0       0       0       0       0       0       0       0
       0       0       0       0       0       0       0       0       0       0
       0       0       0       0       0       0       0       0       0       0
       0       0       0       0       0       0       0       0       0       0
       0       0       0       0       0       0       0       0       0       0
       0       0       0       0       0       0       0       0       0       0
       0       0       0       0       0       0       0       0       0       0
       0       0       0       0       0       0       0       0       0       0
       0       0       0       0       0       0       0       0       0       0
       0       0       0       0       0       0       0       0       0       0
       0       0       0       0       0       0       0       0       0       0
       0       0       0       0       0       0       0       0       0       0
       0       0       0       0       0       0       0       0       0       0
       0       0       0       0       0       0       0       0       0       0
       0       0       0       0       0       0       0       0       0       0
       0       0       0       0       0       0       0       0       0       0
       0       0       0       0       0       0       0       0       0       0
       0       0       0       0       0       0       0       0       0       0
       0       0       0       0       0       0       0       0       0       0
       0       0       0       0       0       0       0       0       0       0
       0       0       0       0       0       0       0       0       0       0
       0       0       0       0       0       0       0       0       0       0
       0       0       0       0       0       0       0       0       0       0
       0       0       0       0       0       0       0       0       0       0
       0       0       0       0       0       0       0       0       0       0
       0       0       0       0       0       0       0       0       0       0
       0       0       0       0       0       0       0       0       0       0
       0       0       0       0       0       0       0       0       0       0
       0       0       0       0       0       0       0       0       0       0
       0       0       0       0       0       0       0       0       0       0
       0       0       0       0       0       0       0       0       0       0
       0       0       0       0       0       0       0       0       0       0
       0       0       0       0       0       0       0       0       0       0
       0       0       0       0       0       0       0       0       0       0
       0       0       0       0       0       0       0       0       0       0
       0       0       0       0       0       0       0       0       0       0
       0       0       0       0       0       0       0       0       0       0
       0       0       0       0       0       0       0       0       0       0
       0       0       0       0       0       0       0       0       0       0
       0       0       0       0       0       0       0       0       0       0
       0       0       0       0       0       0       0       0       0       0
       0       0       0       0       0       0       0       0       0       0
       0       0       0       0       0       0       0       0       0       0
       0       0       0       0       0       0       0       0       0       0
       0       0       0       0       0       0       0       0       0       0
       0       0       0       0       0       0       0       0       0       0
       0       0       0       0       0       0       0       0       0       0
       0       0       0       0       0       0       0       0       0       0
       0       0       0       0       0       0       0       0       0       0
       0       0       0       0       0       0       0       0       0       0
       0       0       0       0       0       0       0       0       0       0
       0       0       0       0       0       0       0       0       0       0
       0       0       0       0       0       0       0       0       0       0
       0       0       0       0       0       0       0       0       0       0
       0       0       0       0       0       0       0       0       0       0
       0       0       0       0       0       0       0       0       0       0
       0       0       0       0       0       0       0       0       0       0
       0       0       0       0       0       0       0       0       0       0
       0       0       0       0       0       0       0       0       0       0
       0       0       0       0       0       0       0       0       0       0
       0       0       0       0       0       0       0       0       0       0
       0       0       0       0       0       0       0       0       0       0
       0       0       0       0       0       0       0       0       0       0
       0       0       0       0       0       0       0       0       0       0
       0       0       0       0       0       0       0       0       0       0
       0       0       0       0       0       0       0       0       0       0
       0       0       0       0       0       0       0       0       0       0
       0       0       0       0       0       0       0       0       0       0
       0       0       0       0       0       0       0       0       0       0
       0       0       0       0       0       0       0       0       0       0
       0       0       0       0       0       0       0       0       0       0
       0       0       0       0       0       0       0       0       0       0
       0       0       0       0       0       0       0       0       0       0
       0       0       0       0       0       0       0       0       0       0
       0       0       0       0       0       0       0       0       0       0
       0       0       0       0       0       0       0       0       0       0
       0       0       0       0       0       0       0       0       0       0
       0       0       0       0       0       0       0       0       0       0
       0       0       0       0       0       0       0       0       0       0
       0       0       0       0       0       0       0       0       0       0
       0       0       0       0       0       0       0       0       0       0
       0       0       0       0       0       0       0       0       0       0
       0       0       0       0       0       0       0       0       0       0
       0       0       0       0       0       0       0       0       0       0
       0       0       0       0       0       0       0       0       0       0
       0       0       0       0       0       0       0       0       0       0
       0       0       0       0       0       0       0       0       0       0
       0       0       0       0       0       0       0       0       0       0
       0       0       0       0       0       0       0       0       0       0
       0       0       0       0       0       0       0       0       0       0
       0       0       0       0       0       0       0       0       0       0
       0       0       0       0       0       0       0       0       0       0
       0       0       0       0       0       0       0       0       0       0
       0       0       0       0       0       0       0       0       0       0
       0       0       0       0       0       0       0       0       0       0
       0       0       0       0       0       0       0       0       0       0
       0       0       0       0       0       0       0       0       0       0
       0       0       0       0       0       0       0       0       0       0
       0       0       0       0       0       0       0       0       0       0
       0       0       0       0       0       0       0       0       0       0
       0       0       0       0       0       0       0       0       0       0
       0       0       0       0       0       0       0       0       0       0
       0       0       0       0       0       0       0       0       0       0
       0       0       0       0       0       0       0       0       0       0
       0       0       0       0       0       0       0       0       0       0
       0       0       0       0       0       0       0       0       0       0
       0       0       0       0       0       0       0       0       0       0
       0       0       0       0       0       0       0       0       0       0
       0       0       0       0       0       0       0       0       0       0
       0       0       0       0       0       0       0       0       0       0
       0       0       0       0       0       0       0       0       0       0
       0       0       0       0       0       0       0       0       0       0
       0       0       0       0       0       0       0       0       0       0
       0       0       0       0       0       0       0       0       0       0
       0       0       0       0       0       0       0       0       0       0
       0       0       0       0       0       0       0       0       0       0
       0       0       0       0       0       0       0       0       0       0
       0       0       0       0       0       0       0       0       0       0
       0       0       0       0       0       0       0       0       0       0
       0       0       0       0       0       0       0       0       0       0
       0       0       0       0       0       0       0       0       0       0
       0       0       0       0       0       0       0       0       0       0
       0       0       0       0       0       0       0       0       0       0
       0       0       0       0       0       0       0       0       0       0
       0       0       0       0       0       0       0       0       0       0
       0       0       0       0       0       0       0       0       0       0
       0       0       0       0       0       0       0       0       0       0
       0       0       0       0       0       0       0       0       0       0
       0       0       0       0       0       0       0       0       0       0
       0       0       0       0       0       0       0       0       0       0
       0       0       0       0       0       0       0       0       0       0
       0       0       0       0       0       0       0       0       0       0
       0       0       0       0       0       0       0       0       0       0
       0       0       0       0       0       0       0       0       0       0
       0       0       0       0       0       0       0       0       0       0
       0       0       0       0       0       0       0       0       0       0
       0       0       0       0       0       0       0       0       0       0
       0       0       0       0       0       0       0       0       0       0
       0       0       0       0       0       0       0       0       0       0
       0       0       0       0       0       0       0       0       0       0
       0       0       0       0       0       0       0       0       0       0
       0       0       0       0       0       0       0       0       0       0
       0       0       0       0       0       0       0       0       0       0
       0       0       0       0       0       0       0       0       0       0
       0       0       0       0       0       0       0       0       0       0
       0       0       0       0       0       0       0       0       0       0
       0       0       0       0       0       0       0       0       0       0
       0       0       0       0       0       0       0       0       0       0
       0       0       0       0       0       0       0       0       0       0
       0       0       0       0       0       0       0       0       0       0
       0       0       0       0       0       0       0       0       0       0
       0       0       0       0       0       0       0       0       0       0
       0       0       0       0       0       0       0       0       0       0
       0       0       0       0       0       0       0       0       0       0
       0       0       0       0       0       0       0       0       0       0
       0       0       0       0       0       0       0       0       0       0
       0       0       0       0       0       0       0       0       0       0
       0       0       0       0       0       0       0       0       0       0
       0       0       0       0       0       0       0       0       0       0
       0       0       0       0       0       0       0       0       0       0
       0       0       0       0       0       0       0       0       0       0
       0       0       0       0       0       0       0       0       0       0
       0       0       0       0       0       0       0       0       0       0
       0       0       0       0       0       0       0       0       0       0
       0       0       0       0       0       0       0       0       0       0
       0       0       0       0       0       0       0       0       0       0
       0       0       0       0       0       0       0       0       0       0
       0       0       0       0       0       0       0       0       0       0
       0       0       0       0       0       0       0       0       0       0
       0       0       0       0       0       0       0       0       0       0
       0       0       0       0       0       0       0       0       0       0
       0       0       0       0       0       0       0       0       0       0
       0       0       0       0       0       0       0       0       0       0
       0       0       0       0       0       0       0       0       0       0
       0       0       0       0       0       0       0       0       0       0
       0       0       0       0       0       0       0       0       0       0
       0       0       0       0       0       0       0       0       0       0
       0       0       0       0       0       0       0       0       0       0
       0       0       0       0       0       0       0       0       0       0
       0       0       0       0       0       0       0       0       0       0
       0       0       0       0       0       0       0       0       0       0
       0       0       0       0       0       0       0       0       0       0
       0       0       0       0       0       0       0       0       0       0
       0       0       0       0       0       0       0       0       0       0
       0       0       0       0       0       0       0       0       0       0
       0       0       0       0       0       0       0       0       0       0
       0       0       0       0       0       0       0       0       0       0
       0       0       0       0       0       0       0       0       0       0
       0       0       0       0       0       0       0       0       0       0
       0       0       0       0       0       0       0       0       0       0
       0       0       0       0       0       0       0       0       0       0
       0       0       0       0       0       0       0       0       0       0
       0       0       0       0       0       0       0       0       0       0
       0       0       0       0       0       0       0       0       0       0
       0       0       0       0       0       0       0       0       0       0
       0       0       0       0       0       0       0       0       0       0
       0       0       0       0       0       0       0       0       0       0
       0       0       0       0       0       0       0       0       0       0
       0       0       0       0       0       0       0       0       0       0
       0       0       0       0       0       0       0       0       0       0
       0       0       0       0       0       0       0       0       0       0
       0       0       0       0       0       0       0       0       0       0
       0       0       0       0       0       0       0       0       0       0
       0       0       0       0       0       0       0       0       0       0
       0       0       0       0       0       0       0       0       0       0
       0       0       0       0       0       0       0       0       0       0
       0       0       0       0       0       0       0       0       0       0
       0       0       0       0       0       0       0       0       0       0
       0       0       0       0       0       0       0       0       0       0
       0       0       0       0       0       0       0       0       0       0
       0       0       0       0       0       0       0       0       0       0
       0       0       0       0       0       0       0       0       0       0
       0       0       0       0       0       0       0       0       0       0
       0       0       0       0       0       0       0       0       0       0
       0       0       0       0       0       0       0       0       0       0
       0       0       0       0       0       0       0       0       0       0
       0       0       0       0       0       0       0       0       0       0
       0       0       0       0       0       0       0       0       0       0
       0       0       0       0       0       0       0       0       0       0
       0       0       0       0       0       0       0       0       0       0
       0       0       0       0       0       0       0       0       0       0
       0       0       0       0       0       0       0       0       0       0
       0       0       0       0       0       0       0       0       0       0
       0       0       0       0       0       0       0       0       0       0
       0       0       0       0       0       0       0       0       0       0
       0       0       0       0       0       0       0       0       0       0
       0       0       0       0       0       0       0       0       0       0
       0       0       0       0       0       0       0       0       0       0
       0       0       0       0       0       0       0       0       0       0
       0       0       0       0       0       0       0       0       0       0
       0       0       0       0       0       0       0       0       0       0
       0       0       0       0       0       0       0       0       0       0
       0       0       0       0       0       0       0       0       0       0
       0       0       0       0       0       0       0       0       0       0
       0       0       0       0       0       0       0       0       0       0
       0       0       0       0       0       0       0       0       0       0
       0       0       0       0       0       0       0       0       0       0
       0       0       0       0       0       0       0       0       0       0
       0       0       0       0       0       0       0       0       0       0
       0       0       0       0       0       0       0       0       0       0
       0       0       0       0       0       0       0       0       0       0
       0       0       0       0       0       0       0       0       0       0
       0       0       0       0       0       0       0       0       0       0
       0       0       0       0       0       0       0       0       0       0
       0       0       0       0       0       0       0       0       0       0
       0       0       0       0       0       0       0       0       0       0
       0       0       0       0       0       0       0       0       0       0
       0       0       0       0       0       0       0       0       0       0
       0       0       0       0       0       0       0       0       0       0
       0       0       0       0       0       0       0       0       0       0
       0       0       0       0       0       0       0       0       0       0
       0       0       0       0       0       0       0       0       0       0
       0       0       0       0       0       0       0       0       0       0
       0       0       0       0       0       0       0       0       0       0
       0       0       0       0       0       0       0       0       0       0
       0       0       0       0       0       0       0       0       0       0
       0       0       0       0       0       0       0       0       0       0
       0       0       0       0       0       0       0       0       0       0
       0       0       0       0       0       0       0       0       0       0
       0       0       0       0       0       0       0       0       0       0
       0       0       0       0       0       0       0       0       0       0
       0       0       0       0       0       0       0       0       0       0
       0       0       0       0       0       0       0       0       0       0
       0       0       0       0       0       0       0       0       0       0
       0       0       0       0       0       0       0       0       0       0
       0       0       0       0       0       0       0       0       0       0
       0       0       0       0       0       0       0       0       0       0
       0       0       0       0       0       0       0       0       0       0
       0       0       0       0       0       0       0       0       0       0
       0       0       0       0       0       0       0       0       0       0
       0       0       0       0       0       0       0       0       0       0
       0       0       0       0       0       0       0       0       0       0
       0       0       0       0       0       0       0       0       0       0
       0       0       0       0       0       0       0       0       0       0
       0       0       0       0       0       0       0       0       0       0
       0       0       0       0       0       0       0       0       0       0
       0       0       0       0       0       0       0       0       0       0
       0       0       0       0       0       0       0       0       0       0
       0       0       0       0       0       0       0       0       0       0
       0       0       0       0       0       0       0       0       0       0
       0       0       0       0       0       0       0       0       0       0
       0       0       0       0       0       0       0       0       0       0
       0       0       0       0       0       0       0       0       0       0
       0       0       0       0       0       0       0       0       0       0
       0       0       0       0       0       0       0       0       0       0
       0       0       0       0       0       0       0       0       0       0
       0       0       0       0       0       0       0       0       0       0
       0       0       0       0       0       0       0       0       0       0
       0       0       0       0       0       0       0       0       0       0
       0       0       0       0       0       0       0       0       0       0
       0       0       0       0       0       0       0       0       0       0
       0       0       0       0       0       0       0       0       0       0
       0       0       0       0       0       0       0       0       0       0
       0       0       0       0       0       0       0       0       0       0
       0       0       0       0       0       0       0       0       0       0
       0       0       0       0       0       0       0       0       0       0
       0       0       0       0       0       0       0       0       0       0
       0       0       0       0       0       0       0       0       0       0
       0       0       0       0       0       0       0       0       0       0
       0       0       0       0       0       0       0       0       0       0
       0       0       0       0       0       0       0       0       0       0
       0       0       0       0       0       0       0       0       0       0
       0       0       0       0       0       0       0       0       0       0
       0       0       0       0       0       0       0       0       0       0
       0       0       0       0       0       0       0       0       0       0
       0       0       0       0       0       0       0       0       0       0
       0       0       0       0       0       0       0       0       0       0
       0       0       0       0       0       0       0       0       0       0
       0       0       0       0       0       0       0       0       0       0
       0       0       0       0       0       0       0       0       0       0
       0       0       0       0       0       0       0       0       0       0
       0       0       0       0       0       0       0       0       0       0
       0       0       0       0       0       0       0       0       0       0
       0       0       0       0       0       0       0       0       0       0
       0       0       0       0       0       0       0       0       0       0
       0       0       0       0       0       0       0       0       0       0
       0       0       0       0       0       0       0       0       0       0
       0       0       0       0       0       0       0       0       0       0
       0       0       0       0       0       0       0       0       0       0
       0       0       0       0       0       0       0       0       0       0
       0       0       0       0       0       0       0       0       0       0
       0       0       0       0       0       0       0       0       0       0
       0       0       0       0       0       0       0       0       0       0
       0       0       0       0       0       0       0       0       0       0
       0       0       0       0       0       0       0       0       0       0
       0       0       0       0       0       0       0       0       0       0
       0       0       0       0       0       0       0       0       0       0
       0       0       0       0       0       0       0       0       0       0
       0       0       0       0       0       0       0       0       0       0
       0       0       0       0       0       0       0       0       0       0
       0       0       0       0       0       0       0       0       0       0
       0       0       0       0       0       0       0       0       0       0
       0       0       0       0       0       0       0       0       0       0
       0       0       0       0       0       0       0       0       0       0
       0       0       0       0       0       0       0       0       0       0
       0       0       0       0       0       0       0       0       0       0
       0       0       0       0       0       0       0       0       0       0
       0       0       0       0       0       0       0       0       0       0
       0       0       0       0       0       0       0       0       0       0
       0       0       0       0       0       0       0       0       0       0
       0       0       0       0       0       0       0       0       0       0
       0       0       0       0       0       0       0       0       0       0
       0       0       0       0       0       0       0       0       0       0
       0       0       0       0       0       0       0       0       0       0
       0       0       0       0       0       0       0       0       0       0
       0       0       0       0       0       0       0       0       0       0
       0       0       0       0       0       0       0       0       0       0
       0       0       0       0       0       0       0       0       0       0
       0       0       0       0       0       0       0       0       0       0
       0       0       0       0       0       0       0       0       0       0
       0       0       0       0       0       0       0       0       0       0
       0       0       0       0       0       0       0       0       0       0
       0       0       0       0       0       0       0       0       0       0
       0       0       0       0       0       0       0       0       0       0
       0       0       0       0       0       0       0       0       0       0
       0       0       0       0       0       0       0       0       0       0
       0       0       0       0       0       0       0       0       0       0
       0       0       0       0       0       0       0       0       0       0
       0       0       0       0       0       0       0       0       0       0
       0       0       0       0       0       0       0       0       0       0
       0       0       0       0       0       0       0       0       0       0
       0       0       0       0       0       0       0       0       0       0
       0       0       0       0       0       0       0       0       0       0
       0       0       0       0       0       0       0       0       0       0
       0       0       0       0       0       0       0       0       0       0
       0       0       0       0       0       0       0       0       0       0
       0       0       0       0       0       0       0       0       0       0
       0       0       0       0       0       0       0       0       0       0
       0       0       0       0       0       0       0       0       0       0
       0       0       0       0       0       0       0       0       0       0
       0       0       0       0       0       0       0       0       0       0
       0       0       0       0       0       0       0       0       0       0
       0       0       0       0       0       0       0       0       0       0
       0       0       0       0       0       0       0       0       0       0
       0       0       0       0       0       0       0       0       0       0
       0       0       0       0       0       0       0       0       0       0
       0       0       0       0       0       0       0       0       0       0
       0       0       0       0       0       0       0       0       0       0
       0       0       0       0       0       0       0       0       0       0
       0       0       0       0       0       0       0       0       0       0
       0       0       0       0       0       0       0       0       0       0
       0       0       0       0       0       0       0       0       0       0
       0       0       0       0       0       0       0       0       0       0
       0       0       0       0       0       0       0       0       0       0
       0       0       0       0       0       0       0       0       0       0
       0       0       0       0       0       0       0       0       0       0
       0       0       0       0       0       0       0       0       0       0
       0       0       0       0       0       0       0       0       0       0
       0       0       0       0       0       0       0       0       0       0
       0       0       0       0       0       0       0       0       0       0
       0       0       0       0       0       0       0       0       0       0
       0       0       0       0       0       0       0       0       0       0
       0       0       0       0       0       0       0       0       0       0
       0       0       0       0       0       0       0       0       0       0
       0       0       0       0       0       0       0       0       0       0
       0       0       0       0       0       0       0       0       0       0
       0       0       0       0       0       0       0       0       0       0
       0       0       0       0       0       0       0       0       0       0
       0       0       0       0       0       0       0       0       0       0
       0       0       0       0       0       0       0       0       0       0
       0       0       0       0       0       0       0       0       0       0
       0       0       0       0       0       0       0       0       0       0
       0       0       0       0       0       0       0       0       0       0
       0       0       0       0       0       0       0       0       0       0
       0       0       0       0       0       0       0       0       0       0
       0       0       0       0       0       0       0       0       0       0
       0       0       0       0       0       0       0       0       0       0
       0       0       0       0       0       0       0       0       0       0
       0       0       0       0       0       0       0       0       0       0
       0       0       0       0       0       0       0       0       0       0
       0       0       0       0       0       0       0       0       0       0
       0       0       0       0       0       0       0       0       0       0
       0       0       0       0       0       0       0       0       0       0
       0       0       0       0       0       0       0       0       0       0
       0       0       0       0       0       0       0       0       0       0
       0       0       0       0       0       0       0       0       0       0
       0       0       0       0       0       0       0       0       0       0
       0       0       0       0       0       0       0       0       0       0
       0       0       0       0       0       0       0       0       0       0
       0       0       0       0       0       0       0       0       0       0
       0       0       0       0       0       0       0       0       0       0
       0       0       0       0       0       0       0       0       0       0
       0       0       0       0       0       0       0       0       0       0
       0       0       0       0       0       0       0       0       0       0
       0       0       0       0       0       0       0       0       0       0
       0       0       0       0       0       0       0       0       0       0
       0       0       0       0       0       0       0       0       0       0
       0       0       0       0       0       0       0       0       0       0
       0       0       0       0       0       0       0       0       0       0
       0       0       0       0       0       0       0       0       0       0
       0       0       0       0       0       0       0       0       0       0
       0       0       0       0       0       0       0       0       0       0
       0       0       0       0       0       0       0       0       0       0
       0       0       0       0       0       0       0       0       0       0
       0       0       0       0       0       0       0       0       0       0
       0       0       0       0       0       0       0       0       0       0
       0       0       0       0       0       0       0       0       0       0
       0       0       0       0       0       0       0       0       0       0
       0       0       0       0       0       0       0       0       0       0
       0       0       0       0       0       0       0       0       0       0
       0       0       0       0       0       0       0       0       0       0
       0       0       0       0       0       0       0       0       0       0
       0       0       0       0       0       0       0       0       0       0
       0       0       0       0       0       0       0       0       0       0
       0       0       0       0       0       0       0       0       0       0
       0       0       0       0       0       0       0       0       0       0
       0       0       0       0       0       0       0       0       0       0
       0       0       0       0       0       0       0       0       0       0
       0       0       0       0       0       0       0       0       0       0
       0       0       0       0       0       0       0       0       0       0
       0       0       0       0       0       0       0       0       0       0
       0       0       0       0       0       0       0       0       0       0
       0       0       0       0       0       0       0       0       0       0
       0       0       0       0       0       0       0       0       0       0
       0       0       0       0       0       0       0       0       0       0
       0       0       0       0       0       0       0       0       0       0
       0       0       0       0       0       0       0       0       0       0
       0       0       0       0       0       0       0       0       0       0
       0       0       0       0       0       0       0       0       0       0
       0       0       0       0       0       0       0       0       0       0
       0       0       0       0       0       0       0       0       0       0
       0       0       0       0       0       0       0       0       0       0
       0       0       0       0       0       0       0       0       0       0
       0       0       0       0       0       0       0       0       0       0
       0       0       0       0       0       0       0       0       0       0
       0       0       0       0       0       0       0       0       0       0
       0       0       0       0       0       0       0       0       0       0
       0       0       0       0       0       0       0       0       0       0
       0       0       0       0       0       0       0       0       0       0
       0       0       0       0       0       0       0       0       0       0
       0       0       0       0       0       0       0       0       0       0
       0       0       0       0       0       0       0       0       0       0
       0       0       0       0       0       0       0       0       0       0
       0       0       0       0       0       0       0       0       0       0
       0       0       0       0       0       0       0       0       0       0
       0       0       0       0       0       0       0       0       0       0
       0       0       0       0       0       0       0       0       0       0
       0       0       0       0       0       0       0       0       0       0
       0       0       0       0       0       0       0       0       0       0
       0       0       0       0       0       0       0       0       0       0
       0       0       0       0       0       0       0       0       0       0
       0       0       0       0       0       0       0       0       0       0
       0       0       0       0       0       0       0       0       0       0
       0       0       0       0       0       0       0       0       0       0
       0       0       0       0       0       0       0       0       0       0
       0       0       0       0       0       0       0       0       0       0
       0       0       0       0       0       0       0       0       0       0
       0       0       0       0       0       0       0       0       0       0
       0       0       0       0       0       0       0       0       0       0
       0       0       0       0       0       0       0       0       0       0
       0       0       0       0       0       0       0       0       0       0
       0       0       0       0       0       0       0       0       0       0
       0       0       0       0       0       0       0       0       0       0
       0       0       0       0       0       0       0       0       0       0
       0       0       0       0       0       0       0       0       0       0
       0       0       0       0       0       0       0       0       0       0
       0       0       0       0       0       0       0       0       0       0
       0       0       0       0       0       0       0       0       0       0
       0       0       0       0       0       0       0       0       0       0
       0       0       0       0       0       0       0       0       0       0
       0       0       0       0       0       0       0       0       0       0
       0       0       0       0       0       0       0       0       0       0
       0       0       0       0       0       0       0       0       0       0
       0       0       0       0       0       0       0       0       0       0
       0       0       0       0       0       0       0       0       0       0
       0       0       0       0       0       0       0       0       0       0
       0       0       0       0       0       0       0       0       0       0
       0       0       0       0       0       0       0       0       0       0
       0       0       0       0       0       0       0       0       0       0
       0       0       0       0       0       0       0       0       0       0
       0       0       0       0       0       0       0       0       0       0
       0       0       0       0       0       0       0       0       0       0
       0       0       0       0       0       0       0       0       0       0
       0       0       0       0       0       0       0       0       0       0
       0       0       0       0       0       0       0       0       0       0
       0       0       0       0       0       0       0       0       0       0
       0       0       0       0       0       0       0       0       0       0
       0       0       0       0       0       0       0       0       0       0
       0       0       0       0       0       0       0       0       0       0
       0       0       0       0       0       0       0       0       0       0
       0       0       0       0       0       0       0       0       0       0
       0       0       0       0       0       0       0       0       0       0
       0       0       0       0       0       0       0       0       0       0
       0       0       0       0       0       0       0       0       0       0
       0       0       0       0       0       0       0       0       0       0
       0       0       0       0       0       0       0       0       0       0
       0       0       0       0       0       0       0       0       0       0
       0       0       0       0       0       0       0       0       0       0
       0       0       0       0       0       0       0       0       0       0
       0       0       0       0       0       0       0       0       0       0
       0       0       0       0       0       0       0       0       0       0
       0       0       0       0       0       0       0       0       0       0
       0       0       0       0       0       0       0       0       0       0
       0       0       0       0       0       0       0       0       0       0
       0       0       0       0       0       0       0       0       0       0
       0       0       0       0       0       0       0       0       0       0
       0       0       0       0       0       0       0       0       0       0
       0       0       0       0       0       0       0       0       0       0
       0       0       0       0       0       0       0       0       0       0
       0       0       0       0       0       0       0       0       0       0
       0       0       0       0       0       0       0       0       0       0
       0       0       0       0       0       0       0       0       0       0
       0       0       0       0       0       0       0       0       0       0
       0       0       0       0       0       0       0       0       0       0
       0       0       0       0       0       0       0       0       0       0
       0       0       0       0       0       0       0       0       0       0
       0       0       0       0       0       0       0       0       0       0
       0       0       0       0       0       0       0       0       0       0
       0       0       0       0       0       0       0       0       0       0
       0       0       0       0       0       0       0       0       0       0
       0       0       0       0       0       0       0       0       0       0
       0       0       0       0       0       0       0       0       0       0
       0       0       0       0       0       0       0       0       0       0
       0       0       0       0       0       0       0       0       0       0
       0       0       0       0       0       0       0       0       0       0
       0       0       0       0       0       0       0       0       0       0
       0       0       0       0       0       0       0       0       0       0
       0       0       0       0       0       0       0       0       0       0
       0       0       0       0       0       0       0       0       0       0
       0       0       0       0       0       0       0       0       0       0
       0       0       0       0       0       0       0       0       0       0
       0       0       0       0       0       0       0       0       0       0
       0       0       0       0       0       0       0       0       0       0
       0       0       0       0       0       0       0       0       0       0
       0       0       0       0       0       0       0       0       0       0
       0       0       0       0       0       0       0       0       0       0
       0       0       0       0       0       0       0       0       0       0
       0       0       0       0       0       0       0       0       0       0
       0       0       0       0       0       0       0       0       0       0
       0       0       0       0       0       0       0       0       0       0
       0       0       0       0       0       0       0       0       0       0
       0       0       0       0       0       0       0       0       0       0
       0       0       0       0       0       0       0       0       0       0
       0       0       0       0       0       0       0       0       0       0
       0       0       0       0       0       0       0       0       0       0
       0       0       0       0       0       0       0       0       0       0
       0       0       0       0       0       0       0       0       0       0
       0       0       0       0       0       0       0       0       0       0
       0       0       0       0       0       0       0       0       0       0
       0       0       0       0       0       0       0       0       0       0
       0       0       0       0       0       0       0       0       0       0
       0       0       0       0       0       0       0       0       0       0
       0       0       0       0       0       0       0       0       0       0
       0       0       0       0       0       0       0       0       0       0
       0       0       0       0       0       0       0       0       0       0
       0       0       0       0       0       0       0       0       0       0
       0       0       0       0       0       0       0       0       0       0
       0       0       0       0       0       0       0       0       0       0
       0       0       0       0       0       0       0       0       0       0
       0       0       0       0       0       0       0       0       0       0
       0       0       0       0       0       0       0       0       0       0
       0       0       0       0       0       0       0       0       0       0
       0       0       0       0       0       0       0       0       0       0
       0       0       0       0       0       0       0       0       0       0
       0       0       0       0       0       0       0       0       0       0
       0       0       0       0       0       0       0       0       0       0
       0       0       0       0       0       0       0       0       0       0
       0       0       0       0       0       0       0       0       0       0
       0       0       0       0       0       0       0       0       0       0
       0       0       0       0       0       0       0       0       0       0
       0       0       0       0       0       0       0       0       0       0
       0       0       0       0       0       0       0       0       0       0
       0       0       0       0       0       0       0       0       0       0
       0       0       0       0       0       0       0       0       0       0
       0       0       0       0       0       0       0       0       0       0
       0       0       0       0       0       0       0       0       0       0
       0       0       0       0       0       0       0       0       0       0
       0       0       0       0       0       0       0       0       0       0
       0       0       0       0       0       0       0       0       0       0
       0       0       0       0       0       0       0       0       0       0
       0       0       0       0       0       0       0       0       0       0
       0       0       0       0       0       0       0       0       0       0
       0       0       0       0       0       0       0       0       0       0
       0       0       0       0       0       0       0       0       0       0
       0       0       0       0       0       0       0       0       0       0
       0       0       0       0       0       0       0       0       0       0
       0       0       0       0       0       0       0       0       0       0
       0       0       0       0       0       0       0       0       0       0
       0       0       0       0       0       0       0       0       0       0
       0       0       0       0       0       0       0       0       0       0
       0       0       0       0       0       0       0       0       0       0
       0       0       0       0       0       0       0       0       0       0
       0       0       0       0       0       0       0       0       0       0
       0       0       0       0       0       0       0       0       0       0
       0       0       0       0       0       0       0       0       0       0
       0       0       0       0       0       0       0       0       0       0
       0       0       0       0       0       0       0       0       0       0
       0       0       0       0       0       0       0       0       0       0
       0       0       0       0       0       0       0       0       0       0
       0       0       0       0       0       0       0       0       0       0
       0       0       0       0       0       0       0       0       0       0
       0       0       0       0       0       0       0       0       0       0
       0       0       0       0       0       0       0       0       0       0
       0       0       0       0       0       0       0       0       0       0
       0       0       0       0       0       0       0       0       0       0
       0       0       0       0       0       0       0       0       0       0
       0       0       0       0       0       0       0       0       0       0
       0       0       0       0       0       0       0       0       0       0
       0       0       0       0       0       0       0       0       0       0
       0       0       0       0       0       0       0       0       0       0
       0       0       0       0       0       0       0       0       0       0
       0       0       0       0       0       0       0       0       0       0
       0       0       0       0       0       0       0       0       0       0
       0       0       0       0       0       0       0       0       0       0
       0       0       0       0       0       0       0       0       0       0
       0       0       0       0       0       0       0       0       0       0
       0       0       0       0       0       0       0       0       0       0
       0       0       0       0       0       0       0       0       0       0
       0       0       0       0       0       0       0       0       0       0
       0       0       0       0       0       0       0       0       0       0
       0       0       0       0       0       0       0       0       0       0
       0       0       0       0       0       0       0       0       0       0
       0       0       0       0       0       0       0       0       0       0
       0       0       0       0       0       0       0       0       0       0
       0       0       0       0       0       0       0       0       0       0
       0       0       0       0       0       0       0       0       0       0
       0       0       0       0       0       0       0       0       0       0
       0       0       0       0       0       0       0       0       0       0
       0       0       0       0       0       0       0       0       0       0
       0       0       0       0       0       0       0       0       0       0
       0       0       0       0       0       0       0       0       0       0
       0       0       0       0       0       0       0       0       0       0
       0       0       0       0       0       0       0       0       0       0
       0       0       0       0       0       0       0       0       0       0
       0       0       0       0       0       0       0       0       0       0
       0       0       0       0       0       0       0       0       0       0
       0       0       0       0       0       0       0       0       0       0
       0       0       0       0       0       0       0       0       0       0
       0       0       0       0       0       0       0       0       0       0
       0       0       0       0       0       0       0       0       0       0
       0       0       0       0       0       0       0       0       0       0
       0       0       0       0       0       0       0       0       0       0
       0       0       0       0       0       0       0       0       0       0
       0       0       0       0       0       0       0       0       0       0
       0       0       0       0       0       0       0       0       0       0
       0       0       0       0       0       0       0       0       0       0
       0       0       0       0       0       0       0       0       0       0
       0       0       0       0       0       0       0       0       0       0
       0       0       0       0       0       0       0       0       0       0
       0       0       0       0       0       0       0       0       0       0
       0       0       0       0       0       0       0       0       0       0
       0       0       0       0       0       0       0       0       0       0
       0       0       0       0       0       0       0       0       0       0
       0       0       0       0       0       0       0       0       0       0
       0       0       0       0       0       0       0       0       0       0
       0       0       0       0       0       0       0       0       0       0
       0       0       0       0       0       0       0       0       0       0
       0       0       0       0       0       0       0       0       0       0
       0       0       0       0       0       0       0       0       0       0
       0       0       0       0       0       0       0       0       0       0
       0       0       0       0       0       0       0       0       0       0
       0       0       0       0       0       0       0       0       0       0
       0       0       0       0       0       0       0       0       0       0
       0       0       0       0       0       0       0       0       0       0
       0       0       0       0       0       0       0       0       0       0
       0       0       0       0       0       0       0       0       0       0
       0       0       0       0       0       0       0       0       0       0
       0       0       0       0       0       0       0       0       0       0
       0       0       0       0       0       0       0       0       0       0
       0       0       0       0       0       0       0       0       0       0
       0       0       0       0       0       0       0       0       0       0
       0       0       0       0       0       0       0       0       0       0
       0       0       0       0       0       0       0       0       0       0
       0       0       0       0       0       0       0       0       0       0
       0       0       0       0       0       0       0       0       0       0
       0       0       0       0       0       0       0       0       0       0
       0       0       0       0       0       0       0       0       0       0
       0       0       0       0       0       0       0       0       0       0
       0       0       0       0       0       0       0       0       0       0
       0       0       0       0       0       0       0       0       0       0
       0       0       0       0       0       0       0       0       0       0
       0       0       0       0       0       0       0       0       0       0
       0       0       0       0       0       0       0       0       0       0
       0       0       0       0       0       0       0       0       0       0
       0       0       0       0       0       0       0       0       0       0
       0       0       0       0       0       0       0       0       0       0
       0       0       0       0       0       0       0       0       0       0
       0       0       0       0       0       0       0       0       0       0
       0       0       0       0       0       0       0       0       0       0
       0       0       0       0       0       0       0       0       0       0
       0       0       0       0       0       0       0       0       0       0
       0       0       0       0       0       0       0       0       0       0
       0       0       0       0       0       0       0       0       0       0
       0       0       0       0       0       0       0       0       0       0
       0       0       0       0       0       0       0       0       0       0
       0       0       0       0       0       0       0       0       0       0
       0       0       0       0       0       0       0       0       0       0
       0       0       0       0       0       0       0       0       0       0
       0       0       0       0       0       0       0       0       0       0
       0       0       0       0       0       0       0       0       0       0
       0       0       0       0       0       0       0       0       0       0
       0       0       0       0       0       0       0       0       0       0
       0       0       0       0       0       0       0       0       0       0
       0       0       0       0       0       0       0       0       0       0
       0       0       0       0       0       0       0       0       0       0
       0       0       0       0       0       0       0       0       0       0
       0       0       0       0       0       0       0       0       0       0
       0       0       0       0       0       0       0       0       0       0
       0       0       0       0       0       0       0       0       0       0
       0       0       0       0       0       0       0       0       0       0
       0       0       0       0       0       0       0       0       0       0
       0       0       0       0       0       0       0       0       0       0
       0       0       0       0       0       0       0       0       0       0
       0       0       0       0       0       0       0       0       0       0
       0       0       0       0       0       0       0       0       0       0
       0       0       0       0       0       0       0       0       0       0
       0       0       0       0       0       0       0       0       0       0
       0       0       0       0       0       0       0       0       0       0
       0       0       0       0       0       0       0       0       0       0
       0       0       0       0       0       0       0       0       0       0
       0       0       0       0       0       0       0       0       0       0
       0       0       0       0       0       0       0       0       0       0
       0       0       0       0       0       0       0       0       0       0
       0       0       0       0       0       0       0       0       0       0
       0       0       0       0       0       0       0       0       0       0
       0       0       0       0       0       0       0       0       0       0
       0       0       0       0       0       0       0       0       0       0
       0       0       0       0       0       0       0       0       0       0
       0       0       0       0       0       0       0       0       0       0
       0       0       0       0       0       0       0       0       0       0
       0       0       0       0       0       0       0       0       0       0
       0       0       0       0       0       0       0       0       0       0
       0       0       0       0       0       0       0       0       0       0
       0       0       0       0       0       0       0       0       0       0
       0       0       0       0       0       0       0       0       0       0
       0       0       0       0       0       0       0       0       0       0
       0       0       0       0       0       0       0       0       0       0
       0       0       0       0       0       0       0       0       0       0
       0       0       0       0       0       0       0       0       0       0
       0       0       0       0       0       0       0       0       0       0
       0       0       0       0       0       0       0       0       0       0
       0       0       0       0       0       0       0       0       0       0
       0       0       0       0       0       0       0       0       0       0
       0       0       0       0       0       0       0       0       0       0
       0       0       0       0       0       0       0       0       0       0
       0       0       0       0       0       0       0       0       0       0
       0       0       0       0       0       0       0       0       0       0
       0       0       0       0       0       0       0       0       0       0
       0       0       0       0       0       0       0       0       0       0
       0       0       0       0       0       0       0       0       0       0
       0       0       0       0       0       0       0       0       0       0
       0       0       0       0       0       0       0       0       0       0
       0       0       0       0       0       0       0       0       0       0
       0       0       0       0       0       0       0       0       0       0
       0       0       0       0       0       0       0       0       0       0
       0       0       0       0       0       0       0       0       0       0
       0       0       0       0       0       0       0       0       0       0
       0       0       0       0       0       0       0       0       0       0
       0       0       0       0       0       0       0       0       0       0
       0       0       0       0       0       0       0       0       0       0
       0       0       0       0       0       0       0       0       0       0
       0       0       0       0       0       0       0       0       0       0
       0       0       0       0       0       0       0       0       0       0
       0       0       0       0       0       0       0       0       0       0
       0       0       0       0       0       0       0       0       0       0
       0       0       0       0       0       0       0       0       0       0
       0       0       0       0       0       0       0       0       0       0
       0       0       0       0       0       0       0       0       0       0
       0       0       0       0       0       0       0       0       0       0
       0       0       0       0       0       0       0       0       0       0
       0       0       0       0       0       0       0       0       0       0
       0       0       0       0       0       0       0       0       0       0
       0       0       0       0       0       0       0       0       0       0
       0       0       0       0       0       0       0       0       0       0
       0       0       0       0       0       0       0       0       0       0
       0       0       0       0       0       0       0       0       0       0
       0       0       0       0       0       0       0       0       0       0
       0       0       0       0       0       0       0       0       0       0
       0       0       0       0       0       0       0       0       0       0
       0       0       0       0       0       0       0       0       0       0
       0       0       0       0       0       0       0       0       0       0
       0       0       0       0       0       0       0       0       0       0
       0       0       0       0       0       0       0       0       0       0
       0       0       0       0       0       0       0       0       0       0
       0       0       0       0       0       0       0       0       0       0
       0       0       0       0       0       0       0       0       0       0
       0       0       0       0       0       0       0       0       0       0
       0       0       0       0       0       0       0       0       0       0
       0       0       0       0       0       0       0       0       0       0
       0       0       0       0       0       0       0       0       0       0
       0       0       0       0       0       0       0       0       0       0
       0       0       0       0       0       0       0       0       0       0
       0       0       0       0       0       0       0       0       0       0
       0       0       0       0       0       0       0       0       0       0
       0       0       0       0       0       0       0       0       0       0
       0       0       0       0       0       0       0       0       0       0
       0       0       0       0       0       0       0       0       0       0
       0       0       0       0       0       0       0       0       0       0
       0       0       0       0       0       0       0       0       0       0
       0       0       0       0       0       0       0       0       0       0
       0       0       0       0       0       0       0       0       0       0
       0       0       0       0       0       0       0       0       0       0
       0       0       0       0       0       0       0       0       0       0
       0       0       0       0       0       0       0       0       0       0
       0       0       0       0       0       0       0       0       0       0
       0       0       0       0       0       0       0       0       0       0
       0       0       0       0       0       0       0       0       0       0
       0       0       0       0       0       0       0       0       0       0
       0       0       0       0       0       0       0       0       0       0
       0       0       0       0       0       0       0       0       0       0
       0       0       0       0       0       0       0       0       0       0
       0       0       0       0       0       0       0       0       0       0
       0       0       0       0       0       0       0       0       0       0
       0       0       0       0       0       0       0       0       0       0
       0       0       0       0       0       0       0       0       0       0
       0       0       0       0       0       0       0       0       0       0
       0       0       0       0       0       0       0       0       0       0
       0       0       0       0       0       0       0       0       0       0
       0       0       0       0       0       0       0       0       0       0
       0       0       0       0       0       0       0       0       0       0
       0       0       0       0       0       0       0       0       0       0
       0       0       0       0       0       0       0       0       0       0
       0       0       0       0       0       0       0       0       0       0
       0       0       0       0       0       0       0       0       0       0
       0       0       0       0       0       0       0       0       0       0
       0       0       0       0       0       0       0       0       0       0
       0       0       0       0       0       0       0       0       0       0
       0       0       0       0       0       0       0       0       0       0
       0       0       0       0       0       0       0       0       0       0
       0       0       0       0       0       0       0       0       0       0
       0       0       0       0       0       0       0       0       0       0
       0       0       0       0       0       0       0       0       0       0
       0       0       0       0       0       0       0       0       0       0
       0       0       0       0       0       0       0       0       0       0
       0       0       0       0       0       0       0       0       0       0
       0       0       0       0       0       0       0       0       0       0
       0       0       0       0       0       0       0       0       0       0
       0       0       0       0       0       0       0       0       0       0
       0       0       0       0       0       0       0       0       0       0
       0       0       0       0       0       0       0       0       0       0
       0       0       0       0       0       0       0       0       0       0
       0       0       0       0       0       0       0       0       0       0
       0       0       0       0       0       0       0       0       0       0
       0       0       0       0       0       0       0       0       0       0
       0       0       0       0       0       0       0       0       0       0
       0       0       0       0       0       0       0       0       0       0
       0       0       0       0       0       0       0       0       0       0
       0       0       0       0       0       0       0       0       0       0
       0       0       0       0       0       0       0       0       0       0
       0       0       0       0       0       0       0       0       0       0
       0       0       0       0       0       0       0       0       0       0
       0       0       0       0       0       0       0       0       0       0
       0       0       0       0       0       0       0       0       0       0
       0       0       0       0       0       0       0       0       0       0
       0       0       0       0       0       0       0       0       0       0
       0       0       0       0       0       0       0       0       0       0
       0       0       0       0       0       0       0       0       0       0
       0       0       0       0       0       0       0       0       0       0
       0       0       0       0       0       0       0       0       0       0
       0       0       0       0       0       0       0       0       0       0
       0       0       0       0       0       0       0       0       0       0
       0       0       0       0       0       0       0       0       0       0
       0       0       0       0       0       0       0       0       0       0
       0       0       0       0       0       0       0       0       0       0
       0       0       0       0       0       0       0       0       0       0
       0       0       0       0       0       0       0       0       0       0
       0       0       0       0       0       0       0       0       0       0
       0       0       0       0       0       0       0       0       0       0
       0       0       0       0       0       0       0       0       0       0
       0       0       0       0       0       0       0       0       0       0
       0       0       0       0       0       0       0       0       0       0
       0       0       0       0       0       0       0       0       0       0
       0       0       0       0       0       0       0       0       0       0
       0       0       0       0       0       0       0       0       0       0
       0       0       0       0       0       0       0       0       0       0
       0       0       0       0       0       0       0       0       0       0
       0       0       0       0       0       0       0       0       0       0
       0       0       0       0       0       0       0       0       0       0
       0       0       0       0       0       0       0       0       0       0
       0       0       0       0       0       0       0       0       0       0
       0       0       0       0       0       0       0       0       0       0
       0       0       0       0       0       0       0       0       0       0
       0       0       0       0       0       0       0       0       0       0
       0       0       0       0       0       0       0       0       0       0
       0       0       0       0       0       0       0       0       0       0
       0       0       0       0       0       0       0       0       0       0
       0       0       0       0       0       0       0       0       0       0
       0       0       0       0       0       0       0       0       0       0
       0       0       0       0       0       0       0       0       0       0
       0       0       0       0       0       0       0       0       0       0
       0       0       0       0       0       0       0       0       0       0
       0       0       0       0       0       0       0       0       0       0
       0       0       0       0       0       0       0       0       0       0
       0       0       0       0       0       0       0       0       0       0
       0       0       0       0       0       0       0       0       0       0
       0       0       0       0       0       0       0       0       0       0
       0       0       0       0       0       0       0       0       0       0
       0       0       0       0       0       0       0       0       0       0
       0       0       0       0       0       0       0       0       0       0
       0       0       0       0       0       0       0       0       0       0
       0       0       0       0       0       0       0       0       0       0
       0       0       0       0       0       0       0       0       0       0
       0       0       0       0       0       0       0       0       0       0
       0       0       0       0       0       0       0       0       0       0
       0       0       0       0       0       0       0       0       0       0
       0       0       0       0       0       0       0       0       0       0
       0       0       0       0       0       0       0       0       0       0
       0       0       0       0       0       0       0       0       0       0
       0       0       0       0       0       0       0       0       0       0
       0       0       0       0       0       0       0       0       0       0
       0       0       0       0       0       0       0       0       0       0
       0       0       0       0       0       0       0       0       0       0
       0       0       0       0       0       0       0       0       0       0
       0       0       0       0       0       0       0       0       0       0
       0       0       0       0       0       0       0       0       0       0
       0       0       0       0       0       0       0       0       0       0
       0       0       0       0       0       0       0       0       0       0
       0       0       0       0       0       0       0       0       0       0
       0       0       0       0       0       0       0       0       0       0
       0       0       0       0       0       0       0       0       0       0
       0       0       0       0       0       0       0       0       0       0
       0       0       0       0       0       0       0       0       0       0
       0       0       0       0       0       0       0       0       0       0
       0       0       0       0       0       0       0       0       0       0
       0       0       0       0       0       0       0       0       0       0
       0       0       0       0       0       0       0       0       0       0
       0       0       0       0       0       0       0       0       0       0
       0       0       0       0       0       0       0       0       0       0
       0       0       0       0       0       0       0       0       0       0
       0       0       0       0       0       0       0       0       0       0
       0       0       0       0       0       0       0       0       0       0
       0       0       0       0       0       0       0       0       0       0
       0       0       0       0       0       0       0       0       0       0
       0       0       0       0       0       0       0       0       0       0
       0       0       0       0       0       0       0       0       0       0
       0       0       0       0       0       0       0       0       0       0
       0       0       0       0       0       0       0       0       0       0
       0       0       0       0       0       0       0       0       0       0
       0       0       0       0       0       0       0       0       0       0
       0       0       0       0       0       0       0       0       0       0
       0       0       0       0       0       0       0       0       0       0
       0       0       0       0       0       0       0       0       0       0
       0       0       0       0       0       0       0       0       0       0
       0       0       0       0       0       0       0       0       0       0
       0       0       0       0       0       0       0       0       0       0
       0       0       0       0       0       0       0       0       0       0
       0       0       0       0       0       0       0       0       0       0
       0       0       0       0       0       0       0       0       0       0
       0       0       0       0       0       0       0       0       0       0
       0       0       0       0       0       0       0       0       0       0
       0       0       0       0       0       0       0       0       0       0
       0       0       0       0       0       0       0       0       0       0
       0       0       0       0       0       0       0       0       0       0
       0       0       0       0       0       0       0       0       0       0
       0       0       0       0       0       0       0       0       0       0
       0       0       0       0       0       0       0       0       0       0
       0       0       0       0       0       0       0       0       0       0
       0       0       0       0       0       0       0       0       0       0
       0       0       0       0       0       0       0       0       0       0
       0       0       0       0       0       0       0       0       0       0
       0       0       0       0       0       0       0       0       0       0
       0       0       0       0       0       0       0       0       0       0
       0       0       0       0       0       0       0       0       0       0
       0       0       0       0       0       0       0       0       0       0
       0       0       0       0       0       0       0       0       0       0
       0       0       0       0       0       0       0       0       0       0
       0       0       0       0       0       0       0       0       0       0
       0       0       0       0       0       0       0       0       0       0
       0       0       0       0       0       0       0       0       0       0
       0       0       0       0       0       0       0       0       0       0
       0       0       0       0       0       0       0       0       0       0
       0       0       0       0       0       0       0       0       0       0
       0       0       0       0       0       0       0       0       0       0
       0       0       0       0       0       0       0       0       0       0
       0       0       0       0       0       0       0       0       0       0
       0       0       0       0       0       0       0       0       0       0
       0       0       0       0       0       0       0       0       0       0
       0       0       0       0       0       0       0       0       0       0
       0       0       0       0       0       0       0       0       0       0
       0       0       0       0       0       0       0       0       0       0
       0       0       0       0       0       0       0       0       0       0
       0       0       0       0       0       0       0       0       0       0
       0       0       0       0       0       0       0       0       0       0
       0       0       0       0       0       0       0       0       0       0
       0       0       0       0       0       0       0       0       0       0
       0       0       0       0       0       0       0       0       0       0
       0       0       0       0       0       0       0       0       0       0
       0       0       0       0       0       0       0       0       0       0
       0       0       0       0       0       0       0       0       0       0
       0       0       0       0       0       0       0       0       0       0
       0       0       0       0       0       0       0       0       0       0
       0       0       0       0       0       0       0       0       0       0
       0       0       0       0       0       0       0       0       0       0
       0       0       0       0       0       0       0       0       0       0
       0       0       0       0       0       0       0       0       0       0
       0       0       0       0       0       0       0       0       0       0
       0       0       0       0       0       0       0       0       0       0
       0       0       0       0       0       0       0       0       0       0
       0       0       0       0       0       0       0       0       0       0
       0       0       0       0       0       0       0       0       0       0
       0       0       0       0       0       0       0       0       0       0
       0       0       0       0       0       0       0       0       0       0
       0       0       0       0       0       0       0       0       0       0
       0       0       0       0       0       0       0       0       0       0
       0       0       0       0       0       0       0       0       0       0
       0       0       0       0       0       0       0       0       0       0
       0       0       0       0       0       0       0       0       0       0
       0       0       0       0       0       0       0       0       0       0
       0       0       0       0       0       0       0       0       0       0
       0       0       0       0       0       0       0       0       0       0
       0       0       0       0       0       0       0       0       0       0
       0       0       0       0       0       0       0       0       0       0
       0       0       0       0       0       0       0       0       0       0
       0       0       0       0       0       0       0       0       0       0
       0       0       0       0       0       0       0       0       0       0
       0       0       0       0       0       0       0       0       0       0
       0       0       0       0       0       0       0       0       0       0
       0       0       0       0       0       0       0       0       0       0
       0       0       0       0       0       0       0       0       0       0
       0       0       0       0       0       0       0       0       0       0
       0       0       0       0       0       0       0       0       0       0
       0       0       0       0       0       0       0       0       0       0
       0       0       0       0       0       0       0       0       0       0
       0       0       0       0       0       0       0       0       0       0
       0       0       0       0       0       0       0       0       0       0
       0       0       0       0       0       0       0       0       0       0
       0       0       0       0       0       0       0       0       0       0
       0       0       0       0       0       0       0       0       0       0
       0       0       0       0       0       0       0       0       0       0
       0       0       0       0       0       0       0       0       0       0
       0       0       0       0       0       0       0       0       0       0
       0       0       0       0       0       0       0       0       0       0
       0       0       0       0       0       0       0       0       0       0
       0       0       0       0       0       0       0       0       0       0
       0       0       0       0       0       0       0       0       0       0
       0       0       0       0       0       0       0       0       0       0
       0       0       0       0       0       0       0       0       0       0
       0       0       0       0       0       0       0       0       0       0
       0       0       0       0       0       0       0       0       0       0
       0       0       0       0       0       0       0       0       0       0
       0       0       0       0       0       0       0       0       0       0
       0       0       0       0       0       0       0       0       0       0
       0       0       0       0       0       0       0       0       0       0
       0       0       0       0       0       0       0       0       0       0
       0       0       0       0       0       0       0       0       0       0
       0       0       0       0       0       0       0       0       0       0
       0       0       0       0       0       0       0       0       0       0
       0       0       0       0       0       0       0       0       0       0
       0       0       0       0       0       0       0       0       0       0
       0       0       0       0       0       0       0       0       0       0
       0       0       0       0       0       0       0       0       0       0
       0       0       0       0       0       0       0       0       0       0
       0       0       0       0       0       0       0       0       0       0
       0       0       0       0       0       0       0       0       0       0
       0       0       0       0       0       0       0       0       0       0
       0       0       0       0       0       0       0       0       0       0
       0       0       0       0       0       0       0       0       0       0
       0       0       0       0       0       0       0       0       0       0
       0       0       0       0       0       0       0       0       0       0
       0       0       0       0       0       0       0       0       0       0
       0       0       0       0       0       0       0       0       0       0
       0       0       0       0       0       0       0       0       0       0
       0       0       0       0       0       0       0       0       0       0
       0       0       0       0       0       0       0       0       0       0
       0       0       0       0       0       0       0       0       0       0
       0       0       0       0       0       0       0       0       0       0
       0       0       0       0       0       0       0       0       0       0
       0       0       0       0       0       0       0       0       0       0
       0       0       0       0       0       0       0       0       0       0
       0       0       0       0       0       0       0       0       0       0
       0       0       0       0       0       0       0       0       0       0
       0       0       0       0       0       0       0       0       0       0
       0       0       0       0       0       0       0       0       0       0
       0       0       0       0       0       0       0       0       0       0
       0       0       0       0       0       0       0       0       0       0
       0       0       0       0       0       0       0       0       0       0
       0       0       0       0       0       0       0       0       0       0
       0       0       0       0       0       0       0       0       0       0
       0       0       0       0       0       0       0       0       0       0
       0       0       0       0       0       0       0       0       0       0
       0       0       0       0       0       0       0       0       0       0
       0       0       0       0       0       0       0       0       0       0
       0       0       0       0       0       0       0       0       0       0
       0       0       0       0       0       0       0       0       0       0
       0       0       0       0       0       0       0       0       0       0
       0       0       0       0       0       0       0       0       0       0
       0       0       0       0       0       0       0       0       0       0
       0       0       0       0       0       0       0       0       0       0
       0       0       0       0       0       0       0       0       0       0
       0       0       0       0       0       0       0       0       0       0
       0       0       0       0       0       0       0       0       0       0
       0       0       0       0       0       0       0       0       0       0
       0       0       0       0       0       0       0       0       0       0
       0       0       0       0       0       0       0       0       0       0
       0       0       0       0       0       0       0       0       0       0
       0       0       0       0       0       0       0       0       0       0
       0       0       0       0       0       0       0       0       0       0
       0       0       0       0       0       0       0       0       0       0
       0       0       0       0       0       0       0       0       0       0
       0       0       0       0       0       0       0       0       0       0
       0       0       0       0       0       0       0       0       0       0
       0       0       0       0       0       0       0       0       0       0
       0       0       0       0       0       0       0       0       0       0
       0       0       0       0       0       0       0       0       0       0
       0       0       0       0       0       0       0       0       0       0
       0       0       0       0       0       0       0       0       0       0
       0       0       0       0       0       0       0       0       0       0
       0       0       0       0       0       0       0       0       0       0
       0       0       0       0       0       0       0       0       0       0
       0       0       0       0       0       0       0       0       0       0
       0       0       0       0       0       0       0       0       0       0
       0       0       0       0       0       0       0       0       0       0
       0       0       0       0       0       0       0       0       0       0
       0       0       0       0       0       0       0       0       0       0
       0       0       0       0       0       0       0       0       0       0
       0       0       0       0       0       0       0       0       0       0
       0       0       0       0       0       0       0       0       0       0
       0       0       0       0       0       0       0       0       0       0
       0       0       0       0       0       0       0       0       0       0
       0       0       0       0       0       0       0       0       0       0
       0       0       0       0       0       0       0       0       0       0
       0       0       0       0       0       0       0       0       0       0
       0       0       0       0       0       0       0       0       0       0
       0       0       0       0       0       0       0       0       0       0
       0       0       0       0       0       0       0       0       0       0
       0       0       0       0       0       0       0       0       0       0
       0       0       0       0       0       0       0       0       0       0
       0       0       0       0       0       0       0       0       0       0
       0       0       0       0       0       0       0       0       0       0
       0       0       0       0       0       0       0       0       0       0
       0       0       0       0       0       0       0       0       0       0
       0       0       0       0       0       0       0       0       0       0
       0       0       0       0       0       0       0       0       0       0
       0       0       0       0       0       0       0       0       0       0
       0       0       0       0       0       0       0       0       0       0
       0       0       0       0       0       0       0       0       0       0
       0       0       0       0       0       0       0       0       0       0
       0       0       0       0       0       0       0       0       0       0
       0       0       0       0       0       0       0       0       0       0
       0       0       0       0       0       0       0       0       0       0
       0       0       0       0       0       0       0       0       0       0
       0       0       0       0       0       0       0       0       0       0
       0       0       0       0       0       0       0       0       0       0
       0       0       0       0       0       0       0       0       0       0
       0       0       0       0       0       0       0       0       0       0
       0       0       0       0       0       0       0       0       0       0
       0       0       0       0       0       0       0       0       0       0
       0       0       0       0       0       0       0       0       0       0
       0       0       0       0       0       0       0       0       0       0
       0       0       0       0       0       0       0       0       0       0
       0       0       0       0       0       0       0       0       0       0
       0       0       0       0       0       0       0       0       0       0
       0       0       0       0       0       0       0       0       0       0
       0       0       0       0       0       0       0       0       0       0
       0       0       0       0       0       0       0       0       0       0
       0       0       0       0       0       0       0       0       0       0
       0       0       0       0       0       0       0       0       0       0
       0       0       0       0       0       0       0       0       0       0
       0       0       0       0       0       0       0       0       0       0
       0       0       0       0       0       0       0       0       0       0
       0       0       0       0       0       0       0       0       0       0
       0       0       0       0       0       0       0       0       0       0
       0       0       0       0       0       0       0       0       0       0
       0       0       0       0       0       0       0       0       0       0
       0       0       0       0       0       0       0       0       0       0
       0       0       0       0       0       0       0       0       0       0
       0       0       0       0       0       0       0       0       0       0
       0       0       0       0       0       0       0       0       0       0
       0       0       0       0       0       0       0       0       0       0
       0       0       0       0       0       0       0       0       0       0
       0       0       0       0       0       0       0       0       0       0
       0       0       0       0       0       0       0       0       0       0
       0       0       0       0       0       0       0       0       0       0
       0       0       0       0       0       0       0       0       0       0
       0       0       0       0       0       0       0       0       0       0
       0       0       0       0       0       0       0       0       0       0
       0       0       0       0       0       0       0       0       0       0
       0       0       0       0       0       0       0       0       0       0
       0       0       0       0       0       0       0       0       0       0
       0       0       0       0       0       0       0       0       0       0
       0       0       0       0       0       0       0       0       0       0
       0       0       0       0       0       0       0       0       0       0
       0       0       0       0       0       0       0       0       0       0
       0       0       0       0       0       0       0       0       0       0
       0       0       0       0       0       0       0       0       0       0
       0       0       0       0       0       0       0       0       0       0
       0       0       0       0       0       0       0       0       0       0
       0       0       0       0       0       0       0       0       0       0
       0       0       0       0       0       0       0       0       0       0
       0       0       0       0       0       0       0       0       0       0
       0       0       0       0       0       0       0       0       0       0
       0       0       0       0       0       0       0       0       0       0
       0       0       0       0       0       0       0       0       0       0
       0       0       0       0       0       0       0       0       0       0
       0       0       0       0       0       0       0       0       0       0
       0       0       0       0       0       0       0       0       0       0
       0       0       0       0       0       0       0       0       0       0
       0       0       0       0       0       0       0       0       0       0
       0       0       0       0       0       0       0       0       0       0
       0       0       0       0       0       0       0       0       0       0
       0       0       0       0       0       0       0       0       0       0
       0       0       0       0       0       0       0       0       0       0
       0       0       0       0       0       0       0       0       0       0
       0       0       0       0       0       0       0       0       0       0
       0       0       0       0       0       0       0       0       0       0
       0       0       0       0       0       0       0       0       0       0
       0       0       0       0       0       0       0       0       0       0
       0       0       0       0       0       0       0       0       0       0
       0       0       0       0       0       0       0       0       0       0
       0       0       0       0       0       0       0       0       0       0
       0       0       0       0       0       0       0       0       0       0
       0       0       0       0       0       0       0       0       0       0
       0       0       0       0       0       0       0       0       0       0
       0       0       0       0       0       0       0       0       0       0
       0       0       0       0       0       0       0       0       0       0
       0       0       0       0       0       0       0       0       0       0
       0       0       0       0       0       0       0       0       0       0
       0       0       0       0       0       0       0       0       0       0
       0       0       0       0       0       0       0       0       0       0
       0       0       0       0       0       0       0       0       0       0
       0       0       0       0       0       0       0       0       0       0
       0       0       0       0       0       0       0       0       0       0
       0       0       0       0       0       0       0       0       0       0
       0       0       0       0       0       0       0       0       0       0
       0       0       0       0       0       0       0       0       0       0
       0       0       0       0       0       0       0       0       0       0
       0       0       0       0       0       0       0       0       0       0
       0       0       0       0       0       0       0       0       0       0
       0       0       0       0       0       0       0       0       0       0
       0       0       0       0       0       0       0       0       0       0
       0       0       0       0       0       0       0       0       0       0
       0       0       0       0       0       0       0       0       0       0
       0       0       0       0       0       0       0       0       0       0
       0       0       0       0       0       0       0       0       0       0
       0       0       0       0       0       0       0       0       0       0
       0       0       0       0       0       0       0       0       0       0
       0       0       0       0       0       0       0       0       0       0
       0       0       0       0       0       0       0       0       0       0
       0       0       0       0       0       0       0       0       0       0
       0       0       0       0       0       0       0       0       0       0
       0       0       0       0       0       0       0       0       0       0
       0       0       0       0       0       0       0       0       0       0
       0       0       0       0       0       0       0       0       0       0
       0       0       0       0       0       0       0       0       0       0
       0       0       0       0       0       0       0       0       0       0
       0       0       0       0       0       0       0       0       0       0
       0       0       0       0       0       0       0       0       0       0
       0       0       0       0       0       0       0       0       0       0
       0       0       0       0       0       0       0       0       0       0
       0       0       0       0       0       0       0       0       0       0
       0       0       0       0       0       0       0       0       0       0
       0       0       0       0       0       0       0       0       0       0
       0       0       0       0       0       0       0       0       0       0
       0       0       0       0       0       0       0       0       0       0
       0       0       0       0       0       0       0       0       0       0
       0       0       0       0       0       0       0       0       0       0
       0       0       0       0       0       0       0       0       0       0
       0       0       0       0       0       0       0       0       0       0
       0       0       0       0       0       0       0       0       0       0
       0       0       0       0       0       0       0       0       0       0
       0       0       0       0       0       0       0       0       0       0
       0       0       0       0       0       0       0       0       0       0
       0       0       0       0       0       0       0       0       0       0
       0       0       0       0       0       0       0       0       0       0
       0       0       0       0       0       0       0       0       0       0
       0       0       0       0       0       0       0       0       0       0
       0       0       0       0       0       0       0       0       0       0
       0       0       0       0       0       0       0       0       0       0
       0       0       0       0       0       0       0       0       0       0
       0       0       0       0       0       0       0       0       0       0
       0       0       0       0       0       0       0       0       0       0
       0       0       0       0       0       0       0       0       0       0
       0       0       0       0       0       0       0       0       0       0
       0       0       0       0       0       0       0       0       0       0
       0       0       0       0       0       0       0       0       0       0
       0       0       0       0       0       0       0       0       0       0
       0       0       0       0       0       0       0       0       0       0
       0       0       0       0       0       0       0       0       0       0
       0       0       0       0       0       0       0       0       0       0
       0       0       0       0       0       0       0       0       0       0
       0       0       0       0       0       0       0       0       0       0
       0       0       0       0       0       0       0       0       0       0
       0       0       0       0       0       0       0       0       0       0
       0       0       0       0       0       0       0       0       0       0
       0       0       0       0       0       0       0       0       0       0
       0       0       0       0       0       0       0       0       0       0
       0       0       0       0       0       0       0       0       0       0
       0       0       0       0       0       0       0       0       0       0
       0       0       0       0       0       0       0       0       0       0
       0       0       0       0       0       0       0       0       0       0
       0       0       0       0       0       0       0       0       0       0
       0       0       0       0       0       0       0       0       0       0
       0       0       0       0       0       0       0       0       0       0
       0       0       0       0       0       0       0       0       0       0
       0       0       0       0       0       0       0       0       0       0
       0       0       0       0       0       0       0       0       0       0
       0       0       0       0       0       0       0       0       0       0
       0       0       0       0       0       0       0       0       0       0
       0       0       0       0       0       0       0       0       0       0
       0       0       0       0       0       0       0       0       0       0
       0       0       0       0       0       0       0       0       0       0
       0       0       0       0       0       0       0       0       0       0
       0       0       0       0       0       0       0       0       0       0
       0       0       0       0       0       0       0       0       0       0
       0       0       0       0       0       0       0       0       0       0
       0       0       0       0       0       0       0       0       0       0
       0       0       0       0       0       0       0       0       0       0
       0       0       0       0       0       0       0       0       0       0
       0       0       0       0       0       0       0       0       0       0
       0       0       0       0       0       0       0       0       0       0
       0       0       0       0       0       0       0       0       0       0
       0       0       0       0       0       0       0       0       0       0
       0       0       0       0       0       0       0       0       0       0
       0       0       0       0       0       0       0       0       0       0
       0       0       0       0       0       0       0       0       0       0
       0       0       0       0       0       0       0       0       0       0
       0       0       0       0       0       0       0       0       0       0
       0       0       0       0       0       0       0       0       0       0
       0       0       0       0       0       0       0       0       0       0
       0       0       0       0       0       0       0       0       0       0
       0       0       0       0       0       0       0       0       0       0
       0       0       0       0       0       0       0       0       0       0
       0       0       0       0       0       0       0       0       0       0
       0       0       0       0       0       0       0       0       0       0
       0       0       0       0       0       0       0       0       0       0
       0       0       0       0       0       0       0       0       0       0
       0       0       0       0       0       0       0       0       0       0
       0       0       0       0       0       0       0       0       0       0
       0       0       0       0       0       0       0       0       0       0
       0       0       0       0       0       0       0       0       0       0
       0       0       0       0       0       0       0       0       0       0
       0       0       0       0       0       0       0       0       0       0
       0       0       0       0       0       0       0       0       0       0
       0       0       0       0       0       0       0       0       0       0
       0       0       0       0       0       0       0       0       0       0
       0       0       0       0       0       0       0       0       0       0
       0       0       0       0       0       0       0       0       0       0
       0       0       0       0       0       0       0       0       0       0
       0       0       0       0       0       0       0       0       0       0
       0       0       0       0       0       0       0       0       0       0
       0       0       0       0       0       0       0       0       0       0
       0       0       0       0       0       0       0       0       0       0
       0       0       0       0       0       0       0       0       0       0
       0       0       0       0       0       0       0       0       0       0
       0       0       0       0       0       0       0       0       0       0
       0       0       0       0       0       0       0       0       0       0
       0       0       0       0       0       0       0       0       0       0
       0       0       0       0       0       0       0       0       0       0
       0       0       0       0       0       0       0       0       0       0
       0       0       0       0       0       0       0       0       0       0
       0       0       0       0       0       0       0       0       0       0
       0       0       0       0       0       0       0       0       0       0
       0       0       0       0       0       0       0       0       0       0
       0       0       0       0       0       0       0       0       0       0
       0       0       0       0       0       0       0       0       0       0
       0       0       0       0       0       0       0       0       0       0
       0       0       0       0       0       0       0       0       0       0
       0       0       0       0       0       0       0       0       0       0
       0       0       0       0       0       0       0       0       0       0
       0       0       0       0       0       0       0       0       0       0
       0       0       0       0       0       0       0       0       0       0
       0       0       0       0       0       0       0       0       0       0
       0       0       0       0       0       0       0       0       0       0
       0       0       0       0       0       0       0       0       0       0
       0       0       0       0       0       0       0       0       0       0
       0       0       0       0       0       0       0       0       0       0
       0       0       0       0       0       0       0       0       0       0
       0       0       0       0       0       0       0       0       0       0
       0       0       0       0       0       0       0       0       0       0
       0       0       0       0       0       0       0       0       0       0
       0       0       0       0       0       0       0       0       0       0
       0       0       0       0       0       0       0       0       0       0
       0       0       0       0       0       0       0       0       0       0
       0       0       0       0       0       0       0       0       0       0
       0       0       0       0       0       0       0       0       0       0
       0       0       0       0       0       0       0       0       0       0
       0       0       0       0       0       0       0       0       0       0
       0       0       0       0       0       0       0       0       0       0
       0       0       0       0       0       0       0       0       0       0
       0       0       0       0       0       0       0       0       0       0
       0       0       0       0       0       0       0       0       0       0
       0       0       0       0       0       0       0       0       0       0
       0       0       0       0       0       0       0       0       0       0
       0       0       0       0       0       0       0       0       0       0
       0       0       0       0       0       0       0       0       0       0
       0       0       0       0       0       0       0       0       0       0
       0       0       0       0       0       0       0       0       0       0
       0       0       0       0       0       0       0       0       0       0
       0       0       0       0       0       0       0       0       0       0
       0       0       0       0       0       0       0       0       0       0
       0       0       0       0       0       0       0       0       0       0
       0       0       0       0       0       0       0       0       0       0
       0       0       0       0       0       0       0       0       0       0
       0       0       0       0       0       0       0       0       0       0
       0       0       0       0       0       0       0       0       0       0
       0       0       0       0       0       0       0       0       0       0
       0       0       0       0       0       0       0       0       0       0
       0       0       0       0       0       0       0       0       0       0
       0       0       0       0       0       0       0       0       0       0
       0       0       0       0       0       0       0       0       0       0
       0       0       0       0       0       0       0       0       0       0
       0       0       0       0       0       0       0       0       0       0
       0       0       0       0       0       0       0       0       0       0
       0       0       0       0       0       0       0       0       0       0
       0       0       0       0       0       0       0       0       0       0
       0       0       0       0       0       0       0       0       0       0
       0       0       0       0       0       0       0       0       0       0
       0       0       0       0       0       0       0       0       0       0
       0       0       0       0       0       0       0       0       0       0
       0       0       0       0       0       0       0       0       0       0
       0       0       0       0       0       0       0       0       0       0
       0       0       0       0       0       0       0       0       0       0
       0       0       0       0       0       0       0       0       0       0
       0       0       0       0       0       0       0       0       0       0
       0       0       0       0       0       0       0       0       0       0
       0       0       0       0       0       0       0       0       0       0
       0       0       0       0       0       0       0       0       0       0
       0       0       0       0       0       0       0       0       0       0
       0       0       0       0       0       0       0       0       0       0
       0       0       0       0       0       0       0       0       0       0
       0       0       0       0       0       0       0       0       0       0
       0       0       0       0       0       0       0       0       0       0
       0       0       0       0       0       0       0       0       0       0
       0       0       0       0       0       0       0       0       0       0
       0       0       0       0       0       0       0       0       0       0
       0       0       0       0       0       0       0       0       0       0
       0       0       0       0       0       0       0       0       0       0
       0       0       0       0       0       0       0       0       0       0
       0       0       0       0       0       0       0       0       0       0
       0       0       0       0       0       0       0       0       0       0
       0       0       0       0       0       0       0       0       0       0
       0       0       0       0       0       0       0       0       0       0
       0       0       0       0       0       0       0       0       0       0
       0       0       0       0       0       0       0       0       0       0
       0       0       0       0       0       0       0       0       0       0
       0       0       0       0       0       0       0       0       0       0
       0       0       0       0       0       0       0       0       0       0
       0       0       0       0       0       0       0       0       0       0
       0       0       0       0       0       0       0       0       0       0
       0       0       0       0       0       0       0       0       0       0
       0       0       0       0       0       0       0       0       0       0
       0       0       0       0       0       0       0       0       0       0
       0       0       0       0       0       0       0       0       0       0
       0       0       0       0       0       0       0       0       0       0
       0       0       0       0       0       0       0       0       0       0
       0       0       0       0       0       0       0       0       0       0
       0       0       0       0       0       0       0       0       0       0
       0       0       0       0       0       0       0       0       0       0
       0       0       0       0       0       0       0       0       0       0
       0       0       0       0       0       0       0       0       0       0
       0       0       0       0       0       0       0       0       0       0
       0       0       0       0       0       0       0       0       0       0
       0       0       0       0       0       0       0       0       0       0
       0       0       0       0       0       0       0       0       0       0
       0       0       0       0       0       0       0       0       0       0
       0       0       0       0       0       0       0       0       0       0
       0       0       0       0       0       0       0       0       0       0
       0       0       0       0       0       0       0       0       0       0
       0       0       0       0       0       0       0       0       0       0
       0       0       0       0       0       0       0       0       0       0
       0       0       0       0       0       0       0       0       0       0
       0       0       0       0       0       0       0       0       0       0
       0       0       0       0       0       0       0       0       0       0
       0       0       0       0       0       0       0       0       0       0
       0       0       0       0       0       0       0       0       0       0
       0       0       0       0       0       0       0       0       0       0
       0       0       0       0       0       0       0       0       0       0
       0       0       0       0       0       0       0       0       0       0
       0       0       0       0       0       0       0       0       0       0
       0       0       0       0       0       0       0       0       0       0
       0       0       0       0       0       0       0       0       0       0
       0       0       0       0       0       0       0       0       0       0
       0       0       0       0       0       0       0       0       0       0
       0       0       0       0       0       0       0       0       0       0
       0       0       0       0       0       0       0       0       0       0
       0       0       0       0       0       0       0       0       0       0
       0       0       0       0       0       0       0       0       0       0
       0       0       0       0       0       0       0       0       0       0
       0       0       0       0       0       0       0       0       0       0
       0       0       0       0       0       0       0       0       0       0
       0       0       0       0       0       0       0       0       0       0
       0       0       0       0       0       0       0       0       0       0
       0       0       0       0       0       0       0       0       0       0
       0       0       0       0       0       0       0       0       0       0
       0       0       0       0       0       0       0       0       0       0
       0       0       0       0       0       0       0       0       0       0
       0       0       0       0       0       0       0       0       0       0
       0       0       0       0       0       0       0       0       0       0
       0       0       0       0       0       0       0       0       0       0
       0       0       0       0       0       0       0       0       0       0
       0       0       0       0       0       0       0       0       0       0
       0       0       0       0       0       0       0       0       0       0
       0       0       0       0       0       0       0       0       0       0
       0       0       0       0       0       0       0       0       0       0
       0       0       0       0       0       0       0       0       0       0
       0       0       0       0       0       0       0       0       0       0
       0       0       0       0       0       0       0       0       0       0
       0       0       0       0       0       0       0       0       0       0
       0       0       0       0       0       0       0       0       0       0
       0       0       0       0       0       0       0       0       0       0
       0       0       0       0       0       0       0       0       0       0
       0       0       0       0       0       0       0       0       0       0
       0       0       0       0       0       0       0       0       0       0
       0       0       0       0       0       0       0       0       0       0
       0       0       0       0       0       0       0       0       0       0
       0       0       0       0       0       0       0       0       0       0
       0       0       0       0       0       0       0       0       0       0
       0       0       0       0       0       0       0       0       0       0
       0       0       0       0       0       0       0       0       0       0
       0       0       0       0       0       0       0       0       0       0
       0       0       0       0       0       0       0       0       0       0
       0       0       0       0       0       0       0       0       0       0
       0       0       0       0       0       0       0       0       0       0
       0       0       0       0       0       0       0       0       0       0
       0       0       0       0       0       0       0       0       0       0
       0       0       0       0       0       0       0       0       0       0
       0       0       0       0       0       0       0       0       0       0
       0       0       0       0       0       0       0       0       0       0
       0       0       0       0       0       0       0       0       0       0
       0       0       0       0       0       0       0       0       0       0
       0       0       0       0       0       0       0       0       0       0
       0       0       0       0       0       0       0       0       0       0
       0       0       0       0       0       0       0       0       0       0
       0       0       0       0       0       0       0       0       0       0
       0       0       0       0       0       0       0       0       0       0
       0       0       0       0       0       0       0       0       0       0
       0       0       0       0       0       0       0       0       0       0
       0       0       0       0       0       0       0       0       0       0
       0       0       0       0       0       0       0       0       0       0
       0       0       0       0       0       0       0       0       0       0
       0       0       0       0       0       0       0       0       0       0
       0       0       0       0       0       0       0       0       0       0
       0       0       0       0       0       0       0       0       0       0
       0       0       0       0       0       0       0       0       0       0
       0       0       0       0       0       0       0       0       0       0
       0       0       0       0       0       0       0       0       0       0
       0       0       0       0       0       0       0       0       0       0
       0       0       0       0       0       0       0       0       0       0
       0       0       0       0       0       0       0       0       0       0
       0       0       0       0       0       0       0       0       0       0
       0       0       0       0       0       0       0       0       0       0
       0       0       0       0       0       0       0       0       0       0
       0       0       0       0       0       0       0       0       0       0
       0       0       0       0       0       0       0       0       0       0
       0       0       0       0       0       0       0       0       0       0
       0       0       0       0       0       0       0       0       0       0
       0       0       0       0       0       0       0       0       0       0
       0       0       0       0       0       0       0       0       0       0
       0       0       0       0       0       0       0       0       0       0
       0       0       0       0       0       0       0       0       0       0
       0       0       0       0       0       0       0       0       0       0
       0       0       0       0       0       0       0       0       0       0
       0       0       0       0       0       0       0       0       0       0
       0       0       0       0       0       0       0       0       0       0
       0       0       0       0       0       0       0       0       0       0
       0       0       0       0       0       0       0       0       0       0
       0       0       0       0       0       0       0       0       0       0
       0       0       0       0       0       0       0       0       0       0
       0       0       0       0       0       0       0       0       0       0
       0       0       0       0       0       0       0       0       0       0
       0       0       0       0       0       0       0       0       0       0
       0       0       0       0       0       0       0       0       0       0
       0       0       0       0       0       0       0       0       0       0
       0       0       0       0       0       0       0       0       0       0
       0       0       0       0       0       0       0       0       0       0
       0       0       0       0       0       0       0       0       0       0
       0       0       0       0       0       0       0       0       0       0
       0       0       0       0       0       0       0       0       0       0
       0       0       0       0       0       0       0       0       0       0
       0       0       0       0       0       0       0       0       0       0
       0       0       0       0       0       0       0       0       0       0
       0       0       0       0       0       0       0       0       0       0
       0       0       0       0       0       0       0       0       0       0
       0       0       0       0       0       0       0       0       0       0
       0       0       0       0       0       0       0       0       0       0
       0       0       0       0       0       0       0       0       0       0
       0       0       0       0       0       0       0       0       0       0
       0       0       0       0       0       0       0       0       0       0
       0       0       0       0       0       0       0       0       0       0
       0       0       0       0       0       0       0       0       0       0
       0       0       0       0       0       0       0       0       0       0
       0       0       0       0       0       0       0       0       0       0
       0       0       0       0       0       0       0       0       0       0
       0       0       0       0       0       0       0       0       0       0
       0       0       0       0       0       0       0       0       0       0
       0       0       0       0       0       0       0       0       0       0
       0       0       0       0       0       0       0       0       0       0
       0       0       0       0       0       0       0       0       0       0
       0       0       0       0       0       0       0       0       0       0
       0       0       0       0       0       0       0       0       0       0
       0       0       0       0       0       0       0       0       0       0
       0       0       0       0       0       0       0       0       0       0
       0       0       0       0       0       0       0       0       0       0
       0       0       0       0       0       0       0       0       0       0
       0       0       0       0       0       0       0       0       0       0
       0       0       0       0       0       0       0       0       0       0
       0       0       0       0       0       0       0       0       0       0
       0       0       0       0       0       0       0       0       0       0
       0       0       0       0       0       0       0       0       0       0
       0       0       0       0       0       0       0       0       0       0
       0       0       0       0       0       0       0       0       0       0
       0       0       0       0       0       0       0       0       0       0
       0       0       0       0       0       0       0       0       0       0
       0       0       0       0       0       0       0       0       0       0
       0       0       0       0       0       0       0       0       0       0
       0       0       0       0       0       0       0       0       0       0
       0       0       0       0       0       0       0       0       0       0
       0       0       0       0       0       0       0       0       0       0
       0       0       0       0       0       0       0       0       0       0
       0       0       0       0       0       0       0       0       0       0
       0       0       0       0       0       0       0       0       0       0
       0       0       0       0       0       0       0       0       0       0
       0       0       0       0       0       0       0       0       0       0
       0       0       0       0       0       0       0       0       0       0
       0       0       0       0       0       0       0       0       0       0
       0       0       0       0       0       0       0       0       0       0
       0       0       0       0       0       0       0       0       0       0
       0       0       0       0       0       0       0       0       0       0
       0       0       0       0       0       0       0       0       0       0
       0       0       0       0       0       0       0       0       0       0
       0       0       0       0       0       0       0       0       0       0
       0       0       0       0       0       0       0       0       0       0
       0       0       0       0       0       0       0       0       0       0
       0       0       0       0       0       0       0       0       0       0
       0       0       0       0       0       0       0       0       0       0
       0       0       0       0       0       0       0       0       0       0
       0       0       0       0       0       0       0       0       0       0
       0       0       0       0       0       0       0       0       0       0
       0       0       0       0       0       0       0       0       0       0
       0       0       0       0       0       0       0       0       0       0
       0       0       0       0       0       0       0       0       0       0
       0       0       0       0       0       0       0       0       0       0
       0       0       0       0       0       0       0       0       0       0
       0       0       0       0       0       0       0       0       0       0
       0       0       0       0       0       0       0       0       0       0
       0       0       0       0       0       0       0       0       0       0
       0       0       0       0       0       0       0       0       0       0
       0       0       0       0       0       0       0       0       0       0
       0       0       0       0       0       0       0       0       0       0
       0       0       0       0       0       0       0       0       0       0
       0       0       0       0       0       0       0       0       0       0
       0       0       0       0       0       0       0       0       0       0
       0       0       0       0       0       0       0       0       0       0
       0       0       0       0       0       0       0       0       0       0
       0       0       0       0       0       0       0       0       0       0
       0       0       0       0       0       0       0       0       0       0
       0       0       0       0       0       0       0       0       0       0
       0       0       0       0       0       0       0       0       0       0
       0       0       0       0       0       0       0       0       0       0
       0       0       0       0       0       0       0       0       0       0
       0       0       0       0       0       0       0       0       0       0
       0       0       0       0       0       0       0       0       0       0
       0       0       0       0       0       0       0       0       0       0
       0       0       0       0       0       0       0       0       0       0
       0       0       0       0       0       0       0       0       0       0
       0       0       0       0       0       0       0       0       0       0
       0       0       0       0       0       0       0       0       0       0
       0       0       0       0       0       0       0       0       0       0
       0       0       0       0       0       0       0       0       0       0
       0       0       0       0       0       0       0       0       0       0
       0       0       0       0       0       0       0       0       0       0
       0       0       0       0       0       0       0       0       0       0
       0       0       0       0       0       0       0       0       0       0
       0       0       0       0       0       0       0       0       0       0
       0       0       0       0       0       0       0       0       0       0
       0       0       0       0       0       0       0       0       0       0
       0       0       0       0       0       0       0       0       0       0
       0       0       0       0       0       0       0       0       0       0
       0       0       0       0       0       0       0       0       0       0
       0       0       0       0       0       0       0       0       0       0
       0       0       0       0       0       0       0       0       0       0
       0       0       0       0       0       0       0       0       0       0
       0       0       0       0       0       0       0       0       0       0
       0       0       0       0       0       0       0       0       0       0
       0       0       0       0       0       0       0       0       0       0
       0       0       0       0       0       0       0       0       0       0
       0       0       0       0       0       0       0       0       0       0
       0       0       0       0       0       0       0       0       0       0
       0       0       0       0       0       0       0       0       0       0
       0       0       0       0       0       0       0       0       0       0
       0       0       0       0       0       0       0       0       0       0
       0       0       0       0       0       0       0       0       0       0
       0       0       0       0       0       0       0       0       0       0
       0       0       0       0       0       0       0       0       0       0
       0       0       0       0       0       0       0       0       0       0
       0       0       0       0       0       0       0       0       0       0
       0       0       0       0       0       0       0       0       0       0
       0       0       0       0       0       0       0       0       0       0
       0       0       0       0       0       0       0       0       0       0
       0       0       0       0       0       0       0       0       0       0
       0       0       0       0       0       0       0       0       0       0
       0       0       0       0       0       0       0       0       0       0
       0       0       0       0       0       0       0       0       0       0
       0       0       0       0       0       0       0       0       0       0
       0       0       0       0       0       0       0       0       0       0
       0       0       0       0       0       0       0       0       0       0
       0       0       0       0       0       0       0       0       0       0
       0       0       0       0       0       0       0       0       0       0
       0       0       0       0       0       0       0       0       0       0
       0       0       0       0       0       0       0       0       0       0
       0       0       0       0       0       0       0       0       0       0
       0       0       0       0       0       0       0       0       0       0
       0       0       0       0       0       0       0       0       0       0
       0       0       0       0       0       0       0       0       0       0
       0       0       0       0       0       0       0       0       0       0
       0       0       0       0       0       0       0       0       0       0
       0       0       0       0       0       0       0       0       0       0
       0       0       0       0       0       0       0       0       0       0
       0       0       0       0       0       0       0       0       0       0
       0       0       0       0       0       0       0       0       0       0
       0       0       0       0       0       0       0       0       0       0
       0       0       0       0       0       0       0       0       0       0
       0       0       0       0       0       0       0       0       0       0
       0       0       0       0       0       0       0       0       0       0
       0       0       0       0       0       0       0       0       0       0
       0       0       0       0       0       0       0       0       0       0
       0       0       0       0       0       0       0       0       0       0
       0       0       0       0       0       0       0       0       0       0
       0       0       0       0       0       0       0       0       0       0
       0       0       0       0       0       0       0       0       0       0
       0       0       0       0       0       0       0       0       0       0
       0       0       0       0       0       0       0       0       0       0
       0       0       0       0       0       0       0       0       0       0
       0       0       0       0       0       0       0       0       0       0
       0       0       0       0       0       0       0       0       0       0
       0       0       0       0       0       0       0       0       0       0
       0       0       0       0       0       0       0       0       0       0
       0       0       0       0       0       0       0       0       0       0
       0       0       0       0       0       0       0       0       0       0
       0       0       0       0       0       0       0       0       0       0
       0       0       0       0       0       0       0       0       0       0
       0       0       0       0       0       0       0       0       0       0
       0       0       0       0       0       0       0       0       0       0
       0       0       0       0       0       0       0       0       0       0
       0       0       0       0       0       0       0       0       0       0
       0       0       0       0       0       0       0       0       0       0
       0       0       0       0       0       0       0       0       0       0
       0       0       0       0       0       0       0       0       0       0
       0       0       0       0       0       0       0       0       0       0
       0       0       0       0       0       0       0       0       0       0
       0       0       0       0       0       0       0       0       0       0
       0       0       0       0       0       0       0       0       0       0
       0       0       0       0       0       0       0       0       0       0
       0       0       0       0       0       0       0       0       0       0
       0       0       0       0       0       0       0       0       0       0
       0       0       0       0       0       0       0       0       0       0
       0       0       0       0       0       0       0       0       0       0
       0       0       0       0       0       0       0       0       0       0
       0       0       0       0       0       0       0       0       0       0
       0       0       0       0       0       0       0       0       0       0
       0       0       0       0       0       0       0       0       0       0
       0       0       0       0       0       0       0       0       0       0
       0       0       0       0       0       0       0       0       0       0
       0       0       0       0       0       0       0       0       0       0
       0       0       0       0       0       0       0       0       0       0
       0       0       0       0       0       0       0       0       0       0
       0       0       0       0       0       0       0       0       0       0
       0       0       0       0       0       0       0       0       0       0
       0       0       0       0       0       0       0       0       0       0
       0       0       0       0       0       0       0       0       0       0
       0       0       0       0       0       0       0       0       0       0
       0       0       0       0       0       0       0       0       0       0
       0       0       0       0       0       0       0       0       0       0
       0       0       0       0       0       0       0       0       0       0
       0       0       0       0       0       0       0       0       0       0
       0       0       0       0       0       0       0       0       0       0
       0       0       0       0       0       0       0       0       0       0
       0       0       0       0       0       0       0       0       0       0
       0       0       0       0       0       0       0       0       0       0
       0       0       0       0       0       0       0       0       0       0
       0       0       0       0       0       0       0       0       0       0
       0       0       0       0       0       0       0       0       0       0
       0       0       0       0       0       0       0       0       0       0
       0       0       0       0       0       0       0       0       0       0
       0       0       0       0       0       0       0       0       0       0
       0       0       0       0       0       0       0       0       0       0
       0       0       0       0       0       0       0       0       0       0
       0       0       0       0       0       0       0       0       0       0
       0       0       0       0       0       0       0       0       0       0
       0       0       0       0       0       0       0       0       0       0
       0       0       0       0       0       0       0       0       0       0
       0       0       0       0       0       0       0       0       0       0
       0       0       0       0       0       0       0       0       0       0
       0       0       0       0       0       0       0       0       0       0
       0       0       0       0       0       0       0       0       0       0
       0       0       0       0       0       0       0       0       0       0
       0       0       0       0       0       0       0       0       0       0
       0       0       0       0       0       0       0       0       0       0
       0       0       0       0       0       0       0       0       0       0
       0       0       0       0       0       0       0       0       0       0
       0       0       0       0       0       0       0       0       0       0
       0       0       0       0       0       0       0       0       0       0
       0       0       0       0       0       0       0       0       0       0
       0       0       0       0       0       0       0       0       0       0
       0       0       0       0       0       0       0       0       0       0
       0       0       0       0       0       0       0       0       0       0
       0       0       0       0       0       0       0       0       0       0
       0       0       0       0       0       0       0       0       0       0
       0       0       0       0       0       0       0       0       0       0
       0       0       0       0       0       0       0       0       0       0
       0       0       0       0       0       0       0       0       0       0
       0       0       0       0       0       0       0       0       0       0
       0       0       0       0       0       0       0       0       0       0
       0       0       0       0       0       0       0       0       0       0
       0       0       0       0       0       0       0       0       0       0
       0       0       0       0       0       0       0       0       0       0
       0       0       0       0       0       0       0       0       0       0
       0       0       0       0       0       0       0       0       0       0
       0       0       0       0       0       0       0       0       0       0
       0       0       0       0       0       0       0       0       0       0
       0       0       0       0       0       0       0       0       0       0
       0       0       0       0       0       0       0       0       0       0
       0       0       0       0       0       0       0       0       0       0
       0       0       0       0       0       0       0       0       0       0
       0       0       0       0       0       0       0       0       0       0
       0       0       0       0       0       0       0       0       0       0
       0       0       0       0       0       0       0       0       0       0
       0       0       0       0       0       0       0       0       0       0
       0       0       0       0       0       0       0       0       0       0
       0       0       0       0       0       0       0       0       0       0
       0       0       0       0       0       0       0       0       0       0
       0       0       0       0       0       0       0       0       0       0
       0       0       0       0       0       0       0       0       0       0
       0       0       0       0       0       0       0       0       0       0
       0       0       0       0       0       0       0       0       0       0
       0       0       0       0       0       0       0       0       0       0
       0       0       0       0       0       0       0       0       0       0
       0       0       0       0       0       0       0       0       0       0
       0       0       0       0       0       0       0       0       0       0
       0       0       0       0       0       0       0       0       0       0
       0       0       0       0       0       0       0       0       0       0
       0       0       0       0       0       0       0       0       0       0
       0       0       0       0       0       0       0       0       0       0
       0       0       0       0       0       0       0       0       0       0
       0       0       0       0       0       0       0       0       0       0
       0       0       0       0       0       0       0       0       0       0
       0       0       0       0       0       0       0       0       0       0
       0       0       0       0       0       0       0       0       0       0
       0       0       0       0       0       0       0       0       0       0
       0       0       0       0       0       0       0       0       0       0
       0       0       0       0       0       0       0       0       0       0
       0       0       0       0       0       0       0       0       0       0
       0       0       0       0       0       0       0       0       0       0
       0       0       0       0       0       0       0       0       0       0
       0       0       0       0       0       0       0       0       0       0
       0       0       0       0       0       0       0       0       0       0
       0       0       0       0       0       0       0       0       0       0
       0       0       0       0       0       0       0       0       0       0
       0       0       0       0       0       0       0       0       0       0
       0       0       0       0       0       0       0       0       0       0
       0       0       0       0       0       0       0       0       0       0
       0       0       0       0       0       0       0       0       0       0
       0       0       0       0       0       0       0       0       0       0
       0       0       0       0       0       0       0       0       0       0
       0       0       0       0       0       0       0       0       0       0
       0       0       0       0       0       0       0       0       0       0
       0       0       0       0       0       0       0       0       0       0
       0       0       0       0       0       0       0       0       0       0
       0       0       0       0       0       0       0       0       0       0
       0       0       0       0       0       0       0       0       0       0
       0       0       0       0       0       0       0       0       0       0
       0       0       0       0       0       0       0       0       0       0
       0       0       0       0       0       0       0       0       0       0
       0       0       0       0       0       0       0       0       0       0
       0       0       0       0       0       0       0       0       0       0
       0       0       0       0       0       0       0       0       0       0
       0       0       0       0       0       0       0       0       0       0
       0       0       0       0       0       0       0       0       0       0
       0       0       0       0       0       0       0       0       0       0
       0       0       0       0       0       0       0       0       0       0
       0       0       0       0       0       0       0       0       0       0
       0       0       0       0       0       0       0       0       0       0
       0       0       0       0       0       0       0       0       0       0
       0       0       0       0       0       0       0       0       0       0
       0       0       0       0       0       0       0       0       0       0
       0       0       0       0       0       0       0       0       0       0
       0       0       0       0       0       0       0       0       0       0
       0       0       0       0       0       0       0       0       0       0
       0       0       0       0       0       0       0       0       0       0
       0       0       0       0       0       0       0       0       0       0
       0       0       0       0       0       0       0       0       0       0
       0       0       0       0       0       0       0       0       0       0
       0       0       0       0       0       0       0       0       0       0
       0       0       0       0       0       0       0       0       0       0
       0       0       0       0       0       0       0       0       0       0
       0       0       0       0       0       0       0       0       0       0
       0       0       0       0       0       0       0       0       0       0
       0       0       0       0       0       0       0       0       0       0
       0       0       0       0       0       0       0       0       0       0
       0       0       0       0       0       0       0       0       0       0
       0       0       0       0       0       0       0       0       0       0
       0       0       0       0       0       0       0       0       0       0
       0       0       0       0       0       0       0       0       0       0
       0       0       0       0       0       0       0       0       0       0
       0       0       0       0       0       0       0       0       0       0
       0       0       0       0       0       0       0       0       0       0
       0       0       0       0       0       0       0       0       0       0
       0       0       0       0       0       0       0       0       0       0
       0       0       0       0       0       0       0       0       0       0
       0       0       0       0       0       0       0       0       0       0
       0       0       0       0       0       0       0       0       0       0
       0       0       0       0       0       0       0       0       0       0
       0       0       0       0       0       0       0       0       0       0
       0       0       0       0       0       0       0       0       0       0
       0       0       0       0       0       0       0       0       0       0
       0       0       0       0       0       0       0       0       0       0
       0       0       0       0       0       0       0       0       0       0
       0       0       0       0       0       0       0       0       0       0
       0       0       0       0       0       0       0       0       0       0
       0       0       0       0       0       0       0       0       0       0
       0       0       0       0       0       0       0       0       0       0
       0       0       0       0       0       0       0       0       0       0
       0       0       0       0       0       0       0       0       0       0
       0       0       0       0       0       0       0       0       0       0
       0       0       0       0       0       0       0       0       0       0
       0       0       0       0       0       0       0       0       0       0
       0       0       0       0       0       0       0       0       0       0
       0       0       0       0       0       0       0       0       0       0
       0       0       0       0       0       0       0       0       0       0
       0       0       0       0       0       0       0       0       0       0
       0       0       0       0       0       0       0       0       0       0
       0       0       0       0       0       0       0       0       0       0
       0       0       0       0       0       0       0       0       0       0
       0       0       0       0       0       0       0       0       0       0
       0       0       0       0       0       0       0       0       0       0
       0       0       0       0       0       0       0       0       0       0
       0       0       0       0       0       0       0       0       0       0
       0       0       0       0       0       0       0       0       0       0
       0       0       0       0       0       0       0       0       0       0
       0       0       0       0       0       0       0       0       0       0
       0       0       0       0       0       0       0       0       0       0
       0       0       0       0       0       0       0       0       0       0
       0       0       0       0       0       0       0       0       0       0
       0       0       0       0       0       0       0       0       0       0
       0       0       0       0       0       0       0       0       0       0
       0       0       0       0       0       0       0       0       0       0
       0       0       0       0       0       0       0       0       0       0
       0       0       0       0       0       0       0       0       0       0
       0       0       0       0       0       0       0       0       0       0
       0       0       0       0       0       0       0       0       0       0
       0       0       0       0       0       0       0       0       0       0
       0       0       0       0       0       0       0       0       0       0
       0       0       0       0       0       0       0       0       0       0
       0       0       0       0       0       0       0       0       0       0
       0       0       0       0       0       0       0       0       0       0
       0       0       0       0       0       0       0       0       0       0
       0       0       0       0       0       0       0       0       0       0
       0       0       0       0       0       0       0       0       0       0
       0       0       0       0       0       0       0       0       0       0
       0       0       0       0       0       0       0       0       0       0
       0       0       0       0       0       0       0       0       0       0
       0       0       0       0       0       0       0       0       0       0
       0       0       0       0       0       0       0       0       0       0
       0       0       0       0       0       0       0       0       0       0
       0       0       0       0       0       0       0       0       0       0
       0       0       0       0       0       0       0       0       0       0
       0       0       0       0       0       0       0       0       0       0
       0       0       0       0       0       0       0       0       0       0
       0       0       0       0       0       0       0       0       0       0
       0       0       0       0       0       0       0       0       0       0
       0       0       0       0       0       0       0       0       0       0
       0       0       0       0       0       0       0       0       0       0
       0       0       0       0       0       0       0       0       0       0
       0       0       0       0       0       0       0       0       0       0
       0       0       0       0       0       0       0       0       0       0
       0       0       0       0       0       0       0       0       0       0
       0       0       0       0       0       0       0       0       0       0
       0       0       0       0       0       0       0       0       0       0
       0       0       0       0       0       0       0       0       0       0
       0       0       0       0       0       0       0       0       0       0
       0       0       0       0       0       0       0       0       0       0
       0       0       0       0       0       0       0       0       0       0
       0       0       0       0       0       0       0       0       0       0
       0       0       0       0       0       0       0       0       0       0
       0       0       0       0       0       0       0       0       0       0
       0       0       0       0       0       0       0       0       0       0
       0       0       0       0       0       0       0       0       0       0
       0       0       0       0       0       0       0       0       0       0
       0       0       0       0       0       0       0       0       0       0
       0       0       0       0       0       0       0       0       0       0
       0       0       0       0       0       0       0       0       0       0
       0       0       0       0       0       0       0       0       0       0
       0       0       0       0       0       0       0       0       0       0
       0       0       0       0       0       0       0       0       0       0
       0       0       0       0       0       0       0       0       0       0
       0       0       0       0       0       0       0       0       0       0
       0       0       0       0       0       0       0       0       0       0
       0       0       0       0       0       0       0       0       0       0
       0       0       0       0       0       0       0       0       0       0
       0       0       0       0       0       0       0       0       0       0
       0       0       0       0       0       0       0       0       0       0
       0       0       0       0       0       0       0       0       0       0
       0       0       0       0       0       0       0       0       0       0
       0       0       0       0       0       0       0       0       0       0
       0       0       0       0       0       0       0       0       0       0
       0       0       0       0       0       0       0       0       0       0
       0       0       0       0       0       0       0       0       0       0
       0       0       0       0       0       0       0       0       0       0
       0       0       0       0       0       0       0       0       0       0
       0       0       0       0       0       0       0       0       0       0
       0       0       0       0       0       0       0       0       0       0
       0       0       0       0       0       0       0       0       0       0
       0       0       0       0       0       0       0       0       0       0
       0       0       0       0       0       0       0       0       0       0
       0       0       0       0       0       0       0       0       0       0
       0       0       0       0       0       0       0       0       0       0
       0       0       0       0       0       0       0       0       0       0
       0       0       0       0       0       0       0       0       0       0
       0       0       0       0       0       0       0       0       0       0
       0       0       0       0       0       0       0       0       0       0
       0       0       0       0       0       0       0       0       0       0
       0       0       0       0       0       0       0       0       0       0
       0       0       0       0       0       0       0       0       0       0
       0       0       0       0       0       0       0       0       0       0
       0       0       0       0       0       0       0       0       0       0
       0       0       0       0       0       0       0       0       0       0
       0       0       0       0       0       0       0       0       0       0
       0       0       0       0       0       0       0       0       0       0
       0       0       0       0       0       0       0       0       0       0
       0       0       0       0       0       0       0       0       0       0
       0       0       0       0       0       0       0       0       0       0
       0       0       0       0       0       0       0       0       0       0
       0       0       0       0       0       0       0       0       0       0
       0       0       0       0       0       0       0       0       0       0
       0       0       0       0       0       0       0       0       0       0
       0       0       0       0       0       0       0       0       0       0
       0       0       0       0       0       0       0       0       0       0
       0       0       0       0       0       0       0       0       0       0
       0       0       0       0       0       0       0       0       0       0
       0       0       0       0       0       0       0       0       0       0
       0       0       0       0       0       0       0       0       0       0
       0       0       0       0       0       0       0       0       0       0
       0       0       0       0       0       0       0       0       0       0
       0       0       0       0       0       0       0       0       0       0
       0       0       0       0       0       0       0       0       0       0
       0       0       0       0       0       0       0       0       0       0
       0       0       0       0       0       0       0       0       0       0
       0       0       0       0       0       0       0       0       0       0
       0       0       0       0       0       0       0       0       0       0
       0       0       0       0       0       0       0       0       0       0
       0       0       0       0       0       0       0       0       0       0
       0       0       0       0       0       0       0       0       0       0
       0       0       0       0       0       0       0       0       0       0
       0       0       0       0       0       0       0       0       0       0
       0       0       0       0       0       0       0       0       0       0
       0       0       0       0       0       0       0       0       0       0
       0       0       0       0       0       0       0       0       0       0
       0       0       0       0       0       0       0       0       0       0
       0       0       0       0       0       0       0       0       0       0
       0       0       0       0       0       0       0       0       0       0
       0       0       0       0       0       0       0       0       0       0
       0       0       0       0       0       0       0       0       0       0
       0       0       0       0       0       0       0       0       0       0
       0       0       0       0       0       0       0       0       0       0
       0       0       0       0       0       0       0       0       0       0
       0       0       0       0       0       0       0       0       0       0
       0       0       0       0       0       0       0       0       0       0
       0       0       0       0       0       0       0       0       0       0
       0       0       0       0       0       0       0       0       0       0
       0       0       0       0       0       0       0       0       0       0
       0       0       0       0       0       0       0       0       0       0
       0       0       0       0       0       0       0       0       0       0
       0       0       0       0       0       0       0       0       0       0
       0       0       0       0       0       0       0       0       0       0
       0       0       0       0       0       0       0       0       0       0
       0       0       0       0       0       0       0       0       0       0
       0       0       0       0       0       0       0       0       0       0
       0       0       0       0       0       0       0       0       0       0
       0       0       0       0       0       0       0       0       0       0
       0       0       0       0       0       0       0       0       0       0
       0       0       0       0       0       0       0       0       0       0
       0       0       0       0       0       0       0       0       0       0
       0       0       0       0       0       0       0       0       0       0
       0       0       0       0       0       0       0       0       0       0
       0       0       0       0       0       0       0       0       0       0
       0       0       0       0       0       0       0       0       0       0
       0       0       0       0       0       0       0       0       0       0
       0       0       0       0       0       0       0       0       0       0
       0       0       0       0       0       0       0       0       0       0
       0       0       0       0       0       0       0       0       0       0
       0       0       0       0       0       0       0       0       0       0
       0       0       0       0       0       0       0       0       0       0
       0       0       0       0       0       0       0       0       0       0
       0       0       0       0       0       0       0       0       0       0
       0       0       0       0       0       0       0       0       0       0
       0       0       0       0       0       0       0       0       0       0
       0       0       0       0       0       0       0       0       0       0
       0       0       0       0       0       0       0       0       0       0
       0       0       0       0       0       0       0       0       0       0
       0       0       0       0       0       0       0       0       0       0
       0       0       0       0       0       0       0       0       0       0
       0       0       0       0       0       0       0       0       0       0
       0       0       0       0       0       0       0       0       0       0
       0       0       0       0       0       0       0       0       0       0
       0       0       0       0       0       0       0       0       0       0
       0       0       0       0       0       0       0       0       0       0
       0       0       0       0       0       0       0       0       0       0
       0       0       0       0       0       0       0       0       0       0
       0       0       0       0       0       0       0       0       0       0
       0       0       0       0       0       0       0       0       0       0
       0       0       0       0       0       0       0       0       0       0
       0       0       0       0       0       0       0       0       0       0
       0       0       0       0       0       0       0       0       0       0
       0       0       0       0       0       0       0       0       0       0
       0       0       0       0       0       0       0       0       0       0
       0       0       0       0       0       0       0       0       0       0
       0       0       0       0       0       0       0       0       0       0
       0       0       0       0       0       0       0       0       0       0
       0       0       0       0       0       0       0       0       0       0
       0       0       0       0       0       0       0       0       0       0
       0       0       0       0       0       0       0       0       0       0
       0       0       0       0       0       0       0       0       0       0
       0       0       0       0       0       0       0       0       0       0
       0       0       0       0       0       0       0       0       0       0
       0       0       0       0       0       0       0       0       0       0
       0       0       0       0       0       0       0       0       0       0
       0       0       0       0       0       0       0       0       0       0
       0       0       0       0       0       0       0       0       0       0
       0       0       0       0       0       0       0       0       0       0
       0       0       0       0       0       0       0       0       0       0
       0       0       0       0       0       0       0       0       0       0
       0       0       0       0       0       0       0       0       0       0
       0       0       0       0       0       0       0       0       0       0
       0       0       0       0       0       0       0       0       0       0
       0       0       0       0       0       0       0       0       0       0
       0       0       0       0       0       0       0       0       0       0
       0       0       0       0       0       0       0       0       0       0
       0       0       0       0       0       0       0       0       0       0
       0       0       0       0       0       0       0       0       0       0
       0       0       0       0       0       0       0       0       0       0
       0       0       0       0       0       0       0       0       0       0
       0       0       0       0       0       0       0       0       0       0
       0       0       0       0       0       0       0       0       0       0
       0       0       0       0       0       0       0       0       0       0
       0       0       0       0       0       0       0       0       0       0
       0       0       0       0       0       0       0       0       0       0
       0       0       0       0       0       0       0       0       0       0
       0       0       0       0       0       0       0       0       0       0
       0       0       0       0       0       0       0       0       0       0
       0       0       0       0       0       0       0       0       0       0
       0       0       0       0       0       0       0       0       0       0
       0       0       0       0       0       0       0       0       0       0
       0       0       0       0       0       0       0       0       0       0
       0       0       0       0       0       0       0       0       0       0
       0       0       0       0       0       0       0       0       0       0
       0       0       0       0       0       0       0       0       0       0
       0       0       0       0       0       0       0       0       0       0
       0       0       0       0       0       0       0       0       0       0
       0       0       0       0       0       0       0       0       0       0
       0       0       0       0       0       0       0       0       0       0
       0       0       0       0       0       0       0       0       0       0
       0       0       0       0       0       0       0       0       0       0
       0       0       0       0       0       0       0       0       0       0
       0       0       0       0       0       0       0       0       0       0
       0       0       0       0       0       0       0       0       0       0
       0       0       0       0       0       0       0       0       0       0
       0       0       0       0       0       0       0       0       0       0
       0       0       0       0       0       0       0       0       0       0
       0       0       0       0       0       0       0       0       0       0
       0       0       0       0       0       0       0       0       0       0
       0       0       0       0       0       0       0       0       0       0
       0       0       0       0       0       0       0       0       0       0
       0       0       0       0       0       0       0       0       0       0
       0       0       0       0       0       0       0       0       0       0
       0       0       0       0       0       0       0       0       0       0
       0       0       0       0       0       0       0       0       0       0
       0       0       0       0       0       0       0       0       0       0
       0       0       0       0       0       0       0       0       0       0
       0       0       0       0       0       0       0       0       0       0
       0       0       0       0       0       0       0       0       0       0
       0       0       0       0       0       0       0       0       0       0
       0       0       0       0       0       0       0       0       0       0
       0       0       0       0       0       0       0       0       0       0
       0       0       0       0       0       0       0       0       0       0
       0       0       0       0       0       0       0       0       0       0
       0       0       0       0       0       0       0       0       0       0
       0       0       0       0       0       0       0       0       0       0
       0       0       0       0       0       0       0       0       0       0
       0       0       0       0       0       0       0       0       0       0
       0       0       0       0       0       0       0       0       0       0
       0       0       0       0       0       0       0       0       0       0
       0       0       0       0       0       0       0       0       0       0
       0       0       0       0       0       0       0       0       0       0
       0       0       0       0       0       0       0       0       0       0
       0       0       0       0       0       0       0       0       0       0
       0       0       0       0       0       0       0       0       0       0
       0       0       0       0       0       0       0       0       0       0
       0       0       0       0       0       0       0       0       0       0
       0       0       0       0       0       0       0       0       0       0
       0       0       0       0       0       0       0       0       0       0
       0       0       0       0       0       0       0       0       0       0
       0       0       0       0       0       0       0       0       0       0
       0       0       0       0       0       0       0       0       0       0
       0       0       0       0       0       0       0       0       0       0
       0       0       0       0       0       0       0       0       0       0
       0       0       0       0       0       0       0       0       0       0
       0       0       0       0       0       0       0       0       0       0
       0       0       0       0       0       0       0       0       0       0
       0       0       0       0       0       0       0       0       0       0
       0       0       0       0       0       0       0       0       0       0
       0       0       0       0       0       0       0       0       0       0
       0       0       0       0       0       0       0       0       0       0
       0       0       0       0       0       0       0       0       0       0
       0       0       0       0       0       0       0       0       0       0
       0       0       0       0       0       0       0       0       0       0
       0       0       0       0       0       0       0       0       0       0
       0       0       0       0       0       0       0       0       0       0
       0       0       0       0       0       0       0       0       0       0
       0       0       0       0       0       0       0       0       0       0
       0       0       0       0       0       0       0       0       0       0
       0       0       0       0       0       0       0       0       0       0
       0       0       0       0       0       0       0       0       0       0
       0       0       0       0       0       0       0       0       0       0
       0       0       0       0       0       0       0       0       0       0
       0       0       0       0       0       0       0       0       0       0
       0       0       0       0       0       0       0       0       0       0
       0       0       0       0       0       0       0       0       0       0
       0       0       0       0       0       0       0       0       0       0
       0       0       0       0       0       0       0       0       0       0
       0       0       0       0       0       0       0       0       0       0
       0       0       0       0       0       0       0       0       0       0
       0       0       0       0       0       0       0       0       0       0
       0       0       0       0       0       0       0       0       0       0
       0       0       0       0       0       0       0       0       0       0
       0       0       0       0       0       0       0       0       0       0
       0       0       0       0       0       0       0       0       0       0
       0       0       0       0       0       0       0       0       0       0
       0       0       0       0       0       0       0       0       0       0
       0       0       0       0       0       0       0       0       0       0
       0       0       0       0       0       0       0       0       0       0
       0       0       0       0       0       0       0       0       0       0
       0       0       0       0       0       0       0       0       0       0
       0       0       0       0       0       0       0       0       0       0
       0       0       0       0       0       0       0       0       0       0
       0       0       0       0       0       0       0       0       0       0
       0       0       0       0       0       0       0       0       0       0
       0       0       0       0       0       0       0       0       0       0
       0       0       0       0       0       0       0       0       0       0
       0       0       0       0       0       0       0       0       0       0
       0       0       0       0       0       0       0       0       0       0
       0       0       0       0       0       0       0       0       0       0
       0       0       0       0       0       0       0       0       0       0
       0       0       0       0       0       0       0       0       0       0
       0       0       0       0       0       0       0       0       0       0
       0       0       0       0       0       0       0       0       0       0
       0       0       0       0       0       0       0       0       0       0
       0       0       0       0       0       0       0       0       0       0
       0       0       0       0       0       0       0       0       0       0
       0       0       0       0       0       0       0       0       0       0
       0       0       0       0       0       0       0       0       0       0
       0       0       0       0       0       0       0       0       0       0
       0       0       0       0       0       0       0       0       0       0
       0       0       0       0       0       0       0       0       0       0
       0       0       0       0       0       0       0       0       0       0
       0       0       0       0       0       0       0       0       0       0
       0       0       0       0       0       0       0       0       0       0
       0       0       0       0       0       0       0       0       0       0
       0       0       0       0       0       0       0       0       0       0
       0       0       0       0       0       0       0       0       0       0
       0       0       0       0       0       0       0       0       0       0
       0       0       0       0       0       0       0       0       0       0
       0       0       0       0       0       0       0       0       0       0
       0       0       0       0       0       0       0       0       0       0
       0       0       0       0       0       0       0       0       0       0
       0       0       0       0       0       0       0       0       0       0
       0       0       0       0       0       0       0       0       0       0
       0       0       0       0       0       0       0       0       0       0
       0       0       0       0       0       0       0       0       0       0
       0       0       0       0       0       0       0       0       0       0
       0       0       0       0       0       0       0       0       0       0
       0       0       0       0       0       0       0       0       0       0
       0       0       0       0       0       0       0       0       0       0
       0       0       0       0       0       0       0       0       0       0
       0       0       0       0       0       0       0       0       0       0
       0       0       0       0       0       0       0       0       0       0
       0       0       0       0       0       0       0       0       0       0
       0       0       0       0       0       0       0       0       0       0
       0       0       0       0       0       0       0       0       0       0
       0       0       0       0       0       0       0       0       0       0
       0       0       0       0       0       0       0       0       0       0
       0       0       0       0       0       0       0       0       0       0
       0       0       0       0       0       0       0       0       0       0
       0       0       0       0       0       0       0       0       0       0
       0       0       0       0       0       0       0       0       0       0
       0       0       0       0       0       0       0       0       0       0
       0       0       0       0       0       0       0       0       0       0
       0       0       0       0       0       0       0       0       0       0
       0       0       0       0       0       0       0       0       0       0
       0       0       0       0       0       0       0       0       0       0
       0       0       0       0       0       0       0       0       0       0
       0       0       0       0       0       0       0       0       0       0
       0       0       0       0       0       0       0       0       0       0
       0       0       0       0       0       0       0       0       0       0
       0       0       0       0       0       0       0       0       0       0
       0       0       0       0       0       0       0       0       0       0
       0       0       0       0       0       0       0       0       0       0
       0       0       0       0       0       0       0       0       0       0
       0       0       0       0       0       0       0       0       0       0
       0       0       0       0       0       0       0       0       0       0
       0       0       0       0       0       0       0       0       0       0
       0       0       0       0       0       0       0       0       0       0
       0       0       0       0       0       0       0       0       0       0
       0       0       0       0       0       0       0       0       0       0
       0       0       0       0       0       0       0       0       0       0
       0       0       0       0       0       0       0       0       0       0
       0       0       0       0       0       0       0       0       0       0
       0       0       0       0       0       0       0       0       0       0
       0       0       0       0       0       0       0       0       0       0
       0       0       0       0       0       0       0       0       0       0
       0       0       0       0       0       0       0       0       0       0
       0       0       0       0       0       0       0       0       0       0
       0       0       0       0       0       0       0       0       0       0
       0       0       0       0       0       0       0       0       0       0
       0       0       0       0       0       0       0       0       0       0
       0       0       0       0       0       0       0       0       0       0
       0       0       0       0       0       0       0       0       0       0
       0       0       0       0       0       0       0       0       0       0
       0       0       0       0       0       0       0       0       0       0
       0       0       0       0       0       0       0       0       0       0
       0       0       0       0       0       0       0       0       0       0
       0       0       0       0       0       0       0       0       0       0
       0       0       0       0       0       0       0       0       0       0
       0       0       0       0       0       0       0       0       0       0
       0       0       0       0       0       0       0       0       0       0
       0       0       0       0       0       0       0       0       0       0
       0       0       0       0       0       0       0       0       0       0
       0       0       0       0       0       0       0       0       0       0
       0       0       0       0       0       0       0       0       0       0
       0       0       0       0       0       0       0       0       0       0
       0       0       0       0       0       0       0       0       0       0
       0       0       0       0       0       0       0       0       0       0
       0       0       0       0       0       0       0       0       0       0
       0       0       0       0       0       0       0       0       0       0
       0       0       0       0       0       0       0       0       0       0
       0       0       0       0       0       0       0       0       0       0
       0       0       0       0       0       0       0       0       0       0
       0       0       0       0       0       0       0       0       0       0
       0       0       0       0       0       0       0       0       0       0
       0       0       0       0       0       0       0       0       0       0
       0       0       0       0       0       0       0       0       0       0
       0       0       0       0       0       0       0       0       0       0
       0       0       0       0       0       0       0       0       0       0
       0       0       0       0       0       0       0       0       0       0
       0       0       0       0       0       0       0       0       0       0
       0       0       0       0       0       0       0       0       0       0
       0       0       0       0       0       0       0       0       0       0
       0       0       0       0       0       0       0       0       0       0
       0       0       0       0       0       0       0       0       0       0
       0       0       0       0       0       0       0       0       0       0
       0       0       0       0       0       0       0       0       0       0
       0       0       0       0       0       0       0       0       0       0
       0       0       0       0       0       0       0       0       0       0
       0       0       0       0       0       0       0       0       0       0
       0       0       0       0       0       0       0       0       0       0
       0       0       0       0       0       0       0       0       0       0
       0       0       0       0       0       0       0       0       0       0
       0       0       0       0       0       0       0       0       0       0
       0       0       0       0       0       0       0       0       0       0
       0       0       0       0       0       0       0       0       0       0
       0       0       0       0       0       0       0       0       0       0
       0       0       0       0       0       0       0       0       0       0
       0       0       0       0       0       0       0       0       0       0
       0       0       0       0       0       0       0       0       0       0
       0       0       0       0       0       0       0       0       0       0
       0       0       0       0       0       0       0       0       0       0
       0       0       0       0       0       0       0       0       0       0
       0       0       0       0       0       0       0       0       0       0
       0       0       0       0       0       0       0       0       0       0
       0       0       0       0       0       0       0       0       0       0
       0       0       0       0       0       0       0       0       0       0
       0       0       0       0       0       0       0       0       0       0
       0       0       0       0       0       0       0       0       0       0
       0       0       0       0       0       0       0       0       0       0
       0       0       0       0       0       0       0       0       0       0
       0       0       0       0       0       0       0       0       0       0
       0       0       0       0       0       0       0       0       0       0
       0       0       0       0       0       0       0       0       0       0
       0       0       0       0       0       0       0       0       0       0
       0       0       0       0       0       0       0       0       0       0
       0       0       0       0       0       0       0       0       0       0
       0       0       0       0       0       0       0       0       0       0
       0       0       0       0       0       0       0       0       0       0
       0       0       0       0       0       0       0       0       0       0
       0       0       0       0       0       0       0       0       0       0
       0       0       0       0       0       0       0       0       0       0
       0       0       0       0       0       0       0       0       0       0
       0       0       0       0       0       0       0       0       0       0
       0       0       0       0       0       0       0       0       0       0
       0       0       0       0       0       0       0       0       0       0
       0       0       0       0       0       0       0       0       0       0
       0       0       0       0       0       0       0       0       0       0
       0       0       0       0       0       0       0       0       0       0
       0       0       0       0       0       0       0       0       0       0
       0       0       0       0       0       0       0       0       0       0
       0       0       0       0       0       0       0       0       0       0
       0       0       0       0       0       0       0       0       0       0
       0       0       0       0       0       0       0       0       0       0
       0       0       0       0       0       0       0       0       0       0
       0       0       0       0       0       0       0       0       0       0
       0       0       0       0       0       0       0       0       0       0
       0       0       0       0       0       0       0       0       0       0
       0       0       0       0       0       0       0       0       0       0
       0       0       0       0       0       0       0       0       0       0
       0       0       0       0       0       0       0       0       0       0
       0       0       0       0       0       0       0       0       0       0
       0       0       0       0       0       0       0       0       0       0
       0       0       0       0       0       0       0       0       0       0
       0       0       0       0       0       0       0       0       0       0
       0       0       0       0       0       0       0       0       0       0
       0       0       0       0       0       0       0       0       0       0
       0       0       0       0       0       0       0       0       0       0
       0       0       0       0       0       0       0       0       0       0
       0       0       0       0       0       0       0       0       0       0
       0       0       0       0       0       0       0       0       0       0
       0       0       0       0       0       0       0       0       0       0
       0       0       0       0       0       0       0       0       0       0
       0       0       0       0       0       0       0       0       0       0
       0       0       0       0       0       0       0       0       0       0
       0       0       0       0       0       0       0       0       0       0
       0       0       0       0       0       0       0       0       0       0
       0       0       0       0       0       0       0       0       0       0
       0       0       0       0       0       0       0       0       0       0
       0       0       0       0       0       0       0       0       0       0
       0       0       0       0       0       0       0       0       0       0
       0       0       0       0       0       0       0       0       0       0
       0       0       0       0       0       0       0       0       0       0
       0       0       0       0       0       0       0       0       0       0
       0       0       0       0       0       0       0       0       0       0
       0       0       0       0       0       0       0       0       0       0
       0       0       0       0       0       0       0       0       0       0
       0       0       0       0       0       0       0       0       0       0
       0       0       0       0       0       0       0       0       0       0
       0       0       0       0       0       0       0       0       0       0
       0       0       0       0       0       0       0       0       0       0
       0       0       0       0       0       0       0       0       0       0
       0       0       0       0       0       0       0       0       0       0
       0       0       0       0       0       0       0       0       0       0
       0       0       0       0       0       0       0       0       0       0
       0       0       0       0       0       0       0       0       0       0
       0       0       0       0       0       0       0       0       0       0
       0       0       0       0       0       0       0       0       0       0
       0       0       0       0       0       0       0       0       0       0
       0       0       0       0       0       0       0       0       0       0
       0       0       0       0       0       0       0       0       0       0
       0       0       0       0       0       0       0       0       0       0
       0       0       0       0       0       0       0       0       0       0
       0       0       0       0       0       0       0       0       0       0
       0       0       0       0       0       0       0       0       0       0
       0       0       0       0       0       0       0       0       0       0
       0       0       0       0       0       0       0       0       0       0
       0       0       0       0       0       0       0       0       0       0
       0       0       0       0       0       0       0       0       0       0
       0       0       0       0       0       0       0       0       0       0
       0       0       0       0       0       0       0       0       0       0
       0       0       0       0       0       0       0       0       0       0
       0       0       0       0       0       0       0       0       0       0
       0       0       0       0       0       0       0       0       0       0
       0       0       0       0       0       0       0       0       0       0
       0       0       0       0       0       0       0       0       0       0
       0       0       0       0       0       0       0       0       0       0
       0       0       0       0       0       0       0       0       0       0
       0       0       0       0       0       0       0       0       0       0
       0       0       0       0       0       0       0       0       0       0
       0       0       0       0       0       0       0       0       0       0
       0       0       0       0       0       0       0       0       0       0
       0       0       0       0       0       0       0       0       0       0
       0       0       0       0       0       0       0       0       0       0
       0       0       0       0       0       0       0       0       0       0
       0       0       0       0       0       0       0       0       0       0
       0       0       0       0       0       0       0       0       0       0
       0       0       0       0       0       0       0       0       0       0
       0       0       0       0       0       0       0       0       0       0
       0       0       0       0       0       0       0       0       0       0
       0       0       0       0       0       0       0       0       0       0
       0       0       0       0       0       0       0       0       0       0
       0       0       0       0       0       0       0       0       0       0
       0       0       0       0       0       0       0       0       0       0
       0       0       0       0       0       0       0       0       0       0
       0       0       0       0       0       0       0       0       0       0
       0       0       0       0       0       0       0       0       0       0
       0       0       0       0       0       0       0       0       0       0
       0       0       0       0       0       0       0       0       0       0
       0       0       0       0       0       0       0       0       0       0
       0       0       0       0       0       0       0       0       0       0
       0       0       0       0       0       0       0       0       0       0
       0       0       0       0       0       0       0       0       0       0
       0       0       0       0       0       0       0       0       0       0
       0       0       0       0       0       0       0       0       0       0
       0       0       0       0       0       0       0       0       0       0
       0       0       0       0       0       0       0       0       0       0
       0       0       0       0       0       0       0       0       0       0
       0       0       0       0       0       0       0       0       0       0
       0       0       0       0       0       0       0       0       0       0
       0       0       0       0       0       0       0       0       0       0
       0       0       0       0       0       0       0       0       0       0
       0       0       0       0       0       0       0       0       0       0
       0       0       0       0       0       0       0       0       0       0
       0       0       0       0       0       0       0       0       0       0
       0       0       0       0       0       0       0       0       0       0
       0       0       0       0       0       0       0       0       0       0
       0       0       0       0       0       0       0       0       0       0
       0       0       0       0       0       0       0       0       0       0
       0       0       0       0       0       0       0       0       0       0
       0       0       0       0       0       0       0       0       0       0
       0       0       0       0       0       0       0       0       0       0
       0       0       0       0       0       0       0       0       0       0
       0       0       0       0       0       0       0       0       0       0
       0       0       0       0       0       0       0       0       0       0
       0       0       0       0       0       0       0       0       0       0
       0       0       0       0       0       0       0       0       0       0
       0       0       0       0       0       0       0       0       0       0
       0       0       0       0       0       0       0       0       0       0
       0       0       0       0       0       0       0       0       0       0
       0       0       0       0       0       0       0       0       0       0
       0       0       0       0       0       0       0       0       0       0
       0       0       0       0       0       0       0       0       0       0
       0       0       0       0       0       0       0       0       0       0
       0       0       0       0       0       0       0       0       0       0
       0       0       0       0       0       0       0       0       0       0
       0       0       0       0       0       0       0       0       0       0
       0       0       0       0       0       0       0       0       0       0
       0       0       0       0       0       0       0       0       0       0
       0       0       0       0       0       0       0       0       0       0
       0       0       0       0       0       0       0       0       0       0
       0       0       0       0       0       0       0       0       0       0
       0       0       0       0       0       0       0       0       0       0
       0       0       0       0       0       0       0       0       0       0
       0       0       0       0       0       0       0       0       0       0
       0       0       0       0       0       0       0       0       0       0
       0       0       0       0       0       0       0       0       0       0
       0       0       0       0       0       0       0       0       0       0
       0       0       0       0       0       0       0       0       0       0
       0       0       0       0       0       0       0       0       0       0
       0       0       0       0       0       0       0       0       0       0
       0       0       0       0       0       0       0       0       0       0
       0       0       0       0       0       0       0       0       0       0
       0       0       0       0       0       0       0       0       0       0
       0       0       0       0       0       0       0       0       0       0
       0       0       0       0       0       0       0       0       0       0
       0       0       0       0       0       0       0       0       0       0
       0       0       0       0       0       0       0       0       0       0
       0       0       0       0       0       0       0       0       0       0
       0       0       0       0       0       0       0       0       0       0
       0       0       0       0       0       0       0       0       0       0
       0       0       0       0       0       0       0       0       0       0
       0       0       0       0       0       0       0       0       0       0
       0       0       0       0       0       0       0       0       0       0
       0       0       0       0       0       0       0       0       0       0
       0       0       0       0       0       0       0       0       0       0
       0       0       0       0       0       0       0       0       0       0
       0       0       0       0       0       0       0       0       0       0
       0       0       0       0       0       0       0       0       0       0
       0       0       0       0       0       0       0       0       0       0
       0       0       0       0       0       0       0       0       0       0
       0       0       0       0       0       0       0       0       0       0
       0       0       0       0       0       0       0       0       0       0
       0       0       0       0       0       0       0       0       0       0
       0       0       0       0       0       0       0       0       0       0
       0       0       0       0       0       0       0       0       0       0
       0       0       0       0       0       0       0       0       0       0
       0       0       0       0       0       0       0       0       0       0
       0       0       0       0       0       0       0       0       0       0
       0       0       0       0       0       0       0       0       0       0
       0       0       0       0       0       0       0       0       0       0
       0       0       0       0       0       0       0       0       0       0
       0       0       0       0       0       0       0       0       0       0
       0       0       0       0       0       0       0       0       0       0
       0       0       0       0       0       0       0       0       0       0
       0       0       0       0       0       0       0       0       0       0
       0       0       0       0       0       0       0       0       0       0
       0       0       0       0       0       0       0       0       0       0
       0       0       0       0       0       0       0       0       0       0
       0       0       0       0       0       0       0       0       0       0
       0       0       0       0       0       0       0       0       0       0
       0       0       0       0       0       0       0       0       0       0
       0       0       0       0       0       0       0       0       0       0
       0       0       0       0       0       0       0       0       0       0
       0       0       0       0       0       0       0       0       0       0
       0       0       0       0       0       0       0       0       0       0
       0       0       0       0       0       0       0       0       0       0
       0       0       0       0       0       0       0       0       0       0
       0       0       0       0       0       0       0       0       0       0
       0       0       0       0       0       0       0       0       0       0
       0       0       0       0       0       0       0       0       0       0
       0       0       0       0       0       0       0       0       0       0
       0       0       0       0       0       0       0       0       0       0
       0       0       0       0       0       0       0       0       0       0
       0       0       0       0       0       0       0       0       0       0
       0       0       0       0       0       0       0       0       0       0
       0       0       0       0       0       0       0       0       0       0
       0       0       0       0       0       0       0       0       0       0
       0       0       0       0       0       0       0       0       0       0
       0       0       0       0       0       0       0       0       0       0
       0       0       0       0       0       0       0       0       0       0
       0       0       0       0       0       0       0       0       0       0
       0       0       0       0       0       0       0       0       0       0
       0       0       0       0       0       0       0       0       0       0
       0       0       0       0       0       0       0       0       0       0
       0       0       0       0       0       0       0       0       0       0
       0       0       0       0       0       0       0       0       0       0
       0       0       0       0       0       0       0       0       0       0
       0       0       0       0       0       0       0       0       0       0
       0       0       0       0       0       0       0       0       0       0
       0       0       0       0       0       0       0       0       0       0
       0       0       0       0       0       0       0       0       0       0
       0       0       0       0       0       0       0       0       0       0
       0       0       0       0       0       0       0       0       0       0
       0       0       0       0       0       0       0       0       0       0
       0       0       0       0       0       0       0       0       0       0
       0       0       0       0       0       0       0       0       0       0
       0       0       0       0       0       0       0       0       0       0
       0       0       0       0       0       0       0       0       0       0
       0       0       0       0       0       0       0       0       0       0
       0       0       0       0       0       0       0       0       0       0
       0       0       0       0       0       0       0       0       0       0
       0       0       0       0       0       0       0       0       0       0
       0       0       0       0       0       0       0       0       0       0
       0       0       0       0       0       0       0       0       0       0
       0       0       0       0       0       0       0       0       0       0
       0       0       0       0       0       0       0       0       0       0
       0       0       0       0       0       0       0       0       0       0
       0       0       0       0       0       0       0       0       0       0
       0       0       0       0       0       0       0       0       0       0
       0       0       0       0       0       0       0       0       0       0
       0       0       0       0       0       0       0       0       0       0
       0       0       0       0       0       0       0       0       0       0
       0       0       0       0       0       0       0       0       0       0
       0       0       0       0       0       0       0       0       0       0
       0       0       0       0       0       0       0       0       0       0
       0       0       0       0       0       0       0       0       0       0
       0       0       0       0       0       0       0       0       0       0
       0       0       0       0       0       0       0       0       0       0
       0       0       0       0       0       0       0       0       0       0
       0       0       0       0       0       0       0       0       0       0
       0       0       0       0       0       0       0       0       0       0
       0       0       0       0       0       0       0       0       0       0
       0       0       0       0       0       0       0       0       0       0
       0       0       0       0       0       0       0       0       0       0
       0       0       0       0       0       0       0       0       0       0
       0       0       0       0       0       0       0       0       0       0
       0       0       0       0       0       0       0       0       0       0
       0       0       0       0       0       0       0       0       0       0
       0       0       0       0       0       0       0       0       0       0
       0       0       0       0       0       0       0       0       0       0
       0       0       0       0       0       0       0       0       0       0
       0       0       0       0       0       0       0       0       0       0
       0       0       0       0       0       0       0       0       0       0
       0       0       0       0       0       0       0       0       0       0
       0       0       0       0       0       0       0       0       0       0
       0       0       0       0       0       0       0       0       0       0
       0       0       0       0       0       0       0       0       0       0
       0       0       0       0       0       0       0       0       0       0
       0       0       0       0       0       0       0       0       0       0
       0       0       0       0       0       0       0       0       0       0
       0       0       0       0       0       0       0       0       0       0
       0       0       0       0       0       0       0       0       0       0
       0       0       0       0       0       0       0       0       0       0
       0       0       0       0       0       0       0       0       0       0
       0       0       0       0       0       0       0       0       0       0
       0       0       0       0       0       0       0       0       0       0
       0       0       0       0       0       0       0       0       0       0
       0       0       0       0       0       0       0       0       0       0
       0       0       0       0       0       0       0       0       0       0
       0       0       0       0       0       0       0       0       0       0
       0       0       0       0       0       0       0       0       0       0
       0       0       0       0       0       0       0       0       0       0
       0       0       0       0       0       0       0       0       0       0
       0       0       0       0       0       0       0       0       0       0
       0       0       0       0       0       0       0       0       0       0
       0       0       0       0       0       0       0       0       0       0
       0       0       0       0       0       0       0       0       0       0
       0       0       0       0       0       0       0       0       0       0
       0       0       0       0       0       0       0       0       0       0
       0       0       0       0       0       0       0       0       0       0
       0       0       0       0       0       0       0       0       0       0
       0       0       0       0       0       0       0       0       0       0
       0       0       0       0       0       0       0       0       0       0
       0       0       0       0       0       0       0       0       0       0
       0       0       0       0       0       0       0       0       0       0
       0       0       0       0       0       0       0       0       0       0
       0       0       0       0       0       0       0       0       0       0
       0       0       0       0       0       0       0       0       0       0
       0       0       0       0       0       0       0       0       0       0
       0       0       0       0       0       0       0       0       0       0
       0       0       0       0       0       0       0       0       0       0
       0       0       0       0       0       0       0       0       0       0
       0       0       0       0       0       0       0       0       0       0
       0       0       0       0       0       0       0       0       0       0
       0       0       0       0       0       0       0       0       0       0
       0       0       0       0       0       0       0       0       0       0
       0       0       0       0       0       0       0       0       0       0
       0       0       0       0       0       0       0       0       0       0
       0       0       0       0       0       0       0       0       0       0
       0       0       0       0       0       0       0       0       0       0
       0       0       0       0       0       0       0       0       0       0
       0       0       0       0       0       0       0       0       0       0
       0       0       0       0       0       0       0       0       0       0
       0       0       0       0       0       0       0       0       0       0
       0       0       0       0       0       0       0       0       0       0
       0       0       0       0       0       0       0       0       0       0
       0       0       0       0       0       0       0       0       0       0
       0       0       0       0       0       0       0       0       0       0
       0       0       0       0       0       0       0       0       0       0
       0       0       0       0       0       0       0       0       0       0
       0       0       0       0       0       0       0       0       0       0
       0       0       0       0       0       0       0       0       0       0
       0       0       0       0       0       0       0       0       0       0
       0       0       0       0       0       0       0       0       0       0
       0       0       0       0       0       0       0       0       0       0
       0       0       0       0       0       0       0       0       0       0
       0       0       0       0       0       0       0       0       0       0
       0       0       0       0       0       0       0       0       0       0
       0       0       0       0       0       0       0       0       0       0
       0       0       0       0       0       0       0       0       0       0
       0       0       0       0       0       0       0       0       0       0
       0       0       0       0       0       0       0       0       0       0
       0       0       0       0       0       0       0       0       0       0
       0       0       0       0       0       0       0       0       0       0
       0       0       0       0       0       0       0       0       0       0
       0       0       0       0       0       0       0       0       0       0
       0       0       0       0       0       0       0       0       0       0
       0       0       0       0       0       0       0       0       0       0
       0       0       0       0       0       0       0       0       0       0
       0       0       0       0       0       0       0       0       0       0
       0       0       0       0       0       0       0       0       0       0
       0       0       0       0       0       0       0       0       0       0
       0       0       0       0       0       0       0       0       0       0
       0       0       0       0       0       0       0       0       0       0
       0       0       0       0       0       0       0       0       0       0
       0       0       0       0       0       0       0       0       0       0
       0       0       0       0       0       0       0       0       0       0
       0       0       0       0       0       0       0       0       0       0
       0       0       0       0       0       0       0       0       0       0
       0       0       0       0       0       0       0       0       0       0
       0       0       0       0       0       0       0       0       0       0
       0       0       0       0       0       0       0       0       0       0
       0       0       0       0       0       0       0       0       0       0
       0       0       0       0       0       0       0       0       0       0
       0       0       0       0       0       0       0       0       0       0
       0       0       0       0       0       0       0       0       0       0
       0       0       0       0       0       0       0       0       0       0
       0       0       0       0       0       0       0       0       0       0
       0       0       0       0       0       0       0       0       0       0
       0       0       0       0       0       0       0       0       0       0
       0       0       0       0       0       0       0       0       0       0
       0       0       0       0       0       0       0       0       0       0
       0       0       0       0       0       0       0       0       0       0
       0       0       0       0       0       0       0       0       0       0
       0       0       0       0       0       0       0       0       0       0
       0       0       0       0       0       0       0       0       0       0
       0       0       0       0       0       0       0       0       0       0
       0       0       0       0       0       0       0       0       0       0
       0       0       0       0       0       0       0       0       0       0
       0       0       0       0       0       0       0       0       0       0
       0       0       0       0       0       0       0       0       0       0
       0       0       0       0       0       0       0       0       0       0
       0       0       0       0       0       0       0       0       0       0
       0       0       0       0       0       0       0       0       0       0
       0       0       0       0       0       0       0       0       0       0
       0       0       0       0       0       0       0       0       0       0
       0       0       0       0       0       0       0       0       0       0
       0       0       0       0       0       0       0       0       0       0
       0       0       0       0       0       0       0       0       0       0
       0       0       0       0       0       0       0       0       0       0
       0       0       0       0       0       0       0       0       0       0
       0       0       0       0       0       0       0       0       0       0
       0       0       0       0       0       0       0       0       0       0
       0       0       0       0       0       0       0       0       0       0
       0       0       0       0       0       0       0       0       0       0
       0       0       0       0       0       0       0       0       0       0
       0       0       0       0       0       0       0       0       0       0
       0       0       0       0       0       0       0       0       0       0
       0       0       0       0       0       0       0       0       0       0
       0       0       0       0       0       0       0       0       0       0
       0       0       0       0       0       0       0       0       0       0
       0       0       0       0       0       0       0       0       0       0
       0       0       0       0       0       0       0       0       0       0
       0       0       0       0       0       0       0       0       0       0
       0       0       0       0       0       0       0       0       0       0
       0       0       0       0       0       0       0       0       0       0
       0       0       0       0       0       0       0       0       0       0
       0       0       0       0       0       0       0       0       0       0
       0       0       0       0       0       0       0       0       0       0
       0       0       0       0       0       0       0       0       0       0
       0       0       0       0       0       0       0       0       0       0
       0       0       0       0       0       0       0       0       0       0
       0       0       0       0       0       0       0       0       0       0
       0       0       0       0       0       0       0       0       0       0
       0       0       0       0       0       0       0       0       0       0
       0       0       0       0       0       0       0       0       0       0
       0       0       0       0       0       0       0       0       0       0
       0       0       0       0       0       0       0       0       0       0
       0       0       0       0       0       0       0       0       0       0
       0       0       0       0       0       0       0       0       0       0
       0       0       0       0       0       0       0       0       0       0
       0       0       0       0       0       0       0       0       0       0
       0       0       0       0       0       0       0       0       0       0
       0       0       0       0       0       0       0       0       0       0
       0       0       0       0       0       0       0       0       0       0
       0       0       0       0       0       0       0       0       0       0
       0       0       0       0       0       0       0       0       0       0
       0       0       0       0       0       0       0       0       0       0
       0       0       0       0       0       0       0       0       0       0
       0       0       0       0       0       0       0       0       0       0
       0       0       0       0       0       0       0       0       0       0
       0       0       0       0       0       0       0       0       0       0
       0       0       0       0       0       0       0       0       0       0
       0       0       0       0       0       0       0       0       0       0
       0       0       0       0       0       0       0       0       0       0
       0       0       0       0       0       0       0       0       0       0
       0       0       0       0       0       0       0       0       0       0
       0       0       0       0       0       0       0       0       0       0
       0       0       0       0       0       0       0       0       0       0
       0       0       0       0       0       0       0       0       0       0
       0       0       0       0       0       0       0       0       0       0
       0       0       0       0       0       0       0       0       0       0
       0       0       0       0       0       0       0       0       0       0
       0       0       0       0       0       0       0       0       0       0
       0       0       0       0       0       0       0       0       0       0
       0       0       0       0       0       0       0       0       0       0
       0       0       0       0       0       0       0       0       0       0
       0       0       0       0       0       0       0       0       0       0
       0       0       0       0       0       0       0       0       0       0
       0       0       0       0       0       0       0       0       0       0
       0       0       0       0       0       0       0       0       0       0
       0       0       0       0       0       0       0       0       0       0
       0       0       0       0       0       0       0       0       0       0
       0       0       0       0       0       0       0       0       0       0
       0       0       0       0       0       0       0       0       0       0
       0       0       0       0       0       0       0       0       0       0
       0       0       0       0       0       0       0       0       0       0
       0       0       0       0       0       0       0       0       0       0
       0       0       0       0       0       0       0       0       0       0
       0       0       0       0       0       0       0       0       0       0
       0       0       0       0       0       0       0       0       0       0
       0       0       0       0       0       0       0       0       0       0
       0       0       0       0       0       0       0       0       0       0
       0       0       0       0       0       0       0       0       0       0
       0       0       0       0       0       0       0       0       0       0
       0       0       0       0       0       0       0       0       0       0
       0       0       0       0       0       0       0       0       0       0
       0       0       0       0       0       0       0       0       0       0
       0       0       0       0       0       0       0       0       0       0
       0       0       0       0       0       0       0       0       0       0
       0       0       0       0       0       0       0       0       0       0
       0       0       0       0       0       0       0       0       0       0
       0       0       0       0       0       0       0       0       0       0
       0       0       0       0       0       0       0       0       0       0
       0       0       0       0       0       0       0       0       0       0
       0       0       0       0       0       0       0       0       0       0
       0       0       0       0       0       0       0       0       0       0
       0       0       0       0       0       0       0       0       0       0
       0       0       0       0       0       0       0       0       0       0
       0       0       0       0       0       0       0       0       0       0
       0       0       0       0       0       0       0       0       0       0
       0       0       0       0       0       0       0       0       0       0
       0       0       0       0       0       0       0       0       0       0
       0       0       0       0       0       0       0       0       0       0
       0       0       0       0       0       0       0       0       0       0
       0       0       0       0       0       0       0       0       0       0
       0       0       0       0       0       0       0       0       0       0
       0       0       0       0       0       0       0       0       0       0
       0       0       0       0       0       0       0       0       0       0
       0       0       0       0       0       0       0       0       0       0
       0       0       0       0       0       0       0       0       0       0
       0       0       0       0       0       0       0       0       0       0
       0       0       0       0       0       0       0       0       0       0
       0       0       0       0       0       0       0       0       0       0
       0       0       0       0       0       0       0       0       0       0
       0       0       0       0       0       0       0       0       0       0
       0       0       0       0       0       0       0       0       0       0
       0       0       0       0       0       0       0       0       0       0
       0       0       0       0       0       0       0       0       0       0
       0       0       0       0       0       0       0       0       0       0
       0       0       0       0       0       0       0       0       0       0
       0       0       0       0       0       0       0       0       0       0
       0       0       0       0       0       0       0       0       0       0
       0       0       0       0       0       0       0       0       0       0
       0       0       0       0       0       0       0       0       0       0
       0       0       0       0       0       0       0       0       0       0
       0       0       0       0       0       0       0       0       0       0
       0       0       0       0       0       0       0       0       0       0
       0       0       0       0       0       0       0       0       0       0
       0       0       0       0       0       0       0       0       0       0
       0       0       0       0       0       0       0       0       0       0
       0       0       0       0       0       0       0       0       0       0
       0       0       0       0       0       0       0       0       0       0
       0       0       0       0       0       0       0       0       0       0
       0       0       0       0       0       0       0       0       0       0
       0       0       0       0       0       0       0       0       0       0
       0       0       0       0       0       0       0       0       0       0
       0       0       0       0       0       0       0       0       0       0
       0       0       0       0       0       0       0       0       0       0
       0       0       0       0       0       0       0       0       0       0
       0       0       0       0       0       0       0       0       0       0
       0       0       0       0       0       0       0       0       0       0
       0       0       0       0       0       0       0       0       0       0
       0       0       0       0       0       0       0       0       0       0
       0       0       0       0       0       0       0       0       0       0
       0       0       0       0       0       0       0       0       0       0
       0       0       0       0       0       0       0       0       0       0
       0       0       0       0       0       0       0       0       0       0
       0       0       0       0       0       0       0       0       0       0
       0       0       0       0       0       0       0       0       0       0
       0       0       0       0       0       0       0       0       0       0
       0       0       0       0       0       0       0       0       0       0
       0       0       0       0       0       0       0       0       0       0
       0       0       0       0       0       0       0       0       0       0
       0       0       0       0       0       0       0       0       0       0
       0       0       0       0       0       0       0       0       0       0
       0       0       0       0       0       0       0       0       0       0
       0       0       0       0       0       0       0       0       0       0
       0       0       0       0       0       0       0       0       0       0
       0       0       0       0       0       0       0       0       0       0
       0       0       0       0       0       0       0       0       0       0
       0       0       0       0       0       0       0       0       0       0
       0       0       0       0       0       0       0       0       0       0
       0       0       0       0       0       0       0       0       0       0
       0       0       0       0       0       0       0       0       0       0
       0       0       0       0       0       0       0       0       0       0
       0       0       0       0       0       0       0       0       0       0
       0       0       0       0       0       0       0       0       0       0
       0       0       0       0       0       0       0       0       0       0
       0       0       0       0       0       0       0       0       0       0
       0       0       0       0       0       0       0       0       0       0
       0       0       0       0       0       0       0       0       0       0
       0       0       0       0       0       0       0       0       0       0
       0       0       0       0       0       0       0       0       0       0
       0       0       0       0       0       0       0       0       0       0
       0       0       0       0       0       0       0       0       0       0
       0       0       0       0       0       0       0       0       0       0
       0       0       0       0       0       0       0       0       0       0
       0       0       0       0       0       0       0       0       0       0
       0       0       0       0       0       0       0       0       0       0
       0       0       0       0       0       0       0       0       0       0
       0       0       0       0       0       0       0       0       0       0
       0       0       0       0       0       0       0       0       0       0
       0       0       0       0       0       0       0       0       0       0
       0       0       0       0       0       0       0       0       0       0
       0       0       0       0       0       0       0       0       0       0
       0       0       0       0       0       0       0       0       0       0
       0       0       0       0       0       0       0       0       0       0
       0       0       0       0       0       0       0       0       0       0
       0       0       0       0       0       0       0       0       0       0
       0       0       0       0       0       0       0       0       0       0
       0       0       0       0       0       0       0       0       0       0
       0       0       0       0       0       0       0       0       0       0
       0       0       0       0       0       0       0       0       0       0
       0       0       0       0       0       0       0       0       0       0
       0       0       0       0       0       0       0       0       0       0
       0       0       0       0       0       0       0       0       0       0
       0       0       0       0       0       0       0       0       0       0
       0       0       0       0       0       0       0       0       0       0
       0       0       0       0       0       0       0       0       0       0
       0       0       0       0       0       0       0       0       0       0
       0       0       0       0       0       0       0       0       0       0
       0       0       0       0       0       0       0       0       0       0
       0       0       0       0       0       0       0       0       0       0
       0       0       0       0       0       0       0       0       0       0
       0       0       0       0       0       0       0       0       0       0
       0       0       0       0       0       0       0       0       0       0
       0       0       0       0       0       0       0       0       0       0
       0       0       0       0       0       0       0       0       0       0
       0       0       0       0       0       0       0       0       0       0
       0       0       0       0       0       0       0       0       0       0
       0       0       0       0       0       0       0       0       0       0
       0       0       0       0       0       0       0       0       0       0
       0       0       0       0       0       0       0       0       0       0
       0       0       0       0       0       0       0       0       0       0
       0       0       0       0       0       0       0       0       0       0
       0       0       0       0       0       0       0       0       0       0
       0       0       0       0       0       0       0       0       0       0
       0       0       0       0       0       0       0       0       0       0
       0       0       0       0       0       0       0       0       0       0
       0       0       0       0       0       0       0       0       0       0
       0       0       0       0       0       0       0       0       0       0
       0       0       0       0       0       0       0       0       0       0
       0       0       0       0       0       0       0       0       0       0
       0       0       0       0       0       0       0       0       0       0
       0       0       0       0       0       0       0       0       0       0
       0       0       0       0       0       0       0       0       0       0
       0       0       0       0       0       0       0       0       0       0
       0       0       0       0       0       0       0       0       0       0
       0       0       0       0       0       0       0       0       0       0
       0       0       0       0       0       0       0       0       0       0
       0       0       0       0       0       0       0       0       0       0
       0       0       0       0       0       0       0       0       0       0
       0       0       0       0       0       0       0       0       0       0
       0       0       0       0       0       0       0       0       0       0
       0       0       0       0       0       0       0       0       0       0
       0       0       0       0       0       0       0       0       0       0
       0       0       0       0       0       0       0       0       0       0
       0       0       0       0       0       0       0       0       0       0
       0       0       0       0       0       0       0       0       0       0
       0       0       0       0       0       0       0       0       0       0
       0       0       0       0       0       0       0       0       0       0
       0       0       0       0       0       0       0       0       0       0
       0       0       0       0       0       0       0       0       0       0
       0       0       0       0       0       0       0       0       0       0
       0       0       0       0       0       0       0       0       0
%FLAG IROTAT                                                                    
%FORMAT(10I8)                                                                   
       0       0       0       0       0       0       0       0       0       0
       0       0       0       0       0       0       0       0       0       0
       0       0       0       0       0       0       0       0       0       0
       0       0       0       0       0       0       0       0       0       0
       0       0       0       0       0       0       0       0       0       0
       0       0       0       0       0       0       0       0       0       0
       0       0       0       0       0       0       0       0       0       0
       0       0       0       0       0       0       0       0       0       0
       0       0       0       0       0       0       0       0       0       0
       0       0       0       0       0       0       0       0       0       0
       0       0       0       0       0       0       0       0       0       0
       0       0       0       0       0       0       0       0       0       0
       0       0       0       0       0       0       0       0       0       0
       0       0       0       0       0       0       0       0       0       0
       0       0       0       0       0       0       0       0       0       0
       0       0       0       0       0       0       0       0       0       0
       0       0       0       0       0       0       0       0       0       0
       0       0       0       0       0       0       0       0       0       0
       0       0       0       0       0       0       0       0       0       0
       0       0       0       0       0       0       0       0       0       0
       0       0       0       0       0       0       0       0       0       0
       0       0       0       0       0       0       0       0       0       0
       0       0       0       0       0       0       0       0       0       0
       0       0       0       0       0       0       0       0       0       0
       0       0       0       0       0       0       0       0       0       0
       0       0       0       0       0       0       0       0       0       0
       0       0       0       0       0       0       0       0       0       0
       0       0       0       0       0       0       0       0       0       0
       0       0       0       0       0       0       0       0       0       0
       0       0       0       0       0       0       0       0       0       0
       0       0       0       0       0       0       0       0       0       0
       0       0       0       0       0       0       0       0       0       0
       0       0       0       0       0       0       0       0       0       0
       0       0       0       0       0       0       0       0       0       0
       0       0       0       0       0       0       0       0       0       0
       0       0       0       0       0       0       0       0       0       0
       0       0       0       0       0       0       0       0       0       0
       0       0       0       0       0       0       0       0       0       0
       0       0       0       0       0       0       0       0       0       0
       0       0       0       0       0       0       0       0       0       0
       0       0       0       0       0       0       0       0       0       0
       0       0       0       0       0       0       0       0       0       0
       0       0       0       0       0       0       0       0       0       0
       0       0       0       0       0       0       0       0       0       0
       0       0       0       0       0       0       0       0       0       0
       0       0       0       0       0       0       0       0       0       0
       0       0       0       0       0       0       0       0       0       0
       0       0       0       0       0       0       0       0       0       0
       0       0       0       0       0       0       0       0       0       0
       0       0       0       0       0       0       0       0       0       0
       0       0       0       0       0       0       0       0       0       0
       0       0       0       0       0       0       0       0       0       0
       0       0       0       0       0       0       0       0       0       0
       0       0       0       0       0       0       0       0       0       0
       0       0       0       0       0       0       0       0       0       0
       0       0       0       0       0       0       0       0       0       0
       0       0       0       0       0       0       0       0       0       0
       0       0       0       0       0       0       0       0       0       0
       0       0       0       0       0       0       0       0       0       0
       0       0       0       0       0       0       0       0       0       0
       0       0       0       0       0       0       0       0       0       0
       0       0       0       0       0       0       0       0       0       0
       0       0       0       0       0       0       0       0       0       0
       0       0       0       0       0       0       0       0       0       0
       0       0       0       0       0       0       0       0       0       0
       0       0       0       0       0       0       0       0       0       0
       0       0       0       0       0       0       0       0       0       0
       0       0       0       0       0       0       0       0       0       0
       0       0       0       0       0       0       0       0       0       0
       0       0       0       0       0       0       0       0       0       0
       0       0       0       0       0       0       0       0       0       0
       0       0       0       0       0       0       0       0       0       0
       0       0       0       0       0       0       0       0       0       0
       0       0       0       0       0       0       0       0       0       0
       0       0       0       0       0       0       0       0       0       0
       0       0       0       0       0       0       0       0       0       0
       0       0       0       0       0       0       0       0       0       0
       0       0       0       0       0       0       0       0       0       0
       0       0       0       0       0       0       0       0       0       0
       0       0       0       0       0       0       0       0       0       0
       0       0       0       0       0       0       0       0       0       0
       0       0       0       0       0       0       0       0       0       0
       0       0       0       0       0       0       0       0       0       0
       0       0       0       0       0       0       0       0       0       0
       0       0       0       0       0       0       0       0       0       0
       0       0       0       0       0       0       0       0       0       0
       0       0       0       0       0       0       0       0       0       0
       0       0       0       0       0       0       0       0       0       0
       0       0       0       0       0       0       0       0       0       0
       0       0       0       0       0       0       0       0       0       0
       0       0       0       0       0       0       0       0       0       0
       0       0       0       0       0       0       0       0       0       0
       0       0       0       0       0       0       0       0       0       0
       0       0       0       0       0       0       0       0       0       0
       0       0       0       0       0       0       0       0       0       0
       0       0       0       0       0       0       0       0       0       0
       0       0       0       0       0       0       0       0       0       0
       0       0       0       0       0       0       0       0       0       0
       0       0       0       0       0       0       0       0       0       0
       0       0       0       0       0       0       0       0       0       0
       0       0       0       0       0       0       0       0       0       0
       0       0       0       0       0       0       0       0       0       0
       0       0       0       0       0       0       0       0       0       0
       0       0       0       0       0       0       0       0       0       0
       0       0       0       0       0       0       0       0       0       0
       0       0       0       0       0       0       0       0       0       0
       0       0       0       0       0       0       0       0       0       0
       0       0       0       0       0       0       0       0       0       0
       0       0       0       0       0       0       0       0       0       0
       0       0       0       0       0       0       0       0       0       0
       0       0       0       0       0       0       0       0       0       0
       0       0       0       0       0       0       0       0       0       0
       0       0       0       0       0       0       0       0       0       0
       0       0       0       0       0       0       0       0       0       0
       0       0       0       0       0       0       0       0       0       0
       0       0       0       0       0       0       0       0       0       0
       0       0       0       0       0       0       0       0       0       0
       0       0       0       0       0       0       0       0       0       0
       0       0       0       0       0       0       0       0       0       0
       0       0       0       0       0       0       0       0       0       0
       0       0       0       0       0       0       0       0       0       0
       0       0       0       0       0       0       0       0       0       0
       0       0       0       0       0       0       0       0       0       0
       0       0       0       0       0       0       0       0       0       0
       0       0       0       0       0       0       0       0       0       0
       0       0       0       0       0       0       0       0       0       0
       0       0       0       0       0       0       0       0       0       0
       0       0       0       0       0       0       0       0       0       0
       0       0       0       0       0       0       0       0       0       0
       0       0       0       0       0       0       0       0       0       0
       0       0       0       0       0       0       0       0       0       0
       0       0       0       0       0       0       0       0       0       0
       0       0       0       0       0       0       0       0       0       0
       0       0       0       0       0       0       0       0       0       0
       0       0       0       0       0       0       0       0       0       0
       0       0       0       0       0       0       0       0       0       0
       0       0       0       0       0       0       0       0       0       0
       0       0       0       0       0       0       0       0       0       0
       0       0       0       0       0       0       0       0       0       0
       0       0       0       0       0       0       0       0       0       0
       0       0       0       0       0       0       0       0       0       0
       0       0       0       0       0       0       0       0       0       0
       0       0       0       0       0       0       0       0       0       0
       0       0       0       0       0       0       0       0       0       0
       0       0       0       0       0       0       0       0       0       0
       0       0       0       0       0       0       0       0       0       0
       0       0       0       0       0       0       0       0       0       0
       0       0       0       0       0       0       0       0       0       0
       0       0       0       0       0       0       0       0       0       0
       0       0       0       0       0       0       0       0       0       0
       0       0       0       0       0       0       0       0       0       0
       0       0       0       0       0       0       0       0       0       0
       0       0       0       0       0       0       0       0       0       0
       0       0       0       0       0       0       0       0       0       0
       0       0       0       0       0       0       0       0       0       0
       0       0       0       0       0       0       0       0       0       0
       0       0       0       0       0       0       0       0       0       0
       0       0       0       0       0       0       0       0       0       0
       0       0       0       0       0       0       0       0       0       0
       0       0       0       0       0       0       0       0       0       0
       0       0       0       0       0       0       0       0       0       0
       0       0       0       0       0       0       0       0       0       0
       0       0       0       0       0       0       0       0       0       0
       0       0       0       0       0       0       0       0       0       0
       0       0       0       0       0       0       0       0       0       0
       0       0       0       0       0       0       0       0       0       0
       0       0       0       0       0       0       0       0       0       0
       0       0       0       0       0       0       0       0       0       0
       0       0       0       0       0       0       0       0       0       0
       0       0       0       0       0       0       0       0       0       0
       0       0       0       0       0       0       0       0       0       0
       0       0       0       0       0       0       0       0       0       0
       0       0       0       0       0       0       0       0       0       0
       0       0       0       0       0       0       0       0       0       0
       0       0       0       0       0       0       0       0       0       0
       0       0       0       0       0       0       0       0       0       0
       0       0       0       0       0       0       0       0       0       0
       0       0       0       0       0       0       0       0       0       0
       0       0       0       0       0       0       0       0       0       0
       0       0       0       0       0       0       0       0       0       0
       0       0       0       0       0       0       0       0       0       0
       0       0       0       0       0       0       0       0       0       0
       0       0       0       0       0       0       0       0       0       0
       0       0       0       0       0       0       0       0       0       0
       0       0       0       0       0       0       0       0       0       0
       0       0       0       0       0       0       0       0       0       0
       0       0       0       0       0       0       0       0       0       0
       0       0       0       0       0       0       0       0       0       0
       0       0       0       0       0       0       0       0       0       0
       0       0       0       0       0       0       0       0       0       0
       0       0       0       0       0       0       0       0       0       0
       0       0       0       0       0       0       0       0       0       0
       0       0       0       0       0       0       0       0       0       0
       0       0       0       0       0       0       0       0       0       0
       0       0       0       0       0       0       0       0       0       0
       0       0       0       0       0       0       0       0       0       0
       0       0       0       0       0       0       0       0       0       0
       0       0       0       0       0       0       0       0       0       0
       0       0       0       0       0       0       0       0       0       0
       0       0       0       0       0       0       0       0       0       0
       0       0       0       0       0       0       0       0       0       0
       0       0       0       0       0       0       0       0       0       0
       0       0       0       0       0       0       0       0       0       0
       0       0       0       0       0       0       0       0       0       0
       0       0       0       0       0       0       0       0       0       0
       0       0       0       0       0       0       0       0       0       0
       0       0       0       0       0       0       0       0       0       0
       0       0       0       0       0       0       0       0       0       0
       0       0       0       0       0       0       0       0       0       0
       0       0       0       0       0       0       0       0       0       0
       0       0       0       0       0       0       0       0       0       0
       0       0       0       0       0       0       0       0       0       0
       0       0       0       0       0       0       0       0       0       0
       0       0       0       0       0       0       0       0       0       0
       0       0       0       0       0       0       0       0       0       0
       0       0       0       0       0       0       0       0       0       0
       0       0       0       0       0       0       0       0       0       0
       0       0       0       0       0       0       0       0       0       0
       0       0       0       0       0       0       0       0       0       0
       0       0       0       0       0       0       0       0       0       0
       0       0       0       0       0       0       0       0       0       0
       0       0       0       0       0       0       0       0       0       0
       0       0       0       0       0       0       0       0       0       0
       0       0       0       0       0       0       0       0       0       0
       0       0       0       0       0       0       0       0       0       0
       0       0       0       0       0       0       0       0       0       0
       0       0       0       0       0       0       0       0       0       0
       0       0       0       0       0       0       0       0       0       0
       0       0       0       0       0       0       0       0       0       0
       0       0       0       0       0       0       0       0       0       0
       0       0       0       0       0       0       0       0       0       0
       0       0       0       0       0       0       0       0       0       0
       0       0       0       0       0       0       0       0       0       0
       0       0       0       0       0       0       0       0       0       0
       0       0       0       0       0       0       0       0       0       0
       0       0       0       0       0       0       0       0       0       0
       0       0       0       0       0       0       0       0       0       0
       0       0       0       0       0       0       0       0       0       0
       0       0       0       0       0       0       0       0       0       0
       0       0       0       0       0       0       0       0       0       0
       0       0       0       0       0       0       0       0       0       0
       0       0       0       0       0       0       0       0       0       0
       0       0       0       0       0       0       0       0       0       0
       0       0       0       0       0       0       0       0       0       0
       0       0       0       0       0       0       0       0       0       0
       0       0       0       0       0       0       0       0       0       0
       0       0       0       0       0       0       0       0       0       0
       0       0       0       0       0       0       0       0       0       0
       0       0       0       0       0       0       0       0       0       0
       0       0       0       0       0       0       0       0       0       0
       0       0       0       0       0       0       0       0       0       0
       0       0       0       0       0       0       0       0       0       0
       0       0       0       0       0       0       0       0       0       0
       0       0       0       0       0       0       0       0       0       0
       0       0       0       0       0       0       0       0       0       0
       0       0       0       0       0       0       0       0       0       0
       0       0       0       0       0       0       0       0       0       0
       0       0       0       0       0       0       0       0       0       0
       0       0       0       0       0       0       0       0       0       0
       0       0       0       0       0       0       0       0       0       0
       0       0       0       0       0       0       0       0       0       0
       0       0       0       0       0       0       0       0       0       0
       0       0       0       0       0       0       0       0       0       0
       0       0       0       0       0       0       0       0       0       0
       0       0       0       0       0       0       0       0       0       0
       0       0       0       0       0       0       0       0       0       0
       0       0       0       0       0       0       0       0       0       0
       0       0       0       0       0       0       0       0       0       0
       0       0       0       0       0       0       0       0       0       0
       0       0       0       0       0       0       0       0       0       0
       0       0       0       0       0       0       0       0       0       0
       0       0       0       0       0       0       0       0       0       0
       0       0       0       0       0       0       0       0       0       0
       0       0       0       0       0       0       0       0       0       0
       0       0       0       0       0       0       0       0       0       0
       0       0       0       0       0       0       0       0       0       0
       0       0       0       0       0       0       0       0       0       0
       0       0       0       0       0       0       0       0       0       0
       0       0       0       0       0       0       0       0       0       0
       0       0       0       0       0       0       0       0       0       0
       0       0       0       0       0       0       0       0       0       0
       0       0       0       0       0       0       0       0       0       0
       0       0       0       0       0       0       0       0       0       0
       0       0       0       0       0       0       0       0       0       0
       0       0       0       0       0       0       0       0       0       0
       0       0       0       0       0       0       0       0       0       0
       0       0       0       0       0       0       0       0       0       0
       0       0       0       0       0       0       0       0       0       0
       0       0       0       0       0       0       0       0       0       0
       0       0       0       0       0       0       0       0       0       0
       0       0       0       0       0       0       0       0       0       0
       0       0       0       0       0       0       0       0       0       0
       0       0       0       0       0       0       0       0       0       0
       0       0       0       0       0       0       0       0       0       0
       0       0       0       0       0       0       0       0       0       0
       0       0       0       0       0       0       0       0       0       0
       0       0       0       0       0       0       0       0       0       0
       0       0       0       0       0       0       0       0       0       0
       0       0       0       0       0       0       0       0       0       0
       0       0       0       0       0       0       0       0       0       0
       0       0       0       0       0       0       0       0       0       0
       0       0       0       0       0       0       0       0       0       0
       0       0       0       0       0       0       0       0       0       0
       0       0       0       0       0       0       0       0       0       0
       0       0       0       0       0       0       0       0       0       0
       0       0       0       0       0       0       0       0       0       0
       0       0       0       0       0       0       0       0       0       0
       0       0       0       0       0       0       0       0       0       0
       0       0       0       0       0       0       0       0       0       0
       0       0       0       0       0       0       0       0       0       0
       0       0       0       0       0       0       0       0       0       0
       0       0       0       0       0       0       0       0       0       0
       0       0       0       0       0       0       0       0       0       0
       0       0       0       0       0       0       0       0       0       0
       0       0       0       0       0       0       0       0       0       0
       0       0       0       0       0       0       0       0       0       0
       0       0       0       0       0       0       0       0       0       0
       0       0       0       0       0       0       0       0       0       0
       0       0       0       0       0       0       0       0       0       0
       0       0       0       0       0       0       0       0       0       0
       0       0       0       0       0       0       0       0       0       0
       0       0       0       0       0       0       0       0       0       0
       0       0       0       0       0       0       0       0       0       0
       0       0       0       0       0       0       0       0       0       0
       0       0       0       0       0       0       0       0       0       0
       0       0       0       0       0       0       0       0       0       0
       0       0       0       0       0       0       0       0       0       0
       0       0       0       0       0       0       0       0       0       0
       0       0       0       0       0       0       0       0       0       0
       0       0       0       0       0       0       0       0       0       0
       0       0       0       0       0       0       0       0       0       0
       0       0       0       0       0       0       0       0       0       0
       0       0       0       0       0       0       0       0       0       0
       0       0       0       0       0       0       0       0       0       0
       0       0       0       0       0       0       0       0       0       0
       0       0       0       0       0       0       0       0       0       0
       0       0       0       0       0       0       0       0       0       0
       0       0       0       0       0       0       0       0       0       0
       0       0       0       0       0       0       0       0       0       0
       0       0       0       0       0       0       0       0       0       0
       0       0       0       0       0       0       0       0       0       0
       0       0       0       0       0       0       0       0       0       0
       0       0       0       0       0       0       0       0       0       0
       0       0       0       0       0       0       0       0       0       0
       0       0       0       0       0       0       0       0       0       0
       0       0       0       0       0       0       0       0       0       0
       0       0       0       0       0       0       0       0       0       0
       0       0       0       0       0       0       0       0       0       0
       0       0       0       0       0       0       0       0       0       0
       0       0       0       0       0       0       0       0       0       0
       0       0       0       0       0       0       0       0       0       0
       0       0       0       0       0       0       0       0       0       0
       0       0       0       0       0       0       0       0       0       0
       0       0       0       0       0       0       0       0       0       0
       0       0       0       0       0       0       0       0       0       0
       0       0       0       0       0       0       0       0       0       0
       0       0       0       0       0       0       0       0       0       0
       0       0       0       0       0       0       0       0       0       0
       0       0       0       0       0       0       0       0       0       0
       0       0       0       0       0       0       0       0       0       0
       0       0       0       0       0       0       0       0       0       0
       0       0       0       0       0       0       0       0       0       0
       0       0       0       0       0       0       0       0       0       0
       0       0       0       0       0       0       0       0       0       0
       0       0       0       0       0       0       0       0       0       0
       0       0       0       0       0       0       0       0       0       0
       0       0       0       0       0       0       0       0       0       0
       0       0       0       0       0       0       0       0       0       0
       0       0       0       0       0       0       0       0       0       0
       0       0       0       0       0       0       0       0       0       0
       0       0       0       0       0       0       0       0       0       0
       0       0       0       0       0       0       0       0       0       0
       0       0       0       0       0       0       0       0       0       0
       0       0       0       0       0       0       0       0       0       0
       0       0       0       0       0       0       0       0       0       0
       0       0       0       0       0       0       0       0       0       0
       0       0       0       0       0       0       0       0       0       0
       0       0       0       0       0       0       0       0       0       0
       0       0       0       0       0       0       0       0       0       0
       0       0       0       0       0       0       0       0       0       0
       0       0       0       0       0       0       0       0       0       0
       0       0       0       0       0       0       0       0       0       0
       0       0       0       0       0       0       0       0       0       0
       0       0       0       0       0       0       0       0       0       0
       0       0       0       0       0       0       0       0       0       0
       0       0       0       0       0       0       0       0       0       0
       0       0       0       0       0       0       0       0       0       0
       0       0       0       0       0       0       0       0       0       0
       0       0       0       0       0       0       0       0       0       0
       0       0       0       0       0       0       0       0       0       0
       0       0       0       0       0       0       0       0       0       0
       0       0       0       0       0       0       0       0       0       0
       0       0       0       0       0       0       0       0       0       0
       0       0       0       0       0       0       0       0       0       0
       0       0       0       0       0       0       0       0       0       0
       0       0       0       0       0       0       0       0       0       0
       0       0       0       0       0       0       0       0       0       0
       0       0       0       0       0       0       0       0       0       0
       0       0       0       0       0       0       0       0       0       0
       0       0       0       0       0       0       0       0       0       0
       0       0       0       0       0       0       0       0       0       0
       0       0       0       0       0       0       0       0       0       0
       0       0       0       0       0       0       0       0       0       0
       0       0       0       0       0       0       0       0       0       0
       0       0       0       0       0       0       0       0       0       0
       0       0       0       0       0       0       0       0       0       0
       0       0       0       0       0       0       0       0       0       0
       0       0       0       0       0       0       0       0       0       0
       0       0       0       0       0       0       0       0       0       0
       0       0       0       0       0       0       0       0       0       0
       0       0       0       0       0       0       0       0       0       0
       0       0       0       0       0       0       0       0       0       0
       0       0       0       0       0       0       0       0       0       0
       0       0       0       0       0       0       0       0       0       0
       0       0       0       0       0       0       0       0       0       0
       0       0       0       0       0       0       0       0       0       0
       0       0       0       0       0       0       0       0       0       0
       0       0       0       0       0       0       0       0       0       0
       0       0       0       0       0       0       0       0       0       0
       0       0       0       0       0       0       0       0       0       0
       0       0       0       0       0       0       0       0       0       0
       0       0       0       0       0       0       0       0       0       0
       0       0       0       0       0       0       0       0       0       0
       0       0       0       0       0       0       0       0       0       0
       0       0       0       0       0       0       0       0       0       0
       0       0       0       0       0       0       0       0       0       0
       0       0       0       0       0       0       0       0       0       0
       0       0       0       0       0       0       0       0       0       0
       0       0       0       0       0       0       0       0       0       0
       0       0       0       0       0       0       0       0       0       0
       0       0       0       0       0       0       0       0       0       0
       0       0       0       0       0       0       0       0       0       0
       0       0       0       0       0       0       0       0       0       0
       0       0       0       0       0       0       0       0       0       0
       0       0       0       0       0       0       0       0       0       0
       0       0       0       0       0       0       0       0       0       0
       0       0       0       0       0       0       0       0       0       0
       0       0       0       0       0       0       0       0       0       0
       0       0       0       0       0       0       0       0       0       0
       0       0       0       0       0       0       0       0       0       0
       0       0       0       0       0       0       0       0       0       0
       0       0       0       0       0       0       0       0       0       0
       0       0       0       0       0       0       0       0       0       0
       0       0       0       0       0       0       0       0       0       0
       0       0       0       0       0       0       0       0       0       0
       0       0       0       0       0       0       0       0       0       0
       0       0       0       0       0       0       0       0       0       0
       0       0       0       0       0       0       0       0       0       0
       0       0       0       0       0       0       0       0       0       0
       0       0       0       0       0       0       0       0       0       0
       0       0       0       0       0       0       0       0       0       0
       0       0       0       0       0       0       0       0       0       0
       0       0       0       0       0       0       0       0       0       0
       0       0       0       0       0       0       0       0       0       0
       0       0       0       0       0       0       0       0       0       0
       0       0       0       0       0       0       0       0       0       0
       0       0       0       0       0       0       0       0       0       0
       0       0       0       0       0       0       0       0       0       0
       0       0       0       0       0       0       0       0       0       0
       0       0       0       0       0       0       0       0       0       0
       0       0       0       0       0       0       0       0       0       0
       0       0       0       0       0       0       0       0       0       0
       0       0       0       0       0       0       0       0       0       0
       0       0       0       0       0       0       0       0       0       0
       0       0       0       0       0       0       0       0       0       0
       0       0       0       0       0       0       0       0       0       0
       0       0       0       0       0       0       0       0       0       0
       0       0       0       0       0       0       0       0       0       0
       0       0       0       0       0       0       0       0       0       0
       0       0       0       0       0       0       0       0       0       0
       0       0       0       0       0       0       0       0       0       0
       0       0       0       0       0       0       0       0       0       0
       0       0       0       0       0       0       0       0       0       0
       0       0       0       0       0       0       0       0       0       0
       0       0       0       0       0       0       0       0       0       0
       0       0       0       0       0       0       0       0       0       0
       0       0       0       0       0       0       0       0       0       0
       0       0       0       0       0       0       0       0       0       0
       0       0       0       0       0       0       0       0       0       0
       0       0       0       0       0       0       0       0       0       0
       0       0       0       0       0       0       0       0       0       0
       0       0       0       0       0       0       0       0       0       0
       0       0       0       0       0       0       0       0       0       0
       0       0       0       0       0       0       0       0       0       0
       0       0       0       0       0       0       0       0       0       0
       0       0       0       0       0       0       0       0       0       0
       0       0       0       0       0       0       0       0       0       0
       0       0       0       0       0       0       0       0       0       0
       0       0       0       0       0       0       0       0       0       0
       0       0       0       0       0       0       0       0       0       0
       0       0       0       0       0       0       0       0       0       0
       0       0       0       0       0       0       0       0       0       0
       0       0       0       0       0       0       0       0       0       0
       0       0       0       0       0       0       0       0       0       0
       0       0       0       0       0       0       0       0       0       0
       0       0       0       0       0       0       0       0       0       0
       0       0       0       0       0       0       0       0       0       0
       0       0       0       0       0       0       0       0       0       0
       0       0       0       0       0       0       0       0       0       0
       0       0       0       0       0       0       0       0       0       0
       0       0       0       0       0       0       0       0       0       0
       0       0       0       0       0       0       0       0       0       0
       0       0       0       0       0       0       0       0       0       0
       0       0       0       0       0       0       0       0       0       0
       0       0       0       0       0       0       0       0       0       0
       0       0       0       0       0       0       0       0       0       0
       0       0       0       0       0       0       0       0       0       0
       0       0       0       0       0       0       0       0       0       0
       0       0       0       0       0       0       0       0       0       0
       0       0       0       0       0       0       0       0       0       0
       0       0       0       0       0       0       0       0       0       0
       0       0       0       0       0       0       0       0       0       0
       0       0       0       0       0       0       0       0       0       0
       0       0       0       0       0       0       0       0       0       0
       0       0       0       0       0       0       0       0       0       0
       0       0       0       0       0       0       0       0       0       0
       0       0       0       0       0       0       0       0       0       0
       0       0       0       0       0       0       0       0       0       0
       0       0       0       0       0       0       0       0       0       0
       0       0       0       0       0       0       0       0       0       0
       0       0       0       0       0       0       0       0       0       0
       0       0       0       0       0       0       0       0       0       0
       0       0       0       0       0       0       0       0       0       0
       0       0       0       0       0       0       0       0       0       0
       0       0       0       0       0       0       0       0       0       0
       0       0       0       0       0       0       0       0       0       0
       0       0       0       0       0       0       0       0       0       0
       0       0       0       0       0       0       0       0       0       0
       0       0       0       0       0       0       0       0       0       0
       0       0       0       0       0       0       0       0       0       0
       0       0       0       0       0       0       0       0       0       0
       0       0       0       0       0       0       0       0       0       0
       0       0       0       0       0       0       0       0       0       0
       0       0       0       0       0       0       0       0       0       0
       0       0       0       0       0       0       0       0       0       0
       0       0       0       0       0       0       0       0       0       0
       0       0       0       0       0       0       0       0       0       0
       0       0       0       0       0       0       0       0       0       0
       0       0       0       0       0       0       0       0       0       0
       0       0       0       0       0       0       0       0       0       0
       0       0       0       0       0       0       0       0       0       0
       0       0       0       0       0       0       0       0       0       0
       0       0       0       0       0       0       0       0       0       0
       0       0       0       0       0       0       0       0       0       0
       0       0       0       0       0       0       0       0       0       0
       0       0       0       0       0       0       0       0       0       0
       0       0       0       0       0       0       0       0       0       0
       0       0       0       0       0       0       0       0       0       0
       0       0       0       0       0       0       0       0       0       0
       0       0       0       0       0       0       0       0       0       0
       0       0       0       0       0       0       0       0       0       0
       0       0       0       0       0       0       0       0       0       0
       0       0       0       0       0       0       0       0       0       0
       0       0       0       0       0       0       0       0       0       0
       0       0       0       0       0       0       0       0       0       0
       0       0       0       0       0       0       0       0       0       0
       0       0       0       0       0       0       0       0       0       0
       0       0       0       0       0       0       0       0       0       0
       0       0       0       0       0       0       0       0       0       0
       0       0       0       0       0       0       0       0       0       0
       0       0       0       0       0       0       0       0       0       0
       0       0       0       0       0       0       0       0       0       0
       0       0       0       0       0       0       0       0       0       0
       0       0       0       0       0       0       0       0       0       0
       0       0       0       0       0       0       0       0       0       0
       0       0       0       0       0       0       0       0       0       0
       0       0       0       0       0       0       0       0       0       0
       0       0       0       0       0       0       0       0       0       0
       0       0       0       0       0       0       0       0       0       0
       0       0       0       0       0       0       0       0       0       0
       0       0       0       0       0       0       0       0       0       0
       0       0       0       0       0       0       0       0       0       0
       0       0       0       0       0       0       0       0       0       0
       0       0       0       0       0       0       0       0       0       0
       0       0       0       0       0       0       0       0       0       0
       0       0       0       0       0       0       0       0       0       0
       0       0       0       0       0       0       0       0       0       0
       0       0       0       0       0       0       0       0       0       0
       0       0       0       0       0       0       0       0       0       0
       0       0       0       0       0       0       0       0       0       0
       0       0       0       0       0       0       0       0       0       0
       0       0       0       0       0       0       0       0       0       0
       0       0       0       0       0       0       0       0       0       0
       0       0       0       0       0       0       0       0       0       0
       0       0       0       0       0       0       0       0       0       0
       0       0       0       0       0       0       0       0       0       0
       0       0       0       0       0       0       0       0       0       0
       0       0       0       0       0       0       0       0       0       0
       0       0       0       0       0       0       0       0       0       0
       0       0       0       0       0       0       0       0       0       0
       0       0       0       0       0       0       0       0       0       0
       0       0       0       0       0       0       0       0       0       0
       0       0       0       0       0       0       0       0       0       0
       0       0       0       0       0       0       0       0       0       0
       0       0       0       0       0       0       0       0       0       0
       0       0       0       0       0       0       0       0       0       0
       0       0       0       0       0       0       0       0       0       0
       0       0       0       0       0       0       0       0       0       0
       0       0       0       0       0       0       0       0       0       0
       0       0       0       0       0       0       0       0       0       0
       0       0       0       0       0       0       0       0       0       0
       0       0       0       0       0       0       0       0       0       0
       0       0       0       0       0       0       0       0       0       0
       0       0       0       0       0       0       0       0       0       0
       0       0       0       0       0       0       0       0       0       0
       0       0       0       0       0       0       0       0       0       0
       0       0       0       0       0       0       0       0       0       0
       0       0       0       0       0       0       0       0       0       0
       0       0       0       0       0       0       0       0       0       0
       0       0       0       0       0       0       0       0       0       0
       0       0       0       0       0       0       0       0       0       0
       0       0       0       0       0       0       0       0       0       0
       0       0       0       0       0       0       0       0       0       0
       0       0       0       0       0       0       0       0       0       0
       0       0       0       0       0       0       0       0       0       0
       0       0       0       0       0       0       0       0       0       0
       0       0       0       0       0       0       0       0       0       0
       0       0       0       0       0       0       0       0       0       0
       0       0       0       0       0       0       0       0       0       0
       0       0       0       0       0       0       0       0       0       0
       0       0       0       0       0       0       0       0       0       0
       0       0       0       0       0       0       0       0       0       0
       0       0       0       0       0       0       0       0       0       0
       0       0       0       0       0       0       0       0       0       0
       0       0       0       0       0       0       0       0       0       0
       0       0       0       0       0       0       0       0       0       0
       0       0       0       0       0       0       0       0       0       0
       0       0       0       0       0       0       0       0       0       0
       0       0       0       0       0       0       0       0       0       0
       0       0       0       0       0       0       0       0       0       0
       0       0       0       0       0       0       0       0       0       0
       0       0       0       0       0       0       0       0       0       0
       0       0       0       0       0       0       0       0       0       0
       0       0       0       0       0       0       0       0       0       0
       0       0       0       0       0       0       0       0       0       0
       0       0       0       0       0       0       0       0       0       0
       0       0       0       0       0       0       0       0       0       0
       0       0       0       0       0       0       0       0       0       0
       0       0       0       0       0       0       0       0       0       0
       0       0       0       0       0       0       0       0       0       0
       0       0       0       0       0       0       0       0       0       0
       0       0       0       0       0       0       0       0       0       0
       0       0       0       0       0       0       0       0       0       0
       0       0       0       0       0       0       0       0       0       0
       0       0       0       0       0       0       0       0       0       0
       0       0       0       0       0       0       0       0       0       0
       0       0       0       0       0       0       0       0       0       0
       0       0       0       0       0       0       0       0       0       0
       0       0       0       0       0       0       0       0       0       0
       0       0       0       0       0       0       0       0       0       0
       0       0       0       0       0       0       0       0       0       0
       0       0       0       0       0       0       0       0       0       0
       0       0       0       0       0       0       0       0       0       0
       0       0       0       0       0       0       0       0       0       0
       0       0       0       0       0       0       0       0       0       0
       0       0       0       0       0       0       0       0       0       0
       0       0       0       0       0       0       0       0       0       0
       0       0       0       0       0       0       0       0       0       0
       0       0       0       0       0       0       0       0       0       0
       0       0       0       0       0       0       0       0       0       0
       0       0       0       0       0       0       0       0       0       0
       0       0       0       0       0       0       0       0       0       0
       0       0       0       0       0       0       0       0       0       0
       0       0       0       0       0       0       0       0       0       0
       0       0       0       0       0       0       0       0       0       0
       0       0       0       0       0       0       0       0       0       0
       0       0       0       0       0       0       0       0       0       0
       0       0       0       0       0       0       0       0       0       0
       0       0       0       0       0       0       0       0       0       0
       0       0       0       0       0       0       0       0       0       0
       0       0       0       0       0       0       0       0       0       0
       0       0       0       0       0       0       0       0       0       0
       0       0       0       0       0       0       0       0       0       0
       0       0       0       0       0       0       0       0       0       0
       0       0       0       0       0       0       0       0       0       0
       0       0       0       0       0       0       0       0       0       0
       0       0       0       0       0       0       0       0       0       0
       0       0       0       0       0       0       0       0       0       0
       0       0       0       0       0       0       0       0       0       0
       0       0       0       0       0       0       0       0       0       0
       0       0       0       0       0       0       0       0       0       0
       0       0       0       0       0       0       0       0       0       0
       0       0       0       0       0       0       0       0       0       0
       0       0       0       0       0       0       0       0       0       0
       0       0       0       0       0       0       0       0       0       0
       0       0       0       0       0       0       0       0       0       0
       0       0       0       0       0       0       0       0       0       0
       0       0       0       0       0       0       0       0       0       0
       0       0       0       0       0       0       0       0       0       0
       0       0       0       0       0       0       0       0       0       0
       0       0       0       0       0       0       0       0       0       0
       0       0       0       0       0       0       0       0       0       0
       0       0       0       0       0       0       0       0       0       0
       0       0       0       0       0       0       0       0       0       0
       0       0       0       0       0       0       0       0       0       0
       0       0       0       0       0       0       0       0       0       0
       0       0       0       0       0       0       0       0       0       0
       0       0       0       0       0       0       0       0       0       0
       0       0       0       0       0       0       0       0       0       0
       0       0       0       0       0       0       0       0       0       0
       0       0       0       0       0       0       0       0       0       0
       0       0       0       0       0       0       0       0       0       0
       0       0       0       0       0       0       0       0       0       0
       0       0       0       0       0       0       0       0       0       0
       0       0       0       0       0       0       0       0       0       0
       0       0       0       0       0       0       0       0       0       0
       0       0       0       0       0       0       0       0       0       0
       0       0       0       0       0       0       0       0       0       0
       0       0       0       0       0       0       0       0       0       0
       0       0       0       0       0       0       0       0       0       0
       0       0       0       0       0       0       0       0       0       0
       0       0       0       0       0       0       0       0       0       0
       0       0       0       0       0       0       0       0       0       0
       0       0       0       0       0       0       0       0       0       0
       0       0       0       0       0       0       0       0       0       0
       0       0       0       0       0       0       0       0       0       0
       0       0       0       0       0       0       0       0       0       0
       0       0       0       0       0       0       0       0       0       0
       0       0       0       0       0       0       0       0       0       0
       0       0       0       0       0       0       0       0       0       0
       0       0       0       0       0       0       0       0       0       0
       0       0       0       0       0       0       0       0       0       0
       0       0       0       0       0       0       0       0       0       0
       0       0       0       0       0       0       0       0       0       0
       0       0       0       0       0       0       0       0       0       0
       0       0       0       0       0       0       0       0       0       0
       0       0       0       0       0       0       0       0       0       0
       0       0       0       0       0       0       0       0       0       0
       0       0       0       0       0       0       0       0       0       0
       0       0       0       0       0       0       0       0       0       0
       0       0       0       0       0       0       0       0       0       0
       0       0       0       0       0       0       0       0       0       0
       0       0       0       0       0       0       0       0       0       0
       0       0       0       0       0       0       0       0       0       0
       0       0       0       0       0       0       0       0       0       0
       0       0       0       0       0       0       0       0       0       0
       0       0       0       0       0       0       0       0       0       0
       0       0       0       0       0       0       0       0       0       0
       0       0       0       0       0       0       0       0       0       0
       0       0       0       0       0       0       0       0       0       0
       0       0       0       0       0       0       0       0       0       0
       0       0       0       0       0       0       0       0       0       0
       0       0       0       0       0       0       0       0       0       0
       0       0       0       0       0       0       0       0       0       0
       0       0       0       0       0       0       0       0       0       0
       0       0       0       0       0       0       0       0       0       0
       0       0       0       0       0       0       0       0       0       0
       0       0       0       0       0       0       0       0       0       0
       0       0       0       0       0       0       0       0       0       0
       0       0       0       0       0       0       0       0       0       0
       0       0       0       0       0       0       0       0       0       0
       0       0       0       0       0       0       0       0       0       0
       0       0       0       0       0       0       0       0       0       0
       0       0       0       0       0       0       0       0       0       0
       0       0       0       0       0       0       0       0       0       0
       0       0       0       0       0       0       0       0       0       0
       0       0       0       0       0       0       0       0       0       0
       0       0       0       0       0       0       0       0       0       0
       0       0       0       0       0       0       0       0       0       0
       0       0       0       0       0       0       0       0       0       0
       0       0       0       0       0       0       0       0       0       0
       0       0       0       0       0       0       0       0       0       0
       0       0       0       0       0       0       0       0       0       0
       0       0       0       0       0       0       0       0       0       0
       0       0       0       0       0       0       0       0       0       0
       0       0       0       0       0       0       0       0       0       0
       0       0       0       0       0       0       0       0       0       0
       0       0       0       0       0       0       0       0       0       0
       0       0       0       0       0       0       0       0       0       0
       0       0       0       0       0       0       0       0       0       0
       0       0       0       0       0       0       0       0       0       0
       0       0       0       0       0       0       0       0       0       0
       0       0       0       0       0       0       0       0       0       0
       0       0       0       0       0       0       0       0       0       0
       0       0       0       0       0       0       0       0       0       0
       0       0       0       0       0       0       0       0       0       0
       0       0       0       0       0       0       0       0       0       0
       0       0       0       0       0       0       0       0       0       0
       0       0       0       0       0       0       0       0       0       0
       0       0       0       0       0       0       0       0       0       0
       0       0       0       0       0       0       0       0       0       0
       0       0       0       0       0       0       0       0       0       0
       0       0       0       0       0       0       0       0       0       0
       0       0       0       0       0       0       0       0       0       0
       0       0       0       0       0       0       0       0       0       0
       0       0       0       0       0       0       0       0       0       0
       0       0       0       0       0       0       0       0       0       0
       0       0       0       0       0       0       0       0       0       0
       0       0       0       0       0       0       0       0       0       0
       0       0       0       0       0       0       0       0       0       0
       0       0       0       0       0       0       0       0       0       0
       0       0       0       0       0       0       0       0       0       0
       0       0       0       0       0       0       0       0       0       0
       0       0       0       0       0       0       0       0       0       0
       0       0       0       0       0       0       0       0       0       0
       0       0       0       0       0       0       0       0       0       0
       0       0       0       0       0       0       0       0       0       0
       0       0       0       0       0       0       0       0       0       0
       0       0       0       0       0       0       0       0       0       0
       0       0       0       0       0       0       0       0       0       0
       0       0       0       0       0       0       0       0       0       0
       0       0       0       0       0       0       0       0       0       0
       0       0       0       0       0       0       0       0       0       0
       0       0       0       0       0       0       0       0       0       0
       0       0       0       0       0       0       0       0       0       0
       0       0       0       0       0       0       0       0       0       0
       0       0       0       0       0       0       0       0       0       0
       0       0       0       0       0       0       0       0       0       0
       0       0       0       0       0       0       0       0       0       0
       0       0       0       0       0       0       0       0       0       0
       0       0       0       0       0       0       0       0       0       0
       0       0       0       0       0       0       0       0       0       0
       0       0       0       0       0       0       0       0       0       0
       0       0       0       0       0       0       0       0       0       0
       0       0       0       0       0       0       0       0       0       0
       0       0       0       0       0       0       0       0       0       0
       0       0       0       0       0       0       0       0       0       0
       0       0       0       0       0       0       0       0       0       0
       0       0       0       0       0       0       0       0       0       0
       0       0       0       0       0       0       0       0       0       0
       0       0       0       0       0       0       0       0       0       0
       0       0       0       0       0       0       0       0       0       0
       0       0       0       0       0       0       0       0       0       0
       0       0       0       0       0       0       0       0       0       0
       0       0       0       0       0       0       0       0       0       0
       0       0       0       0       0       0       0       0       0       0
       0       0       0       0       0       0       0       0       0       0
       0       0       0       0       0       0       0       0       0       0
       0       0       0       0       0       0       0       0       0       0
       0       0       0       0       0       0       0       0       0       0
       0       0       0       0       0       0       0       0       0       0
       0       0       0       0       0       0       0       0       0       0
       0       0       0       0       0       0       0       0       0       0
       0       0       0       0       0       0       0       0       0       0
       0       0       0       0       0       0       0       0       0       0
       0       0       0       0       0       0       0       0       0       0
       0       0       0       0       0       0       0       0       0       0
       0       0       0       0       0       0       0       0       0       0
       0       0       0       0       0       0       0       0       0       0
       0       0       0       0       0       0       0       0       0       0
       0       0       0       0       0       0       0       0       0       0
       0       0       0       0       0       0       0       0       0       0
       0       0       0       0       0       0       0       0       0       0
       0       0       0       0       0       0       0       0       0       0
       0       0       0       0       0       0       0       0       0       0
       0       0       0       0       0       0       0       0       0       0
       0       0       0       0       0       0       0       0       0       0
       0       0       0       0       0       0       0       0       0       0
       0       0       0       0       0       0       0       0       0       0
       0       0       0       0       0       0       0       0       0       0
       0       0       0       0       0       0       0       0       0       0
       0       0       0       0       0       0       0       0       0       0
       0       0       0       0       0       0       0       0       0       0
       0       0       0       0       0       0       0       0       0       0
       0       0       0       0       0       0       0       0       0       0
       0       0       0       0       0       0       0       0       0       0
       0       0       0       0       0       0       0       0       0       0
       0       0       0       0       0       0       0       0       0       0
       0       0       0       0       0       0       0       0       0       0
       0       0       0       0       0       0       0       0       0       0
       0       0       0       0       0       0       0       0       0       0
       0       0       0       0       0       0       0       0       0       0
       0       0       0       0       0       0       0       0       0       0
       0       0       0       0       0       0       0       0       0       0
       0       0       0       0       0       0       0       0       0       0
       0       0       0       0       0       0       0       0       0       0
       0       0       0       0       0       0       0       0       0       0
       0       0       0       0       0       0       0       0       0       0
       0       0       0       0       0       0       0       0       0       0
       0       0       0       0       0       0       0       0       0       0
       0       0       0       0       0       0       0       0       0       0
       0       0       0       0       0       0       0       0       0       0
       0       0       0       0       0       0       0       0       0       0
       0       0       0       0       0       0       0       0       0       0
       0       0       0       0       0       0       0       0       0       0
       0       0       0       0       0       0       0       0       0       0
       0       0       0       0       0       0       0       0       0       0
       0       0       0       0       0       0       0       0       0       0
       0       0       0       0       0       0       0       0       0       0
       0       0       0       0       0       0       0       0       0       0
       0       0       0       0       0       0       0       0       0       0
       0       0       0       0       0       0       0       0       0       0
       0       0       0       0       0       0       0       0       0       0
       0       0       0       0       0       0       0       0       0       0
       0       0       0       0       0       0       0       0       0       0
       0       0       0       0       0       0       0       0       0       0
       0       0       0       0       0       0       0       0       0       0
       0       0       0       0       0       0       0       0       0       0
       0       0       0       0       0       0       0       0       0       0
       0       0       0       0       0       0       0       0       0       0
       0       0       0       0       0       0       0       0       0       0
       0       0       0       0       0       0       0       0       0       0
       0       0       0       0       0       0       0       0       0       0
       0       0       0       0       0       0       0       0       0       0
       0       0       0       0       0       0       0       0       0       0
       0       0       0       0       0       0       0       0       0       0
       0       0       0       0       0       0       0       0       0       0
       0       0       0       0       0       0       0       0       0       0
       0       0       0       0       0       0       0       0       0       0
       0       0       0       0       0       0       0       0       0       0
       0       0       0       0       0       0       0       0       0       0
       0       0       0       0       0       0       0       0       0       0
       0       0       0       0       0       0       0       0       0       0
       0       0       0       0       0       0       0       0       0       0
       0       0       0       0       0       0       0       0       0       0
       0       0       0       0       0       0       0       0       0       0
       0       0       0       0       0       0       0       0       0       0
       0       0       0       0       0       0       0       0       0       0
       0       0       0       0       0       0       0       0       0       0
       0       0       0       0       0       0       0       0       0       0
       0       0       0       0       0       0       0       0       0       0
       0       0       0       0       0       0       0       0       0       0
       0       0       0       0       0       0       0       0       0       0
       0       0       0       0       0       0       0       0       0       0
       0       0       0       0       0       0       0       0       0       0
       0       0       0       0       0       0       0       0       0       0
       0       0       0       0       0       0       0       0       0       0
       0       0       0       0       0       0       0       0       0       0
       0       0       0       0       0       0       0       0       0       0
       0       0       0       0       0       0       0       0       0       0
       0       0       0       0       0       0       0       0       0       0
       0       0       0       0       0       0       0       0       0       0
       0       0       0       0       0       0       0       0       0       0
       0       0       0       0       0       0       0       0       0       0
       0       0       0       0       0       0       0       0       0       0
       0       0       0       0       0       0       0       0       0       0
       0       0       0       0       0       0       0       0       0       0
       0       0       0       0       0       0       0       0       0       0
       0       0       0       0       0       0       0       0       0       0
       0       0       0       0       0       0       0       0       0       0
       0       0       0       0       0       0       0       0       0       0
       0       0       0       0       0       0       0       0       0       0
       0       0       0       0       0       0       0       0       0       0
       0       0       0       0       0       0       0       0       0       0
       0       0       0       0       0       0       0       0       0       0
       0       0       0       0       0       0       0       0       0       0
       0       0       0       0       0       0       0       0       0       0
       0       0       0       0       0       0       0       0       0       0
       0       0       0       0       0       0       0       0       0       0
       0       0       0       0       0       0       0       0       0       0
       0       0       0       0       0       0       0       0       0       0
       0       0       0       0       0       0       0       0       0       0
       0       0       0       0       0       0       0       0       0       0
       0       0       0       0       0       0       0       0       0       0
       0       0       0       0       0       0       0       0       0       0
       0       0       0       0       0       0       0       0       0       0
       0       0       0       0       0       0       0       0       0       0
       0       0       0       0       0       0       0       0       0       0
       0       0       0       0       0       0       0       0       0       0
       0       0       0       0       0       0       0       0       0       0
       0       0       0       0       0       0       0       0       0       0
       0       0       0       0       0       0       0       0       0       0
       0       0       0       0       0       0       0       0       0       0
       0       0       0       0       0       0       0       0       0       0
       0       0       0       0       0       0       0       0       0       0
       0       0       0       0       0       0       0       0       0       0
       0       0       0       0       0       0       0       0       0       0
       0       0       0       0       0       0       0       0       0       0
       0       0       0       0       0       0       0       0       0       0
       0       0       0       0       0       0       0       0       0       0
       0       0       0       0       0       0       0       0       0       0
       0       0       0       0       0       0       0       0       0       0
       0       0       0       0       0       0       0       0       0       0
       0       0       0       0       0       0       0       0       0       0
       0       0       0       0       0       0       0       0       0       0
       0       0       0       0       0       0       0       0       0       0
       0       0       0       0       0       0       0       0       0       0
       0       0       0       0       0       0       0       0       0       0
       0       0       0       0       0       0       0       0       0       0
       0       0       0       0       0       0       0       0       0       0
       0       0       0       0       0       0       0       0       0       0
       0       0       0       0       0       0       0       0       0       0
       0       0       0       0       0       0       0       0       0       0
       0       0       0       0       0       0       0       0       0       0
       0       0       0       0       0       0       0       0       0       0
       0       0       0       0       0       0       0       0       0       0
       0       0       0       0       0       0       0       0       0       0
       0       0       0       0       0       0       0       0       0       0
       0       0       0       0       0       0       0       0       0       0
       0       0       0       0       0       0       0       0       0       0
       0       0       0       0       0       0       0       0       0       0
       0       0       0       0       0       0       0       0       0       0
       0       0       0       0       0       0       0       0       0       0
       0       0       0       0       0       0       0       0       0       0
       0       0       0       0       0       0       0       0       0       0
       0       0       0       0       0       0       0       0       0       0
       0       0       0       0       0       0       0       0       0       0
       0       0       0       0       0       0       0       0       0       0
       0       0       0       0       0       0       0       0       0       0
       0       0       0       0       0       0       0       0       0       0
       0       0       0       0       0       0       0       0       0       0
       0       0       0       0       0       0       0       0       0       0
       0       0       0       0       0       0       0       0       0       0
       0       0       0       0       0       0       0       0       0       0
       0       0       0       0       0       0       0       0       0       0
       0       0       0       0       0       0       0       0       0       0
       0       0       0       0       0       0       0       0       0       0
       0       0       0       0       0       0       0       0       0       0
       0       0       0       0       0       0       0       0       0       0
       0       0       0       0       0       0       0       0       0       0
       0       0       0       0       0       0       0       0       0       0
       0       0       0       0       0       0       0       0       0       0
       0       0       0       0       0       0       0       0       0       0
       0       0       0       0       0       0       0       0       0       0
       0       0       0       0       0       0       0       0       0       0
       0       0       0       0       0       0       0       0       0       0
       0       0       0       0       0       0       0       0       0       0
       0       0       0       0       0       0       0       0       0       0
       0       0       0       0       0       0       0       0       0       0
       0       0       0       0       0       0       0       0       0       0
       0       0       0       0       0       0       0       0       0       0
       0       0       0       0       0       0       0       0       0       0
       0       0       0       0       0       0       0       0       0       0
       0       0       0       0       0       0       0       0       0       0
       0       0       0       0       0       0       0       0       0       0
       0       0       0       0       0       0       0       0       0       0
       0       0       0       0       0       0       0       0       0       0
       0       0       0       0       0       0       0       0       0       0
       0       0       0       0       0       0       0       0       0       0
       0       0       0       0       0       0       0       0       0       0
       0       0       0       0       0       0       0       0       0       0
       0       0       0       0       0       0       0       0       0       0
       0       0       0       0       0       0       0       0       0       0
       0       0       0       0       0       0       0       0       0       0
       0       0       0       0       0       0       0       0       0       0
       0       0       0       0       0       0       0       0       0       0
       0       0       0       0       0       0       0       0       0       0
       0       0       0       0       0       0       0       0       0       0
       0       0       0       0       0       0       0       0       0       0
       0       0       0       0       0       0       0       0       0       0
       0       0       0       0       0       0       0       0       0       0
       0       0       0       0       0       0       0       0       0       0
       0       0       0       0       0       0       0       0       0       0
       0       0       0       0       0       0       0       0       0       0
       0       0       0       0       0       0       0       0       0       0
       0       0       0       0       0       0       0       0       0       0
       0       0       0       0       0       0       0       0       0       0
       0       0       0       0       0       0       0       0       0       0
       0       0       0       0       0       0       0       0       0       0
       0       0       0       0       0       0       0       0       0       0
       0       0       0       0       0       0       0       0       0       0
       0       0       0       0       0       0       0       0       0       0
       0       0       0       0       0       0       0       0       0       0
       0       0       0       0       0       0       0       0       0       0
       0       0       0       0       0       0       0       0       0       0
       0       0       0       0       0       0       0       0       0       0
       0       0       0       0       0       0       0       0       0       0
       0       0       0       0       0       0       0       0       0       0
       0       0       0       0       0       0       0       0       0       0
       0       0       0       0       0       0       0       0       0       0
       0       0       0       0       0       0       0       0       0       0
       0       0       0       0       0       0       0       0       0       0
       0       0       0       0       0       0       0       0       0       0
       0       0       0       0       0       0       0       0       0       0
       0       0       0       0       0       0       0       0       0       0
       0       0       0       0       0       0       0       0       0       0
       0       0       0       0       0       0       0       0       0       0
       0       0       0       0       0       0       0       0       0       0
       0       0       0       0       0       0       0       0       0       0
       0       0       0       0       0       0       0       0       0       0
       0       0       0       0       0       0       0       0       0       0
       0       0       0       0       0       0       0       0       0       0
       0       0       0       0       0       0       0       0       0       0
       0       0       0       0       0       0       0       0       0       0
       0       0       0       0       0       0       0       0       0       0
       0       0       0       0       0       0       0       0       0       0
       0       0       0       0       0       0       0       0       0       0
       0       0       0       0       0       0       0       0       0       0
       0       0       0       0       0       0       0       0       0       0
       0       0       0       0       0       0       0       0       0       0
       0       0       0       0       0       0       0       0       0       0
       0       0       0       0       0       0       0       0       0       0
       0       0       0       0       0       0       0       0       0       0
       0       0       0       0       0       0       0       0       0       0
       0       0       0       0       0       0       0       0       0       0
       0       0       0       0       0       0       0       0       0       0
       0       0       0       0       0       0       0       0       0       0
       0       0       0       0       0       0       0       0       0       0
       0       0       0       0       0       0       0       0       0       0
       0       0       0       0       0       0       0       0       0       0
       0       0       0       0       0       0       0       0       0       0
       0       0       0       0       0       0       0       0       0       0
       0       0       0       0       0       0       0       0       0       0
       0       0       0       0       0       0       0       0       0       0
       0       0       0       0       0       0       0       0       0       0
       0       0       0       0       0       0       0       0       0       0
       0       0       0       0       0       0       0       0       0       0
       0       0       0       0       0       0       0       0       0       0
       0       0       0       0       0       0       0       0       0       0
       0       0       0       0       0       0       0       0       0       0
       0       0       0       0       0       0       0       0       0       0
       0       0       0       0       0       0       0       0       0       0
       0       0       0       0       0       0       0       0       0       0
       0       0       0       0       0       0       0       0       0       0
       0       0       0       0       0       0       0       0       0       0
       0       0       0       0       0       0       0       0       0       0
       0       0       0       0       0       0       0       0       0       0
       0       0       0       0       0       0       0       0       0       0
       0       0       0       0       0       0       0       0       0       0
       0       0       0       0       0       0       0       0       0       0
       0       0       0       0       0       0       0       0       0       0
       0       0       0       0       0       0       0       0       0       0
       0       0       0       0       0       0       0       0       0       0
       0       0       0       0       0       0       0       0       0       0
       0       0       0       0       0       0       0       0       0       0
       0       0       0       0       0       0       0       0       0       0
       0       0       0       0       0       0       0       0       0       0
       0       0       0       0       0       0       0       0       0       0
       0       0       0       0       0       0       0       0       0       0
       0       0       0       0       0       0       0       0       0       0
       0       0       0       0       0       0       0       0       0       0
       0       0       0       0       0       0       0       0       0       0
       0       0       0       0       0       0       0       0       0       0
       0       0       0       0       0       0       0       0       0       0
       0       0       0       0       0       0       0       0       0       0
       0       0       0       0       0       0       0       0       0       0
       0       0       0       0       0       0       0       0       0       0
       0       0       0       0       0       0       0       0       0       0
       0       0       0       0       0       0       0       0       0       0
       0       0       0       0       0       0       0       0       0       0
       0       0       0       0       0       0       0       0       0       0
       0       0       0       0       0       0       0       0       0       0
       0       0       0       0       0       0       0       0       0       0
       0       0       0       0       0       0       0       0       0       0
       0       0       0       0       0       0       0       0       0       0
       0       0       0       0       0       0       0       0       0       0
       0       0       0       0       0       0       0       0       0       0
       0       0       0       0       0       0       0       0       0       0
       0       0       0       0       0       0       0       0       0       0
       0       0       0       0       0       0       0       0       0       0
       0       0       0       0       0       0       0       0       0       0
       0       0       0       0       0       0       0       0       0       0
       0       0       0       0       0       0       0       0       0       0
       0       0       0       0       0       0       0       0       0       0
       0       0       0       0       0       0       0       0       0       0
       0       0       0       0       0       0       0       0       0       0
       0       0       0       0       0       0       0       0       0       0
       0       0       0       0       0       0       0       0       0       0
       0       0       0       0       0       0       0       0       0       0
       0       0       0       0       0       0       0       0       0       0
       0       0       0       0       0       0       0       0       0       0
       0       0       0       0       0       0       0       0       0       0
       0       0       0       0       0       0       0       0       0       0
       0       0       0       0       0       0       0       0       0       0
       0       0       0       0       0       0       0       0       0       0
       0       0       0       0       0       0       0       0       0       0
       0       0       0       0       0       0       0       0       0       0
       0       0       0       0       0       0       0       0       0       0
       0       0       0       0       0       0       0       0       0       0
       0       0       0       0       0       0       0       0       0       0
       0       0       0       0       0       0       0       0       0       0
       0       0       0       0       0       0       0       0       0       0
       0       0       0       0       0       0       0       0       0       0
       0       0       0       0       0       0       0       0       0       0
       0       0       0       0       0       0       0       0       0       0
       0       0       0       0       0       0       0       0       0       0
       0       0       0       0       0       0       0       0       0       0
       0       0       0       0       0       0       0       0       0       0
       0       0       0       0       0       0       0       0       0       0
       0       0       0       0       0       0       0       0       0       0
       0       0       0       0       0       0       0       0       0       0
       0       0       0       0       0       0       0       0       0       0
       0       0       0       0       0       0       0       0       0       0
       0       0       0       0       0       0       0       0       0       0
       0       0       0       0       0       0       0       0       0       0
       0       0       0       0       0       0       0       0       0       0
       0       0       0       0       0       0       0       0       0       0
       0       0       0       0       0       0       0       0       0       0
       0       0       0       0       0       0       0       0       0       0
       0       0       0       0       0       0       0       0       0       0
       0       0       0       0       0       0       0       0       0       0
       0       0       0       0       0       0       0       0       0       0
       0       0       0       0       0       0       0       0       0       0
       0       0       0       0       0       0       0       0       0       0
       0       0       0       0       0       0       0       0       0       0
       0       0       0       0       0       0       0       0       0       0
       0       0       0       0       0       0       0       0       0       0
       0       0       0       0       0       0       0       0       0       0
       0       0       0       0       0       0       0       0       0       0
       0       0       0       0       0       0       0       0       0       0
       0       0       0       0       0       0       0       0       0       0
       0       0       0       0       0       0       0       0       0       0
       0       0       0       0       0       0       0       0       0       0
       0       0       0       0       0       0       0       0       0       0
       0       0       0       0       0       0       0       0       0       0
       0       0       0       0       0       0       0       0       0       0
       0       0       0       0       0       0       0       0       0       0
       0       0       0       0       0       0       0       0       0       0
       0       0       0       0       0       0       0       0       0       0
       0       0       0       0       0       0       0       0       0       0
       0       0       0       0       0       0       0       0       0       0
       0       0       0       0       0       0       0       0       0       0
       0       0       0       0       0       0       0       0       0       0
       0       0       0       0       0       0       0       0       0       0
       0       0       0       0       0       0       0       0       0       0
       0       0       0       0       0       0       0       0       0       0
       0       0       0       0       0       0       0       0       0       0
       0       0       0       0       0       0       0       0       0       0
       0       0       0       0       0       0       0       0       0       0
       0       0       0       0       0       0       0       0       0       0
       0       0       0       0       0       0       0       0       0       0
       0       0       0       0       0       0       0       0       0       0
       0       0       0       0       0       0       0       0       0       0
       0       0       0       0       0       0       0       0       0       0
       0       0       0       0       0       0       0       0       0       0
       0       0       0       0       0       0       0       0       0       0
       0       0       0       0       0       0       0       0       0       0
       0       0       0       0       0       0       0       0       0       0
       0       0       0       0       0       0       0       0       0       0
       0       0       0       0       0       0       0       0       0       0
       0       0       0       0       0       0       0       0       0       0
       0       0       0       0       0       0       0       0       0       0
       0       0       0       0       0       0       0       0       0       0
       0       0       0       0       0       0       0       0       0       0
       0       0       0       0       0       0       0       0       0       0
       0       0       0       0       0       0       0       0       0       0
       0       0       0       0       0       0       0       0       0       0
       0       0       0       0       0       0       0       0       0       0
       0       0       0       0       0       0       0       0       0       0
       0       0       0       0       0       0       0       0       0       0
       0       0       0       0       0       0       0       0       0       0
       0       0       0       0       0       0       0       0       0       0
       0       0       0       0       0       0       0       0       0       0
       0       0       0       0       0       0       0       0       0       0
       0       0       0       0       0       0       0       0       0       0
       0       0       0       0       0       0       0       0       0       0
       0       0       0       0       0       0       0       0       0       0
       0       0       0       0       0       0       0       0       0       0
       0       0       0       0       0       0       0       0       0       0
       0       0       0       0       0       0       0       0       0       0
       0       0       0       0       0       0       0       0       0       0
       0       0       0       0       0       0       0       0       0       0
       0       0       0       0       0       0       0       0       0       0
       0       0       0       0       0       0       0       0       0       0
       0       0       0       0       0       0       0       0       0       0
       0       0       0       0       0       0       0       0       0       0
       0       0       0       0       0       0       0       0       0       0
       0       0       0       0       0       0       0       0       0       0
       0       0       0       0       0       0       0       0       0       0
       0       0       0       0       0       0       0       0       0       0
       0       0       0       0       0       0       0       0       0       0
       0       0       0       0       0       0       0       0       0       0
       0       0       0       0       0       0       0       0       0       0
       0       0       0       0       0       0       0       0       0       0
       0       0       0       0       0       0       0       0       0       0
       0       0       0       0       0       0       0       0       0       0
       0       0       0       0       0       0       0       0       0       0
       0       0       0       0       0       0       0       0       0       0
       0       0       0       0       0       0       0       0       0       0
       0       0       0       0       0       0       0       0       0       0
       0       0       0       0       0       0       0       0       0       0
       0       0       0       0       0       0       0       0       0       0
       0       0       0       0       0       0       0       0       0       0
       0       0       0       0       0       0       0       0       0       0
       0       0       0       0       0       0       0       0       0       0
       0       0       0       0       0       0       0       0       0       0
       0       0       0       0       0       0       0       0       0       0
       0       0       0       0       0       0       0       0       0       0
       0       0       0       0       0       0       0       0       0       0
       0       0       0       0       0       0       0       0       0       0
       0       0       0       0       0       0       0       0       0       0
       0       0       0       0       0       0       0       0       0       0
       0       0       0       0       0       0       0       0       0       0
       0       0       0       0       0       0       0       0       0       0
       0       0       0       0       0       0       0       0       0       0
       0       0       0       0       0       0       0       0       0       0
       0       0       0       0       0       0       0       0       0       0
       0       0       0       0       0       0       0       0       0       0
       0       0       0       0       0       0       0       0       0       0
       0       0       0       0       0       0       0       0       0       0
       0       0       0       0       0       0       0       0       0       0
       0       0       0       0       0       0       0       0       0       0
       0       0       0       0       0       0       0       0       0       0
       0       0       0       0       0       0       0       0       0       0
       0       0       0       0       0       0       0       0       0       0
       0       0       0       0       0       0       0       0       0       0
       0       0       0       0       0       0       0       0       0       0
       0       0       0       0       0       0       0       0       0       0
       0       0       0       0       0       0       0       0       0       0
       0       0       0       0       0       0       0       0       0       0
       0       0       0       0       0       0       0       0       0       0
       0       0       0       0       0       0       0       0       0       0
       0       0       0       0       0       0       0       0       0       0
       0       0       0       0       0       0       0       0       0       0
       0       0       0       0       0       0       0       0       0       0
       0       0       0       0       0       0       0       0       0       0
       0       0       0       0       0       0       0       0       0       0
       0       0       0       0       0       0       0       0       0       0
       0       0       0       0       0       0       0       0       0       0
       0       0       0       0       0       0       0       0       0       0
       0       0       0       0       0       0       0       0       0       0
       0       0       0       0       0       0       0       0       0       0
       0       0       0       0       0       0       0       0       0       0
       0       0       0       0       0       0       0       0       0       0
       0       0       0       0       0       0       0       0       0       0
       0       0       0       0       0       0       0       0       0       0
       0       0       0       0       0       0       0       0       0       0
       0       0       0       0       0       0       0       0       0       0
       0       0       0       0       0       0       0       0       0       0
       0       0       0       0       0       0       0       0       0       0
       0       0       0       0       0       0       0       0       0       0
       0       0       0       0       0       0       0       0       0       0
       0       0       0       0       0       0       0       0       0       0
       0       0       0       0       0       0       0       0       0       0
       0       0       0       0       0       0       0       0       0       0
       0       0       0       0       0       0       0       0       0       0
       0       0       0       0       0       0       0       0       0       0
       0       0       0       0       0       0       0       0       0       0
       0       0       0       0       0       0       0       0       0       0
       0       0       0       0       0       0       0       0       0       0
       0       0       0       0       0       0       0       0       0       0
       0       0       0       0       0       0       0       0       0       0
       0       0       0       0       0       0       0       0       0       0
       0       0       0       0       0       0       0       0       0       0
       0       0       0       0       0       0       0       0       0       0
       0       0       0       0       0       0       0       0       0       0
       0       0       0       0       0       0       0       0       0       0
       0       0       0       0       0       0       0       0       0       0
       0       0       0       0       0       0       0       0       0       0
       0       0       0       0       0       0       0       0       0       0
       0       0       0       0       0       0       0       0       0       0
       0       0       0       0       0       0       0       0       0       0
       0       0       0       0       0       0       0       0       0       0
       0       0       0       0       0       0       0       0       0       0
       0       0       0       0       0       0       0       0       0       0
       0       0       0       0       0       0       0       0       0       0
       0       0       0       0       0       0       0       0       0       0
       0       0       0       0       0       0       0       0       0       0
       0       0       0       0       0       0       0       0       0       0
       0       0       0       0       0       0       0       0       0       0
       0       0       0       0       0       0       0       0       0       0
       0       0       0       0       0       0       0       0       0       0
       0       0       0       0       0       0       0       0       0       0
       0       0       0       0       0       0       0       0       0       0
       0       0       0       0       0       0       0       0       0       0
       0       0       0       0       0       0       0       0       0       0
       0       0       0       0       0       0       0       0       0       0
       0       0       0       0       0       0       0       0       0       0
       0       0       0       0       0       0       0       0       0       0
       0       0       0       0       0       0       0       0       0       0
       0       0       0       0       0       0       0       0       0       0
       0       0       0       0       0       0       0       0       0       0
       0       0       0       0       0       0       0       0       0       0
       0       0       0       0       0       0       0       0       0       0
       0       0       0       0       0       0       0       0       0       0
       0       0       0       0       0       0       0       0       0       0
       0       0       0       0       0       0       0       0       0       0
       0       0       0       0       0       0       0       0       0       0
       0       0       0       0       0       0       0       0       0       0
       0       0       0       0       0       0       0       0       0       0
       0       0       0       0       0       0       0       0       0       0
       0       0       0       0       0       0       0       0       0       0
       0       0       0       0       0       0       0       0       0       0
       0       0       0       0       0       0       0       0       0       0
       0       0       0       0       0       0       0       0       0       0
       0       0       0       0       0       0       0       0       0       0
       0       0       0       0       0       0       0       0       0       0
       0       0       0       0       0       0       0       0       0       0
       0       0       0       0       0       0       0       0       0       0
       0       0       0       0       0       0       0       0       0       0
       0       0       0       0       0       0       0       0       0       0
       0       0       0       0       0       0       0       0       0       0
       0       0       0       0       0       0       0       0       0       0
       0       0       0       0       0       0       0       0       0       0
       0       0       0       0       0       0       0       0       0       0
       0       0       0       0       0       0       0       0       0       0
       0       0       0       0       0       0       0       0       0       0
       0       0       0       0       0       0       0       0       0       0
       0       0       0       0       0       0       0       0       0       0
       0       0       0       0       0       0       0       0       0       0
       0       0       0       0       0       0       0       0       0       0
       0       0       0       0       0       0       0       0       0       0
       0       0       0       0       0       0       0       0       0       0
       0       0       0       0       0       0       0       0       0       0
       0       0       0       0       0       0       0       0       0       0
       0       0       0       0       0       0       0       0       0       0
       0       0       0       0       0       0       0       0       0       0
       0       0       0       0       0       0       0       0       0       0
       0       0       0       0       0       0       0       0       0       0
       0       0       0       0       0       0       0       0       0       0
       0       0       0       0       0       0       0       0       0       0
       0       0       0       0       0       0       0       0       0       0
       0       0       0       0       0       0       0       0       0       0
       0       0       0       0       0       0       0       0       0       0
       0       0       0       0       0       0       0       0       0       0
       0       0       0       0       0       0       0       0       0       0
       0       0       0       0       0       0       0       0       0       0
       0       0       0       0       0       0       0       0       0       0
       0       0       0       0       0       0       0       0       0       0
       0       0       0       0       0       0       0       0       0       0
       0       0       0       0       0       0       0       0       0       0
       0       0       0       0       0       0       0       0       0       0
       0       0       0       0       0       0       0       0       0       0
       0       0       0       0       0       0       0       0       0       0
       0       0       0       0       0       0       0       0       0       0
       0       0       0       0       0       0       0       0       0       0
       0       0       0       0       0       0       0       0       0       0
       0       0       0       0       0       0       0       0       0       0
       0       0       0       0       0       0       0       0       0       0
       0       0       0       0       0       0       0       0       0       0
       0       0       0       0       0       0       0       0       0       0
       0       0       0       0       0       0       0       0       0       0
       0       0       0       0       0       0       0       0       0       0
       0       0       0       0       0       0       0       0       0       0
       0       0       0       0       0       0       0       0       0       0
       0       0       0       0       0       0       0       0       0       0
       0       0       0       0       0       0       0       0       0       0
       0       0       0       0       0       0       0       0       0       0
       0       0       0       0       0       0       0       0       0       0
       0       0       0       0       0       0       0       0       0       0
       0       0       0       0       0       0       0       0       0       0
       0       0       0       0       0       0       0       0       0       0
       0       0       0       0       0       0       0       0       0       0
       0       0       0       0       0       0       0       0       0       0
       0       0       0       0       0       0       0       0       0       0
       0       0       0       0       0       0       0       0       0       0
       0       0       0       0       0       0       0       0       0       0
       0       0       0       0       0       0       0       0       0       0
       0       0       0       0       0       0       0       0       0       0
       0       0       0       0       0       0       0       0       0       0
       0       0       0       0       0       0       0       0       0       0
       0       0       0       0       0       0       0       0       0       0
       0       0       0       0       0       0       0       0       0       0
       0       0       0       0       0       0       0       0       0       0
       0       0       0       0       0       0       0       0       0       0
       0       0       0       0       0       0       0       0       0       0
       0       0       0       0       0       0       0       0       0       0
       0       0       0       0       0       0       0       0       0       0
       0       0       0       0       0       0       0       0       0       0
       0       0       0       0       0       0       0       0       0       0
       0       0       0       0       0       0       0       0       0       0
       0       0       0       0       0       0       0       0       0       0
       0       0       0       0       0       0       0       0       0       0
       0       0       0       0       0       0       0       0       0       0
       0       0       0       0       0       0       0       0       0       0
       0       0       0       0       0       0       0       0       0       0
       0       0       0       0       0       0       0       0       0       0
       0       0       0       0       0       0       0       0       0       0
       0       0       0       0       0       0       0       0       0       0
       0       0       0       0       0       0       0       0       0       0
       0       0       0       0       0       0       0       0       0       0
       0       0       0       0       0       0       0       0       0       0
       0       0       0       0       0       0       0       0       0       0
       0       0       0       0       0       0       0       0       0       0
       0       0       0       0       0       0       0       0       0       0
       0       0       0       0       0       0       0       0       0       0
       0       0       0       0       0       0       0       0       0       0
       0       0       0       0       0       0       0       0       0       0
       0       0       0       0       0       0       0       0       0       0
       0       0       0       0       0       0       0       0       0       0
       0       0       0       0       0       0       0       0       0       0
       0       0       0       0       0       0       0       0       0       0
       0       0       0       0       0       0       0       0       0       0
       0       0       0       0       0       0       0       0       0       0
       0       0       0       0       0       0       0       0       0       0
       0       0       0       0       0       0       0       0       0       0
       0       0       0       0       0       0       0       0       0       0
       0       0       0       0       0       0       0       0       0       0
       0       0       0       0       0       0       0       0       0       0
       0       0       0       0       0       0       0       0       0       0
       0       0       0       0       0       0       0       0       0       0
       0       0       0       0       0       0       0       0       0       0
       0       0       0       0       0       0       0       0       0       0
       0       0       0       0       0       0       0       0       0       0
       0       0       0       0       0       0       0       0       0       0
       0       0       0       0       0       0       0       0       0       0
       0       0       0       0       0       0       0       0       0       0
       0       0       0       0       0       0       0       0       0       0
       0       0       0       0       0       0       0       0       0       0
       0       0       0       0       0       0       0       0       0       0
       0       0       0       0       0       0       0       0       0       0
       0       0       0       0       0       0       0       0       0       0
       0       0       0       0       0       0       0       0       0       0
       0       0       0       0       0       0       0       0       0       0
       0       0       0       0       0       0       0       0       0       0
       0       0       0       0       0       0       0       0       0       0
       0       0       0       0       0       0       0       0       0       0
       0       0       0       0       0       0       0       0       0       0
       0       0       0       0       0       0       0       0       0       0
       0       0       0       0       0       0       0       0       0       0
       0       0       0       0       0       0       0       0       0       0
       0       0       0       0       0       0       0       0       0       0
       0       0       0       0       0       0       0       0       0       0
       0       0       0       0       0       0       0       0       0       0
       0       0       0       0       0       0       0       0       0       0
       0       0       0       0       0       0       0       0       0       0
       0       0       0       0       0       0       0       0       0       0
       0       0       0       0       0       0       0       0       0       0
       0       0       0       0       0       0       0       0       0       0
       0       0       0       0       0       0       0       0       0       0
       0       0       0       0       0       0       0       0       0       0
       0       0       0       0       0       0       0       0       0       0
       0       0       0       0       0       0       0       0       0       0
       0       0       0       0       0       0       0       0       0       0
       0       0       0       0       0       0       0       0       0       0
       0       0       0       0       0       0       0       0       0       0
       0       0       0       0       0       0       0       0       0       0
       0       0       0       0       0       0       0       0       0       0
       0       0       0       0       0       0       0       0       0       0
       0       0       0       0       0       0       0       0       0       0
       0       0       0       0       0       0       0       0       0       0
       0       0       0       0       0       0       0       0       0       0
       0       0       0       0       0       0       0       0       0       0
       0       0       0       0       0       0       0       0       0       0
       0       0       0       0       0       0       0       0       0       0
       0       0       0       0       0       0       0       0       0       0
       0       0       0       0       0       0       0       0       0       0
       0       0       0       0       0       0       0       0       0       0
       0       0       0       0       0       0       0       0       0       0
       0       0       0       0       0       0       0       0       0       0
       0       0       0       0       0       0       0       0       0       0
       0       0       0       0       0       0       0       0       0       0
       0       0       0       0       0       0       0       0       0       0
       0       0       0       0       0       0       0       0       0       0
       0       0       0       0       0       0       0       0       0       0
       0       0       0       0       0       0       0       0       0       0
       0       0       0       0       0       0       0       0       0       0
       0       0       0       0       0       0       0       0       0       0
       0       0       0       0       0       0       0       0       0       0
       0       0       0       0       0       0       0       0       0       0
       0       0       0       0       0       0       0       0       0       0
       0       0       0       0       0       0       0       0       0       0
       0       0       0       0       0       0       0       0       0       0
       0       0       0       0       0       0       0       0       0       0
       0       0       0       0       0       0       0       0       0       0
       0       0       0       0       0       0       0       0       0       0
       0       0       0       0       0       0       0       0       0       0
       0       0       0       0       0       0       0       0       0       0
       0       0       0       0       0       0       0       0       0       0
       0       0       0       0       0       0       0       0       0       0
       0       0       0       0       0       0       0       0       0       0
       0       0       0       0       0       0       0       0       0       0
       0       0       0       0       0       0       0       0       0       0
       0       0       0       0       0       0       0       0       0       0
       0       0       0       0       0       0       0       0       0       0
       0       0       0       0       0       0       0       0       0       0
       0       0       0       0       0       0       0       0       0       0
       0       0       0       0       0       0       0       0       0       0
       0       0       0       0       0       0       0       0       0       0
       0       0       0       0       0       0       0       0       0       0
       0       0       0       0       0       0       0       0       0       0
       0       0       0       0       0       0       0       0       0       0
       0       0       0       0       0       0       0       0       0       0
       0       0       0       0       0       0       0       0       0       0
       0       0       0       0       0       0       0       0       0       0
       0       0       0       0       0       0       0       0       0       0
       0       0       0       0       0       0       0       0       0       0
       0       0       0       0       0       0       0       0       0       0
       0       0       0       0       0       0       0       0       0       0
       0       0       0       0       0       0       0       0       0       0
       0       0       0       0       0       0       0       0       0       0
       0       0       0       0       0       0       0       0       0       0
       0       0       0       0       0       0       0       0       0       0
       0       0       0       0       0       0       0       0       0       0
       0       0       0       0       0       0       0       0       0       0
       0       0       0       0       0       0       0       0       0       0
       0       0       0       0       0       0       0       0       0       0
       0       0       0       0       0       0       0       0       0       0
       0       0       0       0       0       0       0       0       0       0
       0       0       0       0       0       0       0       0       0       0
       0       0       0       0       0       0       0       0       0       0
       0       0       0       0       0       0       0       0       0       0
       0       0       0       0       0       0       0       0       0       0
       0       0       0       0       0       0       0       0       0       0
       0       0       0       0       0       0       0       0       0       0
       0       0       0       0       0       0       0       0       0       0
       0       0       0       0       0       0       0       0       0       0
       0       0       0       0       0       0       0       0       0       0
       0       0       0       0       0       0       0       0       0       0
       0       0       0       0       0       0       0       0       0       0
       0       0       0       0       0       0       0       0       0       0
       0       0       0       0       0       0       0       0       0       0
       0       0       0       0       0       0       0       0       0       0
       0       0       0       0       0       0       0       0       0       0
       0       0       0       0       0       0       0       0       0       0
       0       0       0       0       0       0       0       0       0       0
       0       0       0       0       0       0       0       0       0       0
       0       0       0       0       0       0       0       0       0       0
       0       0       0       0       0       0       0       0       0       0
       0       0       0       0       0       0       0       0       0       0
       0       0       0       0       0       0       0       0       0       0
       0       0       0       0       0       0       0       0       0       0
       0       0       0       0       0       0       0       0       0       0
       0       0       0       0       0       0       0       0       0       0
       0       0       0       0       0       0       0       0       0       0
       0       0       0       0       0       0       0       0       0       0
       0       0       0       0       0       0       0       0       0       0
       0       0       0       0       0       0       0       0       0       0
       0       0       0       0       0       0       0       0       0       0
       0       0       0       0       0       0       0       0       0       0
       0       0       0       0       0       0       0       0       0       0
       0       0       0       0       0       0       0       0       0       0
       0       0       0       0       0       0       0       0       0       0
       0       0       0       0       0       0       0       0       0       0
       0       0       0       0       0       0       0       0       0       0
       0       0       0       0       0       0       0       0       0       0
       0       0       0       0       0       0       0       0       0       0
       0       0       0       0       0       0       0       0       0       0
       0       0       0       0       0       0       0       0       0       0
       0       0       0       0       0       0       0       0       0       0
       0       0       0       0       0       0       0       0       0       0
       0       0       0       0       0       0       0       0       0       0
       0       0       0       0       0       0       0       0       0       0
       0       0       0       0       0       0       0       0       0       0
       0       0       0       0       0       0       0       0       0       0
       0       0       0       0       0       0       0       0       0       0
       0       0       0       0       0       0       0       0       0       0
       0       0       0       0       0       0       0       0       0       0
       0       0       0       0       0       0       0       0       0       0
       0       0       0       0       0       0       0       0       0       0
       0       0       0       0       0       0       0       0       0       0
       0       0       0       0       0       0       0       0       0       0
       0       0       0       0       0       0       0       0       0       0
       0       0       0       0       0       0       0       0       0       0
       0       0       0       0       0       0       0       0       0       0
       0       0       0       0       0       0       0       0       0       0
       0       0       0       0       0       0       0       0       0       0
       0       0       0       0       0       0       0       0       0       0
       0       0       0       0       0       0       0       0       0       0
       0       0       0       0       0       0       0       0       0       0
       0       0       0       0       0       0       0       0       0       0
       0       0       0       0       0       0       0       0       0       0
       0       0       0       0       0       0       0       0       0       0
       0       0       0       0       0       0       0       0       0       0
       0       0       0       0       0       0       0       0       0       0
       0       0       0       0       0       0       0       0       0       0
       0       0       0       0       0       0       0       0       0       0
       0       0       0       0       0       0       0       0       0       0
       0       0       0       0       0       0       0       0       0       0
       0       0       0       0       0       0       0       0       0       0
       0       0       0       0       0       0       0       0       0       0
       0       0       0       0       0       0       0       0       0       0
       0       0       0       0       0       0       0       0       0       0
       0       0       0       0       0       0       0       0       0       0
       0       0       0       0       0       0       0       0       0       0
       0       0       0       0       0       0       0       0       0       0
       0       0       0       0       0       0       0       0       0       0
       0       0       0       0       0       0       0       0       0       0
       0       0       0       0       0       0       0       0       0       0
       0       0       0       0       0       0       0       0       0       0
       0       0       0       0       0       0       0       0       0       0
       0       0       0       0       0       0       0       0       0       0
       0       0       0       0       0       0       0       0       0       0
       0       0       0       0       0       0       0       0       0       0
       0       0       0       0       0       0       0       0       0       0
       0       0       0       0       0       0       0       0       0       0
       0       0       0       0       0       0       0       0       0       0
       0       0       0       0       0       0       0       0       0       0
       0       0       0       0       0       0       0       0       0       0
       0       0       0       0       0       0       0       0       0       0
       0       0       0       0       0       0       0       0       0       0
       0       0       0       0       0       0       0       0       0       0
       0       0       0       0       0       0       0       0       0       0
       0       0       0       0       0       0       0       0       0       0
       0       0       0       0       0       0       0       0       0       0
       0       0       0       0       0       0       0       0       0       0
       0       0       0       0       0       0       0       0       0       0
       0       0       0       0       0       0       0       0       0       0
       0       0       0       0       0       0       0       0       0       0
       0       0       0       0       0       0       0       0       0       0
       0       0       0       0       0       0       0       0       0       0
       0       0       0       0       0       0       0       0       0       0
       0       0       0       0       0       0       0       0       0       0
       0       0       0       0       0       0       0       0       0       0
       0       0       0       0       0       0       0       0       0       0
       0       0       0       0       0       0       0       0       0       0
       0       0       0       0       0       0       0       0       0       0
       0       0       0       0       0       0       0       0       0       0
       0       0       0       0       0       0       0       0       0       0
       0       0       0       0       0       0       0       0       0       0
       0       0       0       0       0       0       0       0       0       0
       0       0       0       0       0       0       0       0       0       0
       0       0       0       0       0       0       0       0       0       0
       0       0       0       0       0       0       0       0       0       0
       0       0       0       0       0       0       0       0       0       0
       0       0       0       0       0       0       0       0       0       0
       0       0       0       0       0       0       0       0       0       0
       0       0       0       0       0       0       0       0       0       0
       0       0       0       0       0       0       0       0       0       0
       0       0       0       0       0       0       0       0       0       0
       0       0       0       0       0       0       0       0       0       0
       0       0       0       0       0       0       0       0       0       0
       0       0       0       0       0       0       0       0       0       0
       0       0       0       0       0       0       0       0       0       0
       0       0       0       0       0       0       0       0       0       0
       0       0       0       0       0       0       0       0       0       0
       0       0       0       0       0       0       0       0       0       0
       0       0       0       0       0       0       0       0       0       0
       0       0       0       0       0       0       0       0       0       0
       0       0       0       0       0       0       0       0       0       0
       0       0       0       0       0       0       0       0       0       0
       0       0       0       0       0       0       0       0       0       0
       0       0       0       0       0       0       0       0       0       0
       0       0       0       0       0       0       0       0       0       0
       0       0       0       0       0       0       0       0       0       0
       0       0       0       0       0       0       0       0       0       0
       0       0       0       0       0       0       0       0       0       0
       0       0       0       0       0       0       0       0       0       0
       0       0       0       0       0       0       0       0       0       0
       0       0       0       0       0       0       0       0       0       0
       0       0       0       0       0       0       0       0       0       0
       0       0       0       0       0       0       0       0       0       0
       0       0       0       0       0       0       0       0       0       0
       0       0       0       0       0       0       0       0       0       0
       0       0       0       0       0       0       0       0       0       0
       0       0       0       0       0       0       0       0       0       0
       0       0       0       0       0       0       0       0       0       0
       0       0       0       0       0       0       0       0       0       0
       0       0       0       0       0       0       0       0       0       0
       0       0       0       0       0       0       0       0       0       0
       0       0       0       0       0       0       0       0       0       0
       0       0       0       0       0       0       0       0       0       0
       0       0       0       0       0       0       0       0       0       0
       0       0       0       0       0       0       0       0       0       0
       0       0       0       0       0       0       0       0       0       0
       0       0       0       0       0       0       0       0       0       0
       0       0       0       0       0       0       0       0       0       0
       0       0       0       0       0       0       0       0       0       0
       0       0       0       0       0       0       0       0       0       0
       0       0       0       0       0       0       0       0       0       0
       0       0       0       0       0       0       0       0       0       0
       0       0       0       0       0       0       0       0       0       0
       0       0       0       0       0       0       0       0       0       0
       0       0       0       0       0       0       0       0       0       0
       0       0       0       0       0       0       0       0       0       0
       0       0       0       0       0       0       0       0       0       0
       0       0       0       0       0       0       0       0       0       0
       0       0       0       0       0       0       0       0       0       0
       0       0       0       0       0       0       0       0       0       0
       0       0       0       0       0       0       0       0       0       0
       0       0       0       0       0       0       0       0       0       0
       0       0       0       0       0       0       0       0       0       0
       0       0       0       0       0       0       0       0       0       0
       0       0       0       0       0       0       0       0       0       0
       0       0       0       0       0       0       0       0       0       0
       0       0       0       0       0       0       0       0       0       0
       0       0       0       0       0       0       0       0       0       0
       0       0       0       0       0       0       0       0       0       0
       0       0       0       0       0       0       0       0       0       0
       0       0       0       0       0       0       0       0       0       0
       0       0       0       0       0       0       0       0       0       0
       0       0       0       0       0       0       0       0       0       0
       0       0       0       0       0       0       0       0       0       0
       0       0       0       0       0       0       0       0       0       0
       0       0       0       0       0       0       0       0       0       0
       0       0       0       0       0       0       0       0       0       0
       0       0       0       0       0       0       0       0       0       0
       0       0       0       0       0       0       0       0       0       0
       0       0       0       0       0       0       0       0       0       0
       0       0       0       0       0       0       0       0       0       0
       0       0       0       0       0       0       0       0       0       0
       0       0       0       0       0       0       0       0       0       0
       0       0       0       0       0       0       0       0       0       0
       0       0       0       0       0       0       0       0       0       0
       0       0       0       0       0       0       0       0       0       0
       0       0       0       0       0       0       0       0       0       0
       0       0       0       0       0       0       0       0       0       0
       0       0       0       0       0       0       0       0       0       0
       0       0       0       0       0       0       0       0       0       0
       0       0       0       0       0       0       0       0       0       0
       0       0       0       0       0       0       0       0       0       0
       0       0       0       0       0       0       0       0       0       0
       0       0       0       0       0       0       0       0       0       0
       0       0       0       0       0       0       0       0       0       0
       0       0       0       0       0       0       0       0       0       0
       0       0       0       0       0       0       0       0       0       0
       0       0       0       0       0       0       0       0       0       0
       0       0       0       0       0       0       0       0       0       0
       0       0       0       0       0       0       0       0       0       0
       0       0       0       0       0       0       0       0       0       0
       0       0       0       0       0       0       0       0       0       0
       0       0       0       0       0       0       0       0       0       0
       0       0       0       0       0       0       0       0       0       0
       0       0       0       0       0       0       0       0       0       0
       0       0       0       0       0       0       0       0       0       0
       0       0       0       0       0       0       0       0       0       0
       0       0       0       0       0       0       0       0       0       0
       0       0       0       0       0       0       0       0       0       0
       0       0       0       0       0       0       0       0       0       0
       0       0       0       0       0       0       0       0       0       0
       0       0       0       0       0       0       0       0       0       0
       0       0       0       0       0       0       0       0       0       0
       0       0       0       0       0       0       0       0       0       0
       0       0       0       0       0       0       0       0       0       0
       0       0       0       0       0       0       0       0       0       0
       0       0       0       0       0       0       0       0       0       0
       0       0       0       0       0       0       0       0       0       0
       0       0       0       0       0       0       0       0       0       0
       0       0       0       0       0       0       0       0       0       0
       0       0       0       0       0       0       0       0       0       0
       0       0       0       0       0       0       0       0       0       0
       0       0       0       0       0       0       0       0       0       0
       0       0       0       0       0       0       0       0       0       0
       0       0       0       0       0       0       0       0       0       0
       0       0       0       0       0       0       0       0       0       0
       0       0       0       0       0       0       0       0       0       0
       0       0       0       0       0       0       0       0       0       0
       0       0       0       0       0       0       0       0       0       0
       0       0       0       0       0       0       0       0       0       0
       0       0       0       0       0       0       0       0       0       0
       0       0       0       0       0       0       0       0       0       0
       0       0       0       0       0       0       0       0       0       0
       0       0       0       0       0       0       0       0       0       0
       0       0       0       0       0       0       0       0       0       0
       0       0       0       0       0       0       0       0       0       0
       0       0       0       0       0       0       0       0       0       0
       0       0       0       0       0       0       0       0       0       0
       0       0       0       0       0       0       0       0       0       0
       0       0       0       0       0       0       0       0       0       0
       0       0       0       0       0       0       0       0       0       0
       0       0       0       0       0       0       0       0       0       0
       0       0       0       0       0       0       0       0       0       0
       0       0       0       0       0       0       0       0       0       0
       0       0       0       0       0       0       0       0       0       0
       0       0       0       0       0       0       0       0       0       0
       0       0       0       0       0       0       0       0       0       0
       0       0       0       0       0       0       0       0       0       0
       0       0       0       0       0       0       0       0       0       0
       0       0       0       0       0       0       0       0       0       0
       0       0       0       0       0       0       0       0       0       0
       0       0       0       0       0       0       0       0       0       0
       0       0       0       0       0       0       0       0       0       0
       0       0       0       0       0       0       0       0       0       0
       0       0       0       0       0       0       0       0       0       0
       0       0       0       0       0       0       0       0       0       0
       0       0       0       0       0       0       0       0       0       0
       0       0       0       0       0       0       0       0       0       0
       0       0       0       0       0       0       0       0       0       0
       0       0       0       0       0       0       0       0       0       0
       0       0       0       0       0       0       0       0       0       0
       0       0       0       0       0       0       0       0       0       0
       0       0       0       0       0       0       0       0       0       0
       0       0       0       0       0       0       0       0       0       0
       0       0       0       0       0       0       0       0       0       0
       0       0       0       0       0       0       0       0       0       0
       0       0       0       0       0       0       0       0       0       0
       0       0       0       0       0       0       0       0       0       0
       0       0       0       0       0       0       0       0       0       0
       0       0       0       0       0       0       0       0       0       0
       0       0       0       0       0       0       0       0       0       0
       0       0       0       0       0       0       0       0       0       0
       0       0       0       0       0       0       0       0       0       0
       0       0       0       0       0       0       0       0       0       0
       0       0       0       0       0       0       0       0       0       0
       0       0       0       0       0       0       0       0       0       0
       0       0       0       0       0       0       0       0       0       0
       0       0       0       0       0       0       0       0       0       0
       0       0       0       0       0       0       0       0       0       0
       0       0       0       0       0       0       0       0       0       0
       0       0       0       0       0       0       0       0       0       0
       0       0       0       0       0       0       0       0       0       0
       0       0       0       0       0       0       0       0       0       0
       0       0       0       0       0       0       0       0       0       0
       0       0       0       0       0       0       0       0       0       0
       0       0       0       0       0       0       0       0       0       0
       0       0       0       0       0       0       0       0       0       0
       0       0       0       0       0       0       0       0       0       0
       0       0       0       0       0       0       0       0       0       0
       0       0       0       0       0       0       0       0       0       0
       0       0       0       0       0       0       0       0       0       0
       0       0       0       0       0       0       0       0       0       0
       0       0       0       0       0       0       0       0       0       0
       0       0       0       0       0       0       0       0       0       0
       0       0       0       0       0       0       0       0       0       0
       0       0       0       0       0       0       0       0       0       0
       0       0       0       0       0       0       0       0       0       0
       0       0       0       0       0       0       0       0       0       0
       0       0       0       0       0       0       0       0       0       0
       0       0       0       0       0       0       0       0       0       0
       0       0       0       0       0       0       0       0       0       0
       0       0       0       0       0       0       0       0       0       0
       0       0       0       0       0       0       0       0       0       0
       0       0       0       0       0       0       0       0       0       0
       0       0       0       0       0       0       0       0       0       0
       0       0       0       0       0       0       0       0       0       0
       0       0       0       0       0       0       0       0       0       0
       0       0       0       0       0       0       0       0       0       0
       0       0       0       0       0       0       0       0       0       0
       0       0       0       0       0       0       0       0       0       0
       0       0       0       0       0       0       0       0       0       0
       0       0       0       0       0       0       0       0       0       0
       0       0       0       0       0       0       0       0       0       0
       0       0       0       0       0       0       0       0       0       0
       0       0       0       0       0       0       0       0       0       0
       0       0       0       0       0       0       0       0       0       0
       0       0       0       0       0       0       0       0       0       0
       0       0       0       0       0       0       0       0       0       0
       0       0       0       0       0       0       0       0       0       0
       0       0       0       0       0       0       0       0       0       0
       0       0       0       0       0       0       0       0       0       0
       0       0       0       0       0       0       0       0       0       0
       0       0       0       0       0       0       0       0       0       0
       0       0       0       0       0       0       0       0       0       0
       0       0       0       0       0       0       0       0       0       0
       0       0       0       0       0       0       0       0       0       0
       0       0       0       0       0       0       0       0       0       0
       0       0       0       0       0       0       0       0       0       0
       0       0       0       0       0       0       0       0       0       0
       0       0       0       0       0       0       0       0       0       0
       0       0       0       0       0       0       0       0       0       0
       0       0       0       0       0       0       0       0       0       0
       0       0       0       0       0       0       0       0       0       0
       0       0       0       0       0       0       0       0       0       0
       0       0       0       0       0       0       0       0       0       0
       0       0       0       0       0       0       0       0       0       0
       0       0       0       0       0       0       0       0       0       0
       0       0       0       0       0       0       0       0       0       0
       0       0       0       0       0       0       0       0       0       0
       0       0       0       0       0       0       0       0       0       0
       0       0       0       0       0       0       0       0       0       0
       0       0       0       0       0       0       0       0       0       0
       0       0       0       0       0       0       0       0       0       0
       0       0       0       0       0       0       0       0       0       0
       0       0       0       0       0       0       0       0       0       0
       0       0       0       0       0       0       0       0       0       0
       0       0       0       0       0       0       0       0       0       0
       0       0       0       0       0       0       0       0       0       0
       0       0       0       0       0       0       0       0       0       0
       0       0       0       0       0       0       0       0       0       0
       0       0       0       0       0       0       0       0       0       0
       0       0       0       0       0       0       0       0       0       0
       0       0       0       0       0       0       0       0       0       0
       0       0       0       0       0       0       0       0       0       0
       0       0       0       0       0       0       0       0       0       0
       0       0       0       0       0       0       0       0       0       0
       0       0       0       0       0       0       0       0       0       0
       0       0       0       0       0       0       0       0       0       0
       0       0       0       0       0       0       0       0       0       0
       0       0       0       0       0       0       0       0       0       0
       0       0       0       0       0       0       0       0       0       0
       0       0       0       0       0       0       0       0       0       0
       0       0       0       0       0       0       0       0       0       0
       0       0       0       0       0       0       0       0       0       0
       0       0       0       0       0       0       0       0       0       0
       0       0       0       0       0       0       0       0       0       0
       0       0       0       0       0       0       0       0       0       0
       0       0       0       0       0       0       0       0       0       0
       0       0       0       0       0       0       0       0       0       0
       0       0       0       0       0       0       0       0       0       0
       0       0       0       0       0       0       0       0       0       0
       0       0       0       0       0       0       0       0       0       0
       0       0       0       0       0       0       0       0       0       0
       0       0       0       0       0       0       0       0       0       0
       0       0       0       0       0       0       0       0       0       0
       0       0       0       0       0       0       0       0       0       0
       0       0       0       0       0       0       0       0       0       0
       0       0       0       0       0       0       0       0       0       0
       0       0       0       0       0       0       0       0       0       0
       0       0       0       0       0       0       0       0       0       0
       0       0       0       0       0       0       0       0       0       0
       0       0       0       0       0       0       0       0       0       0
       0       0       0       0       0       0       0       0       0       0
       0       0       0       0       0       0       0       0       0       0
       0       0       0       0       0       0       0       0       0       0
       0       0       0       0       0       0       0       0       0       0
       0       0       0       0       0       0       0       0       0       0
       0       0       0       0       0       0       0       0       0       0
       0       0       0       0       0       0       0       0       0       0
       0       0       0       0       0       0       0       0       0       0
       0       0       0       0       0       0       0       0       0       0
       0       0       0       0       0       0       0       0       0       0
       0       0       0       0       0       0       0       0       0       0
       0       0       0       0       0       0       0       0       0       0
       0       0       0       0       0       0       0       0       0       0
       0       0       0       0       0       0       0       0       0       0
       0       0       0       0       0       0       0       0       0       0
       0       0       0       0       0       0       0       0       0       0
       0       0       0       0       0       0       0       0       0       0
       0       0       0       0       0       0       0       0       0       0
       0       0       0       0       0       0       0       0       0       0
       0       0       0       0       0       0       0       0       0       0
       0       0       0       0       0       0       0       0       0       0
       0       0       0       0       0       0       0       0       0       0
       0       0       0       0       0       0       0       0       0       0
       0       0       0       0       0       0       0       0       0       0
       0       0       0       0       0       0       0       0       0       0
       0       0       0       0       0       0       0       0       0       0
       0       0       0       0       0       0       0       0       0       0
       0       0       0       0       0       0       0       0       0       0
       0       0       0       0       0       0       0       0       0       0
       0       0       0       0       0       0       0       0       0       0
       0       0       0       0       0       0       0       0       0       0
       0       0       0       0       0       0       0       0       0       0
       0       0       0       0       0       0       0       0       0       0
       0       0       0       0       0       0       0       0       0       0
       0       0       0       0       0       0       0       0       0       0
       0       0       0       0       0       0       0       0       0       0
       0       0       0       0       0       0       0       0       0       0
       0       0       0       0       0       0       0       0       0       0
       0       0       0       0       0       0       0       0       0       0
       0       0       0       0       0       0       0       0       0       0
       0       0       0       0       0       0       0       0       0       0
       0       0       0       0       0       0       0       0       0       0
       0       0       0       0       0       0       0       0       0       0
       0       0       0       0       0       0       0       0       0       0
       0       0       0       0       0       0       0       0       0       0
       0       0       0       0       0       0       0       0       0       0
       0       0       0       0       0       0       0       0       0       0
       0       0       0       0       0       0       0       0       0       0
       0       0       0       0       0       0       0       0       0       0
       0       0       0       0       0       0       0       0       0       0
       0       0       0       0       0       0       0       0       0       0
       0       0       0       0       0       0       0       0       0       0
       0       0       0       0       0       0       0       0       0       0
       0       0       0       0       0       0       0       0       0       0
       0       0       0       0       0       0       0       0       0       0
       0       0       0       0       0       0       0       0       0       0
       0       0       0       0       0       0       0       0       0       0
       0       0       0       0       0       0       0       0       0       0
       0       0       0       0       0       0       0       0       0       0
       0       0       0       0       0       0       0       0       0       0
       0       0       0       0       0       0       0       0       0       0
       0       0       0       0       0       0       0       0       0       0
       0       0       0       0       0       0       0       0       0       0
       0       0       0       0       0       0       0       0       0       0
       0       0       0       0       0       0       0       0       0       0
       0       0       0       0       0       0       0       0       0       0
       0       0       0       0       0       0       0       0       0       0
       0       0       0       0       0       0       0       0       0       0
       0       0       0       0       0       0       0       0       0       0
       0       0       0       0       0       0       0       0       0       0
       0       0       0       0       0       0       0       0       0       0
       0       0       0       0       0       0       0       0       0       0
       0       0       0       0       0       0       0       0       0       0
       0       0       0       0       0       0       0       0       0       0
       0       0       0       0       0       0       0       0       0       0
       0       0       0       0       0       0       0       0       0       0
       0       0       0       0       0       0       0       0       0       0
       0       0       0       0       0       0       0       0       0       0
       0       0       0       0       0       0       0       0       0       0
       0       0       0       0       0       0       0       0       0       0
       0       0       0       0       0       0       0       0       0       0
       0       0       0       0       0       0       0       0       0       0
       0       0       0       0       0       0       0       0       0       0
       0       0       0       0       0       0       0       0       0       0
       0       0       0       0       0       0       0       0       0       0
       0       0       0       0       0       0       0       0       0       0
       0       0       0       0       0       0       0       0       0       0
       0       0       0       0       0       0       0       0       0       0
       0       0       0       0       0       0       0       0       0       0
       0       0       0       0       0       0       0       0       0       0
       0       0       0       0       0       0       0       0       0       0
       0       0       0       0       0       0       0       0       0       0
       0       0       0       0       0       0       0       0       0       0
       0       0       0       0       0       0       0       0       0       0
       0       0       0       0       0       0       0       0       0       0
       0       0       0       0       0       0       0       0       0       0
       0       0       0       0       0       0       0       0       0       0
       0       0       0       0       0       0       0       0       0       0
       0       0       0       0       0       0       0       0       0       0
       0       0       0       0       0       0       0       0       0       0
       0       0       0       0       0       0       0       0       0       0
       0       0       0       0       0       0       0       0       0       0
       0       0       0       0       0       0       0       0       0       0
       0       0       0       0       0       0       0       0       0       0
       0       0       0       0       0       0       0       0       0       0
       0       0       0       0       0       0       0       0       0       0
       0       0       0       0       0       0       0       0       0       0
       0       0       0       0       0       0       0       0       0       0
       0       0       0       0       0       0       0       0       0       0
       0       0       0       0       0       0       0       0       0       0
       0       0       0       0       0       0       0       0       0       0
       0       0       0       0       0       0       0       0       0       0
       0       0       0       0       0       0       0       0       0       0
       0       0       0       0       0       0       0       0       0       0
       0       0       0       0       0       0       0       0       0       0
       0       0       0       0       0       0       0       0       0       0
       0       0       0       0       0       0       0       0       0       0
       0       0       0       0       0       0       0       0       0       0
       0       0       0       0       0       0       0       0       0       0
       0       0       0       0       0       0       0       0       0       0
       0       0       0       0       0       0       0       0       0       0
       0       0       0       0       0       0       0       0       0       0
       0       0       0       0       0       0       0       0       0       0
       0       0       0       0       0       0       0       0       0       0
       0       0       0       0       0       0       0       0       0       0
       0       0       0       0       0       0       0       0       0       0
       0       0       0       0       0       0       0       0       0       0
       0       0       0       0       0       0       0       0       0       0
       0       0       0       0       0       0       0       0       0       0
       0       0       0       0       0       0       0       0       0       0
       0       0       0       0       0       0       0       0       0       0
       0       0       0       0       0       0       0       0       0       0
       0       0       0       0       0       0       0       0       0       0
       0       0       0       0       0       0       0       0       0       0
       0       0       0       0       0       0       0       0       0       0
       0       0       0       0       0       0       0       0       0       0
       0       0       0       0       0       0       0       0       0       0
       0       0       0       0       0       0       0       0       0       0
       0       0       0       0       0       0       0       0       0       0
       0       0       0       0       0       0       0       0       0       0
       0       0       0       0       0       0       0       0       0       0
       0       0       0       0       0       0       0       0       0       0
       0       0       0       0       0       0       0       0       0       0
       0       0       0       0       0       0       0       0       0       0
       0       0       0       0       0       0       0       0       0       0
       0       0       0       0       0       0       0       0       0       0
       0       0       0       0       0       0       0       0       0       0
       0       0       0       0       0       0       0       0       0       0
       0       0       0       0       0       0       0       0       0       0
       0       0       0       0       0       0       0       0       0       0
       0       0       0       0       0       0       0       0       0       0
       0       0       0       0       0       0       0       0       0       0
       0       0       0       0       0       0       0       0       0       0
       0       0       0       0       0       0       0       0       0       0
       0       0       0       0       0       0       0       0       0       0
       0       0       0       0       0       0       0       0       0       0
       0       0       0       0       0       0       0       0       0       0
       0       0       0       0       0       0       0       0       0       0
       0       0       0       0       0       0       0       0       0       0
       0       0       0       0       0       0       0       0       0       0
       0       0       0       0       0       0       0       0       0       0
       0       0       0       0       0       0       0       0       0       0
       0       0       0       0       0       0       0       0       0       0
       0       0       0       0       0       0       0       0       0       0
       0       0       0       0       0       0       0       0       0       0
       0       0       0       0       0       0       0       0       0       0
       0       0       0       0       0       0       0       0       0       0
       0       0       0       0       0       0       0       0       0       0
       0       0       0       0       0       0       0       0       0       0
       0       0       0       0       0       0       0       0       0       0
       0       0       0       0       0       0       0       0       0       0
       0       0       0       0       0       0       0       0       0       0
       0       0       0       0       0       0       0       0       0       0
       0       0       0       0       0       0       0       0       0       0
       0       0       0       0       0       0       0       0       0       0
       0       0       0       0       0       0       0       0       0       0
       0       0       0       0       0       0       0       0       0       0
       0       0       0       0       0       0       0       0       0       0
       0       0       0       0       0       0       0       0       0       0
       0       0       0       0       0       0       0       0       0       0
       0       0       0       0       0       0       0       0       0       0
       0       0       0       0       0       0       0       0       0       0
       0       0       0       0       0       0       0       0       0       0
       0       0       0       0       0       0       0       0       0       0
       0       0       0       0       0       0       0       0       0       0
       0       0       0       0       0       0       0       0       0       0
       0       0       0       0       0       0       0       0       0       0
       0       0       0       0       0       0       0       0       0       0
       0       0       0       0       0       0       0       0       0       0
       0       0       0       0       0       0       0       0       0       0
       0       0       0       0       0       0       0       0       0       0
       0       0       0       0       0       0       0       0       0       0
       0       0       0       0       0       0       0       0       0       0
       0       0       0       0       0       0       0       0       0       0
       0       0       0       0       0       0       0       0       0       0
       0       0       0       0       0       0       0       0       0       0
       0       0       0       0       0       0       0       0       0       0
       0       0       0       0       0       0       0       0       0       0
       0       0       0       0       0       0       0       0       0       0
       0       0       0       0       0       0       0       0       0       0
       0       0       0       0       0       0       0       0       0       0
       0       0       0       0       0       0       0       0       0       0
       0       0       0       0       0       0       0       0       0       0
       0       0       0       0       0       0       0       0       0       0
       0       0       0       0       0       0       0       0       0       0
       0       0       0       0       0       0       0       0       0       0
       0       0       0       0       0       0       0       0       0       0
       0       0       0       0       0       0       0       0       0       0
       0       0       0       0       0       0       0       0       0       0
       0       0       0       0       0       0       0       0       0       0
       0       0       0       0       0       0       0       0       0       0
       0       0       0       0       0       0       0       0       0       0
       0       0       0       0       0       0       0       0       0       0
       0       0       0       0       0       0       0       0       0       0
       0       0       0       0       0       0       0       0       0       0
       0       0       0       0       0       0       0       0       0       0
       0       0       0       0       0       0       0       0       0       0
       0       0       0       0       0       0       0       0       0       0
       0       0       0       0       0       0       0       0       0       0
       0       0       0       0       0       0       0       0       0       0
       0       0       0       0       0       0       0       0       0       0
       0       0       0       0       0       0       0       0       0       0
       0       0       0       0       0       0       0       0       0       0
       0       0       0       0       0       0       0       0       0       0
       0       0       0       0       0       0       0       0       0       0
       0       0       0       0       0       0       0       0       0       0
       0       0       0       0       0       0       0       0       0       0
       0       0       0       0       0       0       0       0       0       0
       0       0       0       0       0       0       0       0       0       0
       0       0       0       0       0       0       0       0       0       0
       0       0       0       0       0       0       0       0       0       0
       0       0       0       0       0       0       0       0       0       0
       0       0       0       0       0       0       0       0       0       0
       0       0       0       0       0       0       0       0       0       0
       0       0       0       0       0       0       0       0       0       0
       0       0       0       0       0       0       0       0       0       0
       0       0       0       0       0       0       0       0       0       0
       0       0       0       0       0       0       0       0       0       0
       0       0       0       0       0       0       0       0       0       0
       0       0       0       0       0       0       0       0       0       0
       0       0       0       0       0       0       0       0       0       0
       0       0       0       0       0       0       0       0       0       0
       0       0       0       0       0       0       0       0       0       0
       0       0       0       0       0       0       0       0       0       0
       0       0       0       0       0       0       0       0       0       0
       0       0       0       0       0       0       0       0       0       0
       0       0       0       0       0       0       0       0       0       0
       0       0       0       0       0       0       0       0       0       0
       0       0       0       0       0       0       0       0       0       0
       0       0       0       0       0       0       0       0       0       0
       0       0       0       0       0       0       0       0       0       0
       0       0       0       0       0       0       0       0       0       0
       0       0       0       0       0       0       0       0       0       0
       0       0       0       0       0       0       0       0       0       0
       0       0       0       0       0       0       0       0       0       0
       0       0       0       0       0       0       0       0       0       0
       0       0       0       0       0       0       0       0       0       0
       0       0       0       0       0       0       0       0       0       0
       0       0       0       0       0       0       0       0       0       0
       0       0       0       0       0       0       0       0       0       0
       0       0       0       0       0       0       0       0       0       0
       0       0       0       0       0       0       0       0       0       0
       0       0       0       0       0       0       0       0       0       0
       0       0       0       0       0       0       0       0       0       0
       0       0       0       0       0       0       0       0       0       0
       0       0       0       0       0       0       0       0       0       0
       0       0       0       0       0       0       0       0       0       0
       0       0       0       0       0       0       0       0       0       0
       0       0       0       0       0       0       0       0       0       0
       0       0       0       0       0       0       0       0       0       0
       0       0       0       0       0       0       0       0       0       0
       0       0       0       0       0       0       0       0       0       0
       0       0       0       0       0       0       0       0       0       0
       0       0       0       0       0       0       0       0       0       0
       0       0       0       0       0       0       0       0       0       0
       0       0       0       0       0       0       0       0       0       0
       0       0       0       0       0       0       0       0       0       0
       0       0       0       0       0       0       0       0       0       0
       0       0       0       0       0       0       0       0       0       0
       0       0       0       0       0       0       0       0       0       0
       0       0       0       0       0       0       0       0       0       0
       0       0       0       0       0       0       0       0       0       0
       0       0       0       0       0       0       0       0       0       0
       0       0       0       0       0       0       0       0       0       0
       0       0       0       0       0       0       0       0       0       0
       0       0       0       0       0       0       0       0       0       0
       0       0       0       0       0       0       0       0       0       0
       0       0       0       0       0       0       0       0       0       0
       0       0       0       0       0       0       0       0       0       0
       0       0       0       0       0       0       0       0       0       0
       0       0       0       0       0       0       0       0       0       0
       0       0       0       0       0       0       0       0       0       0
       0       0       0       0       0       0       0       0       0       0
       0       0       0       0       0       0       0       0       0       0
       0       0       0       0       0       0       0       0       0       0
       0       0       0       0       0       0       0       0       0       0
       0       0       0       0       0       0       0       0       0       0
       0       0       0       0       0       0       0       0       0       0
       0       0       0       0       0       0       0       0       0       0
       0       0       0       0       0       0       0       0       0       0
       0       0       0       0       0       0       0       0       0       0
       0       0       0       0       0       0       0       0       0       0
       0       0       0       0       0       0       0       0       0       0
       0       0       0       0       0       0       0       0       0       0
       0       0       0       0       0       0       0       0       0       0
       0       0       0       0       0       0       0       0       0       0
       0       0       0       0       0       0       0       0       0       0
       0       0       0       0       0       0       0       0       0       0
       0       0       0       0       0       0       0       0       0       0
       0       0       0       0       0       0       0       0       0       0
       0       0       0       0       0       0       0       0       0       0
       0       0       0       0       0       0       0       0       0       0
       0       0       0       0       0       0       0       0       0       0
       0       0       0       0       0       0       0       0       0       0
       0       0       0       0       0       0       0       0       0       0
       0       0       0       0       0       0       0       0       0       0
       0       0       0       0       0       0       0       0       0       0
       0       0       0       0       0       0       0       0       0       0
       0       0       0       0       0       0       0       0       0       0
       0       0       0       0       0       0       0       0       0       0
       0       0       0       0       0       0       0       0       0       0
       0       0       0       0       0       0       0       0       0       0
       0       0       0       0       0       0       0       0       0       0
       0       0       0       0       0       0       0       0       0       0
       0       0       0       0       0       0       0       0       0       0
       0       0       0       0       0       0       0       0       0       0
       0       0       0       0       0       0       0       0       0       0
       0       0       0       0       0       0       0       0       0       0
       0       0       0       0       0       0       0       0       0       0
       0       0       0       0       0       0       0       0       0       0
       0       0       0       0       0       0       0       0       0       0
       0       0       0       0       0       0       0       0       0       0
       0       0       0       0       0       0       0       0       0       0
       0       0       0       0       0       0       0       0       0       0
       0       0       0       0       0       0       0       0       0       0
       0       0       0       0       0       0       0       0       0       0
       0       0       0       0       0       0       0       0       0       0
       0       0       0       0       0       0       0       0       0       0
       0       0       0       0       0       0       0       0       0       0
       0       0       0       0       0       0       0       0       0       0
       0       0       0       0       0       0       0       0       0       0
       0       0       0       0       0       0       0       0       0       0
       0       0       0       0       0       0       0       0       0       0
       0       0       0       0       0       0       0       0       0       0
       0       0       0       0       0       0       0       0       0       0
       0       0       0       0       0       0       0       0       0       0
       0       0       0       0       0       0       0       0       0       0
       0       0       0       0       0       0       0       0       0       0
       0       0       0       0       0       0       0       0       0       0
       0       0       0       0       0       0       0       0       0       0
       0       0       0       0       0       0       0       0       0       0
       0       0       0       0       0       0       0       0       0       0
       0       0       0       0       0       0       0       0       0       0
       0       0       0       0       0       0       0       0       0       0
       0       0       0       0       0       0       0       0       0       0
       0       0       0       0       0       0       0       0       0       0
       0       0       0       0       0       0       0       0       0       0
       0       0       0       0       0       0       0       0       0       0
       0       0       0       0       0       0       0       0       0       0
       0       0       0       0       0       0       0       0       0       0
       0       0       0       0       0       0       0       0       0       0
       0       0       0       0       0       0       0       0       0       0
       0       0       0       0       0       0       0       0       0       0
       0       0       0       0       0       0       0       0       0       0
       0       0       0       0       0       0       0       0       0       0
       0       0       0       0       0       0       0       0       0       0
       0       0       0       0       0       0       0       0       0       0
       0       0       0       0       0       0       0       0       0       0
       0       0       0       0       0       0       0       0       0       0
       0       0       0       0       0       0       0       0       0       0
       0       0       0       0       0       0       0       0       0       0
       0       0       0       0       0       0       0       0       0       0
       0       0       0       0       0       0       0       0       0       0
       0       0       0       0       0       0       0       0       0       0
       0       0       0       0       0       0       0       0       0       0
       0       0       0       0       0       0       0       0       0       0
       0       0       0       0       0       0       0       0       0       0
       0       0       0       0       0       0       0       0       0       0
       0       0       0       0       0       0       0       0       0       0
       0       0       0       0       0       0       0       0       0       0
       0       0       0       0       0       0       0       0       0       0
       0       0       0       0       0       0       0       0       0       0
       0       0       0       0       0       0       0       0       0       0
       0       0       0       0       0       0       0       0       0       0
       0       0       0       0       0       0       0       0       0       0
       0       0       0       0       0       0       0       0       0       0
       0       0       0       0       0       0       0       0       0       0
       0       0       0       0       0       0       0       0       0       0
       0       0       0       0       0       0       0       0       0       0
       0       0       0       0       0       0       0       0       0       0
       0       0       0       0       0       0       0       0       0       0
       0       0       0       0       0       0       0       0       0       0
       0       0       0       0       0       0       0       0       0       0
       0       0       0       0       0       0       0       0       0       0
       0       0       0       0       0       0       0       0       0       0
       0       0       0       0       0       0       0       0       0       0
       0       0       0       0       0       0       0       0       0       0
       0       0       0       0       0       0       0       0       0       0
       0       0       0       0       0       0       0       0       0       0
       0       0       0       0       0       0       0       0       0       0
       0       0       0       0       0       0       0       0       0       0
       0       0       0       0       0       0       0       0       0       0
       0       0       0       0       0       0       0       0       0       0
       0       0       0       0       0       0       0       0       0       0
       0       0       0       0       0       0       0       0       0       0
       0       0       0       0       0       0       0       0       0       0
       0       0       0       0       0       0       0       0       0       0
       0       0       0       0       0       0       0       0       0       0
       0       0       0       0       0       0       0       0       0       0
       0       0       0       0       0       0       0       0       0       0
       0       0       0       0       0       0       0       0       0       0
       0       0       0       0       0       0       0       0       0       0
       0       0       0       0       0       0       0       0       0       0
       0       0       0       0       0       0       0       0       0       0
       0       0       0       0       0       0       0       0       0       0
       0       0       0       0       0       0       0       0       0       0
       0       0       0       0       0       0       0       0       0       0
       0       0       0       0       0       0       0       0       0       0
       0       0       0       0       0       0       0       0       0       0
       0       0       0       0       0       0       0       0       0       0
       0       0       0       0       0       0       0       0       0       0
       0       0       0       0       0       0       0       0       0       0
       0       0       0       0       0       0       0       0       0       0
       0       0       0       0       0       0       0       0       0       0
       0       0       0       0       0       0       0       0       0       0
       0       0       0       0       0       0       0       0       0       0
       0       0       0       0       0       0       0       0       0       0
       0       0       0       0       0       0       0       0       0       0
       0       0       0       0       0       0       0       0       0       0
       0       0       0       0       0       0       0       0       0       0
       0       0       0       0       0       0       0       0       0       0
       0       0       0       0       0       0       0       0       0       0
       0       0       0       0       0       0       0       0       0       0
       0       0       0       0       0       0       0       0       0       0
       0       0       0       0       0       0       0       0       0       0
       0       0       0       0       0       0       0       0       0       0
       0       0       0       0       0       0       0       0       0       0
       0       0       0       0       0       0       0       0       0       0
       0       0       0       0       0       0       0       0       0       0
       0       0       0       0       0       0       0       0       0       0
       0       0       0       0       0       0       0       0       0       0
       0       0       0       0       0       0       0       0       0       0
       0       0       0       0       0       0       0       0       0       0
       0       0       0       0       0       0       0       0       0       0
       0       0       0       0       0       0       0       0       0       0
       0       0       0       0       0       0       0       0       0       0
       0       0       0       0       0       0       0       0       0       0
       0       0       0       0       0       0       0       0       0       0
       0       0       0       0       0       0       0       0       0       0
       0       0       0       0       0       0       0       0       0       0
       0       0       0       0       0       0       0       0       0       0
       0       0       0       0       0       0       0       0       0       0
       0       0       0       0       0       0       0       0       0       0
       0       0       0       0       0       0       0       0       0       0
       0       0       0       0       0       0       0       0       0       0
       0       0       0       0       0       0       0       0       0       0
       0       0       0       0       0       0       0       0       0       0
       0       0       0       0       0       0       0       0       0       0
       0       0       0       0       0       0       0       0       0       0
       0       0       0       0       0       0       0       0       0       0
       0       0       0       0       0       0       0       0       0       0
       0       0       0       0       0       0       0       0       0       0
       0       0       0       0       0       0       0       0       0       0
       0       0       0       0       0       0       0       0       0       0
       0       0       0       0       0       0       0       0       0       0
       0       0       0       0       0       0       0       0       0       0
       0       0       0       0       0       0       0       0       0       0
       0       0       0       0       0       0       0       0       0       0
       0       0       0       0       0       0       0       0       0       0
       0       0       0       0       0       0       0       0       0       0
       0       0       0       0       0       0       0       0       0       0
       0       0       0       0       0       0       0       0       0       0
       0       0       0       0       0       0       0       0       0       0
       0       0       0       0       0       0       0       0       0       0
       0       0       0       0       0       0       0       0       0       0
       0       0       0       0       0       0       0       0       0       0
       0       0       0       0       0       0       0       0       0       0
       0       0       0       0       0       0       0       0       0       0
       0       0       0       0       0       0       0       0       0       0
       0       0       0       0       0       0       0       0       0       0
       0       0       0       0       0       0       0       0       0       0
       0       0       0       0       0       0       0       0       0       0
       0       0       0       0       0       0       0       0       0       0
       0       0       0       0       0       0       0       0       0       0
       0       0       0       0       0       0       0       0       0       0
       0       0       0       0       0       0       0       0       0       0
       0       0       0       0       0       0       0       0       0       0
       0       0       0       0       0       0       0       0       0       0
       0       0       0       0       0       0       0       0       0       0
       0       0       0       0       0       0       0       0       0       0
       0       0       0       0       0       0       0       0       0       0
       0       0       0       0       0       0       0       0       0       0
       0       0       0       0       0       0       0       0       0       0
       0       0       0       0       0       0       0       0       0       0
       0       0       0       0       0       0       0       0       0       0
       0       0       0       0       0       0       0       0       0       0
       0       0       0       0       0       0       0       0       0       0
       0       0       0       0       0       0       0       0       0       0
       0       0       0       0       0       0       0       0       0       0
       0       0       0       0       0       0       0       0       0       0
       0       0       0       0       0       0       0       0       0       0
       0       0       0       0       0       0       0       0       0       0
       0       0       0       0       0       0       0       0       0       0
       0       0       0       0       0       0       0       0       0       0
       0       0       0       0       0       0       0       0       0       0
       0       0       0       0       0       0       0       0       0       0
       0       0       0       0       0       0       0       0       0       0
       0       0       0       0       0       0       0       0       0       0
       0       0       0       0       0       0       0       0       0       0
       0       0       0       0       0       0       0       0       0       0
       0       0       0       0       0       0       0       0       0       0
       0       0       0       0       0       0       0       0       0       0
       0       0       0       0       0       0       0       0       0       0
       0       0       0       0       0       0       0       0       0       0
       0       0       0       0       0       0       0       0       0       0
       0       0       0       0       0       0       0       0       0       0
       0       0       0       0       0       0       0       0       0       0
       0       0       0       0       0       0       0       0       0       0
       0       0       0       0       0       0       0       0       0       0
       0       0       0       0       0       0       0       0       0       0
       0       0       0       0       0       0       0       0       0       0
       0       0       0       0       0       0       0       0       0       0
       0       0       0       0       0       0       0       0       0       0
       0       0       0       0       0       0       0       0       0       0
       0       0       0       0       0       0       0       0       0       0
       0       0       0       0       0       0       0       0       0       0
       0       0       0       0       0       0       0       0       0       0
       0       0       0       0       0       0       0       0       0       0
       0       0       0       0       0       0       0       0       0       0
       0       0       0       0       0       0       0       0       0       0
       0       0       0       0       0       0       0       0       0       0
       0       0       0       0       0       0       0       0       0       0
       0       0       0       0       0       0       0       0       0       0
       0       0       0       0       0       0       0       0       0       0
       0       0       0       0       0       0       0       0       0       0
       0       0       0       0       0       0       0       0       0       0
       0       0       0       0       0       0       0       0       0       0
       0       0       0       0       0       0       0       0       0       0
       0       0       0       0       0       0       0       0       0       0
       0       0       0       0       0       0       0       0       0       0
       0       0       0       0       0       0       0       0       0       0
       0       0       0       0       0       0       0       0       0       0
       0       0       0       0       0       0       0       0       0       0
       0       0       0       0       0       0       0       0       0       0
       0       0       0       0       0       0       0       0       0       0
       0       0       0       0       0       0       0       0       0       0
       0       0       0       0       0       0       0       0       0       0
       0       0       0       0       0       0       0       0       0       0
       0       0       0       0       0       0       0       0       0       0
       0       0       0       0       0       0       0       0       0       0
       0       0       0       0       0       0       0       0       0       0
       0       0       0       0       0       0       0       0       0       0
       0       0       0       0       0       0       0       0       0       0
       0       0       0       0       0       0       0       0       0       0
       0       0       0       0       0       0       0       0       0       0
       0       0       0       0       0       0       0       0       0       0
       0       0       0       0       0       0       0       0       0       0
       0       0       0       0       0       0       0       0       0       0
       0       0       0       0       0       0       0       0       0       0
       0       0       0       0       0       0       0       0       0       0
       0       0       0       0       0       0       0       0       0       0
       0       0       0       0       0       0       0       0       0       0
       0       0       0       0       0       0       0       0       0       0
       0       0       0       0       0       0       0       0       0       0
       0       0       0       0       0       0       0       0       0       0
       0       0       0       0       0       0       0       0       0       0
       0       0       0       0       0       0       0       0       0       0
       0       0       0       0       0       0       0       0       0       0
       0       0       0       0       0       0       0       0       0       0
       0       0       0       0       0       0       0       0       0       0
       0       0       0       0       0       0       0       0       0       0
       0       0       0       0       0       0       0       0       0       0
       0       0       0       0       0       0       0       0       0       0
       0       0       0       0       0       0       0       0       0       0
       0       0       0       0       0       0       0       0       0       0
       0       0       0       0       0       0       0       0       0       0
       0       0       0       0       0       0       0       0       0       0
       0       0       0       0       0       0       0       0       0       0
       0       0       0       0       0       0       0       0       0       0
       0       0       0       0       0       0       0       0       0       0
       0       0       0       0       0       0       0       0       0       0
       0       0       0       0       0       0       0       0       0       0
       0       0       0       0       0       0       0       0       0       0
       0       0       0       0       0       0       0       0       0       0
       0       0       0       0       0       0       0       0       0       0
       0       0       0       0       0       0       0       0       0       0
       0       0       0       0       0       0       0       0       0       0
       0       0       0       0       0       0       0       0       0       0
       0       0       0       0       0       0       0       0       0       0
       0       0       0       0       0       0       0       0       0       0
       0       0       0       0       0       0       0       0       0       0
       0       0       0       0       0       0       0       0       0       0
       0       0       0       0       0       0       0       0       0       0
       0       0       0       0       0       0       0       0       0       0
       0       0       0       0       0       0       0       0       0       0
       0       0       0       0       0       0       0       0       0       0
       0       0       0       0       0       0       0       0       0       0
       0       0       0       0       0       0       0       0       0       0
       0       0       0       0       0       0       0       0       0       0
       0       0       0       0       0       0       0       0       0       0
       0       0       0       0       0       0       0       0       0       0
       0       0       0       0       0       0       0       0       0       0
       0       0       0       0       0       0       0       0       0       0
       0       0       0       0       0       0       0       0       0       0
       0       0       0       0       0       0       0       0       0       0
       0       0       0       0       0       0       0       0       0       0
       0       0       0       0       0       0       0       0       0       0
       0       0       0       0       0       0       0       0       0       0
       0       0       0       0       0       0       0       0       0       0
       0       0       0       0       0       0       0       0       0       0
       0       0       0       0       0       0       0       0       0       0
       0       0       0       0       0       0       0       0       0       0
       0       0       0       0       0       0       0       0       0       0
       0       0       0       0       0       0       0       0       0       0
       0       0       0       0       0       0       0       0       0       0
       0       0       0       0       0       0       0       0       0       0
       0       0       0       0       0       0       0       0       0       0
       0       0       0       0       0       0       0       0       0       0
       0       0       0       0       0       0       0       0       0       0
       0       0       0       0       0       0       0       0       0       0
       0       0       0       0       0       0       0       0       0       0
       0       0       0       0       0       0       0       0       0       0
       0       0       0       0       0       0       0       0       0       0
       0       0       0       0       0       0       0       0       0       0
       0       0       0       0       0       0       0       0       0       0
       0       0       0       0       0       0       0       0       0       0
       0       0       0       0       0       0       0       0       0       0
       0       0       0       0       0       0       0       0       0       0
       0       0       0       0       0       0       0       0       0       0
       0       0       0       0       0       0       0       0       0       0
       0       0       0       0       0       0       0       0       0       0
       0       0       0       0       0       0       0       0       0       0
       0       0       0       0       0       0       0       0       0       0
       0       0       0       0       0       0       0       0       0       0
       0       0       0       0       0       0       0       0       0       0
       0       0       0       0       0       0       0       0       0       0
       0       0       0       0       0       0       0       0       0       0
       0       0       0       0       0       0       0       0       0       0
       0       0       0       0       0       0       0       0       0       0
       0       0       0       0       0       0       0       0       0       0
       0       0       0       0       0       0       0       0       0       0
       0       0       0       0       0       0       0       0       0       0
       0       0       0       0       0       0       0       0       0       0
       0       0       0       0       0       0       0       0       0       0
       0       0       0       0       0       0       0       0       0       0
       0       0       0       0       0       0       0       0       0       0
       0       0       0       0       0       0       0       0       0       0
       0       0       0       0       0       0       0       0       0       0
       0       0       0       0       0       0       0       0       0       0
       0       0       0       0       0       0       0       0       0       0
       0       0       0       0       0       0       0       0       0       0
       0       0       0       0       0       0       0       0       0       0
       0       0       0       0       0       0       0       0       0       0
       0       0       0       0       0       0       0       0       0       0
       0       0       0       0       0       0       0       0       0       0
       0       0       0       0       0       0       0       0       0       0
       0       0       0       0       0       0       0       0       0       0
       0       0       0       0       0       0       0       0       0       0
       0       0       0       0       0       0       0       0       0       0
       0       0       0       0       0       0       0       0       0       0
       0       0       0       0       0       0       0       0       0       0
       0       0       0       0       0       0       0       0       0       0
       0       0       0       0       0       0       0       0       0       0
       0       0       0       0       0       0       0       0       0       0
       0       0       0       0       0       0       0       0       0       0
       0       0       0       0       0       0       0       0       0       0
       0       0       0       0       0       0       0       0       0       0
       0       0       0       0       0       0       0       0       0       0
       0       0       0       0       0       0       0       0       0       0
       0       0       0       0       0       0       0       0       0       0
       0       0       0       0       0       0       0       0       0       0
       0       0       0       0       0       0       0       0       0       0
       0       0       0       0       0       0       0       0       0       0
       0       0       0       0       0       0       0       0       0       0
       0       0       0       0       0       0       0       0       0       0
       0       0       0       0       0       0       0       0       0       0
       0       0       0       0       0       0       0       0       0       0
       0       0       0       0       0       0       0       0       0       0
       0       0       0       0       0       0       0       0       0       0
       0       0       0       0       0       0       0       0       0       0
       0       0       0       0       0       0       0       0       0       0
       0       0       0       0       0       0       0       0       0       0
       0       0       0       0       0       0       0       0       0       0
       0       0       0       0       0       0       0       0       0       0
       0       0       0       0       0       0       0       0       0       0
       0       0       0       0       0       0       0       0       0       0
       0       0       0       0       0       0       0       0       0       0
       0       0       0       0       0       0       0       0       0       0
       0       0       0       0       0       0       0       0       0       0
       0       0       0       0       0       0       0       0       0       0
       0       0       0       0       0       0       0       0       0       0
       0       0       0       0       0       0       0       0       0       0
       0       0       0       0       0       0       0       0       0       0
       0       0       0       0       0       0       0       0       0       0
       0       0       0       0       0       0       0       0       0       0
       0       0       0       0       0       0       0       0       0       0
       0       0       0       0       0       0       0       0       0       0
       0       0       0       0       0       0       0       0       0       0
       0       0       0       0       0       0       0       0       0       0
       0       0       0       0       0       0       0       0       0       0
       0       0       0       0       0       0       0       0       0       0
       0       0       0       0       0       0       0       0       0       0
       0       0       0       0       0       0       0       0       0       0
       0       0       0       0       0       0       0       0       0       0
       0       0       0       0       0       0       0       0       0       0
       0       0       0       0       0       0       0       0       0       0
       0       0       0       0       0       0       0       0       0       0
       0       0       0       0       0       0       0       0       0       0
       0       0       0       0       0       0       0       0       0       0
       0       0       0       0       0       0       0       0       0       0
       0       0       0       0       0       0       0       0       0       0
       0       0       0       0       0       0       0       0       0       0
       0       0       0       0       0       0       0       0       0       0
       0       0       0       0       0       0       0       0       0       0
       0       0       0       0       0       0       0       0       0       0
       0       0       0       0       0       0       0       0       0       0
       0       0       0       0       0       0       0       0       0       0
       0       0       0       0       0       0       0       0       0       0
       0       0       0       0       0       0       0       0       0       0
       0       0       0       0       0       0       0       0       0       0
       0       0       0       0       0       0       0       0       0       0
       0       0       0       0       0       0       0       0       0       0
       0       0       0       0       0       0       0       0       0       0
       0       0       0       0       0       0       0       0       0       0
       0       0       0       0       0       0       0       0       0       0
       0       0       0       0       0       0       0       0       0       0
       0       0       0       0       0       0       0       0       0       0
       0       0       0       0       0       0       0       0       0       0
       0       0       0       0       0       0       0       0       0       0
       0       0       0       0       0       0       0       0       0       0
       0       0       0       0       0       0       0       0       0       0
       0       0       0       0       0       0       0       0       0       0
       0       0       0       0       0       0       0       0       0       0
       0       0       0       0       0       0       0       0       0       0
       0       0       0       0       0       0       0       0       0       0
       0       0       0       0       0       0       0       0       0       0
       0       0       0       0       0       0       0       0       0       0
       0       0       0       0       0       0       0       0       0       0
       0       0       0       0       0       0       0       0       0       0
       0       0       0       0       0       0       0       0       0       0
       0       0       0       0       0       0       0       0       0       0
       0       0       0       0       0       0       0       0       0       0
       0       0       0       0       0       0       0       0       0       0
       0       0       0       0       0       0       0       0       0       0
       0       0       0       0       0       0       0       0       0       0
       0       0       0       0       0       0       0       0       0       0
       0       0       0       0       0       0       0       0       0       0
       0       0       0       0       0       0       0       0       0       0
       0       0       0       0       0       0       0       0       0       0
       0       0       0       0       0       0       0       0       0       0
       0       0       0       0       0       0       0       0       0       0
       0       0       0       0       0       0       0       0       0       0
       0       0       0       0       0       0       0       0       0       0
       0       0       0       0       0       0       0       0       0       0
       0       0       0       0       0       0       0       0       0       0
       0       0       0       0       0       0       0       0       0       0
       0       0       0       0       0       0       0       0       0       0
       0       0       0       0       0       0       0       0       0       0
       0       0       0       0       0       0       0       0       0       0
       0       0       0       0       0       0       0       0       0       0
       0       0       0       0       0       0       0       0       0       0
       0       0       0       0       0       0       0       0       0       0
       0       0       0       0       0       0       0       0       0       0
       0       0       0       0       0       0       0       0       0       0
       0       0       0       0       0       0       0       0       0       0
       0       0       0       0       0       0       0       0       0       0
       0       0       0       0       0       0       0       0       0       0
       0       0       0       0       0       0       0       0       0       0
       0       0       0       0       0       0       0       0       0       0
       0       0       0       0       0       0       0       0       0       0
       0       0       0       0       0       0       0       0       0       0
       0       0       0       0       0       0       0       0       0       0
       0       0       0       0       0       0       0       0       0       0
       0       0       0       0       0       0       0       0       0       0
       0       0       0       0       0       0       0       0       0       0
       0       0       0       0       0       0       0       0       0       0
       0       0       0       0       0       0       0       0       0       0
       0       0       0       0       0       0       0       0       0       0
       0       0       0       0       0       0       0       0       0       0
       0       0       0       0       0       0       0       0       0       0
       0       0       0       0       0       0       0       0       0       0
       0       0       0       0       0       0       0       0       0       0
       0       0       0       0       0       0       0       0       0       0
       0       0       0       0       0       0       0       0       0       0
       0       0       0       0       0       0       0       0       0       0
       0       0       0       0       0       0       0       0       0       0
       0       0       0       0       0       0       0       0       0       0
       0       0       0       0       0       0       0       0       0       0
       0       0       0       0       0       0       0       0       0       0
       0       0       0       0       0       0       0       0       0       0
       0       0       0       0       0       0       0       0       0       0
       0       0       0       0       0       0       0       0       0       0
       0       0       0       0       0       0       0       0       0       0
       0       0       0       0       0       0       0       0       0       0
       0       0       0       0       0       0       0       0       0       0
       0       0       0       0       0       0       0       0       0       0
       0       0       0       0       0       0       0       0       0       0
       0       0       0       0       0       0       0       0       0       0
       0       0       0       0       0       0       0       0       0       0
       0       0       0       0       0       0       0       0       0       0
       0       0       0       0       0       0       0       0       0       0
       0       0       0       0       0       0       0       0       0       0
       0       0       0       0       0       0       0       0       0       0
       0       0       0       0       0       0       0       0       0       0
       0       0       0       0       0       0       0       0       0       0
       0       0       0       0       0       0       0       0       0       0
       0       0       0       0       0       0       0       0       0       0
       0       0       0       0       0       0       0       0       0       0
       0       0       0       0       0       0       0       0       0       0
       0       0       0       0       0       0       0       0       0       0
       0       0       0       0       0       0       0       0       0       0
       0       0       0       0       0       0       0       0       0       0
       0       0       0       0       0       0       0       0       0       0
       0       0       0       0       0       0       0       0       0       0
       0       0       0       0       0       0       0       0       0       0
       0       0       0       0       0       0       0       0       0       0
       0       0       0       0       0       0       0       0       0       0
       0       0       0       0       0       0       0       0       0       0
       0       0       0       0       0       0       0       0       0       0
       0       0       0       0       0       0       0       0       0       0
       0       0       0       0       0       0       0       0       0       0
       0       0       0       0       0       0       0       0       0       0
       0       0       0       0       0       0       0       0       0       0
       0       0       0       0       0       0       0       0       0       0
       0       0       0       0       0       0       0       0       0       0
       0       0       0       0       0       0       0       0       0       0
       0       0       0       0       0       0       0       0       0       0
       0       0       0       0       0       0       0       0       0       0
       0       0       0       0       0       0       0       0       0       0
       0       0       0       0       0       0       0       0       0       0
       0       0       0       0       0       0       0       0       0       0
       0       0       0       0       0       0       0       0       0       0
       0       0       0       0       0       0       0       0       0       0
       0       0       0       0       0       0       0       0       0       0
       0       0       0       0       0       0       0       0       0       0
       0       0       0       0       0       0       0       0       0       0
       0       0       0       0       0       0       0       0       0       0
       0       0       0       0       0       0       0       0       0       0
       0       0       0       0       0       0       0       0       0       0
       0       0       0       0       0       0       0       0       0       0
       0       0       0       0       0       0       0       0       0       0
       0       0       0       0       0       0       0       0       0       0
       0       0       0       0       0       0       0       0       0       0
       0       0       0       0       0       0       0       0       0       0
       0       0       0       0       0       0       0       0       0       0
       0       0       0       0       0       0       0       0       0       0
       0       0       0       0       0       0       0       0       0       0
       0       0       0       0       0       0       0       0       0       0
       0       0       0       0       0       0       0       0       0       0
       0       0       0       0       0       0       0       0       0       0
       0       0       0       0       0       0       0       0       0       0
       0       0       0       0       0       0       0       0       0       0
       0       0       0       0       0       0       0       0       0       0
       0       0       0       0       0       0       0       0       0       0
       0       0       0       0       0       0       0       0       0       0
       0       0       0       0       0       0       0       0       0       0
       0       0       0       0       0       0       0       0       0       0
       0       0       0       0       0       0       0       0       0       0
       0       0       0       0       0       0       0       0       0       0
       0       0       0       0       0       0       0       0       0       0
       0       0       0       0       0       0       0       0       0       0
       0       0       0       0       0       0       0       0       0       0
       0       0       0       0       0       0       0       0       0       0
       0       0       0       0       0       0       0       0       0       0
       0       0       0       0       0       0       0       0       0       0
       0       0       0       0       0       0       0       0       0       0
       0       0       0       0       0       0       0       0       0       0
       0       0       0       0       0       0       0       0       0       0
       0       0       0       0       0       0       0       0       0       0
       0       0       0       0       0       0       0       0       0       0
       0       0       0       0       0       0       0       0       0       0
       0       0       0       0       0       0       0       0       0       0
       0       0       0       0       0       0       0       0       0       0
       0       0       0       0       0       0       0       0       0       0
       0       0       0       0       0       0       0       0       0       0
       0       0       0       0       0       0       0       0       0       0
       0       0       0       0       0       0       0       0       0       0
       0       0       0       0       0       0       0       0       0       0
       0       0       0       0       0       0       0       0       0       0
       0       0       0       0       0       0       0       0       0       0
       0       0       0       0       0       0       0       0       0       0
       0       0       0       0       0       0       0       0       0       0
       0       0       0       0       0       0       0       0       0       0
       0       0       0       0       0       0       0       0       0       0
       0       0       0       0       0       0       0       0       0       0
       0       0       0       0       0       0       0       0       0       0
       0       0       0       0       0       0       0       0       0       0
       0       0       0       0       0       0       0       0       0       0
       0       0       0       0       0       0       0       0       0       0
       0       0       0       0       0       0       0       0       0       0
       0       0       0       0       0       0       0       0       0       0
       0       0       0       0       0       0       0       0       0       0
       0       0       0       0       0       0       0       0       0       0
       0       0       0       0       0       0       0       0       0       0
       0       0       0       0       0       0       0       0       0       0
       0       0       0       0       0       0       0       0       0       0
       0       0       0       0       0       0       0       0       0       0
       0       0       0       0       0       0       0       0       0       0
       0       0       0       0       0       0       0       0       0       0
       0       0       0       0       0       0       0       0       0       0
       0       0       0       0       0       0       0       0       0       0
       0       0       0       0       0       0       0       0       0       0
       0       0       0       0       0       0       0       0       0       0
       0       0       0       0       0       0       0       0       0       0
       0       0       0       0       0       0       0       0       0       0
       0       0       0       0       0       0       0       0       0       0
       0       0       0       0       0       0       0       0       0       0
       0       0       0       0       0       0       0       0       0       0
       0       0       0       0       0       0       0       0       0       0
       0       0       0       0       0       0       0       0       0       0
       0       0       0       0       0       0       0       0       0       0
       0       0       0       0       0       0       0       0       0       0
       0       0       0       0       0       0       0       0       0       0
       0       0       0       0       0       0       0       0       0       0
       0       0       0       0       0       0       0       0       0       0
       0       0       0       0       0       0       0       0       0       0
       0       0       0       0       0       0       0       0       0       0
       0       0       0       0       0       0       0       0       0       0
       0       0       0       0       0       0       0       0       0       0
       0       0       0       0       0       0       0       0       0       0
       0       0       0       0       0       0       0       0       0       0
       0       0       0       0       0       0       0       0       0       0
       0       0       0       0       0       0       0       0       0       0
       0       0       0       0       0       0       0       0       0       0
       0       0       0       0       0       0       0       0       0       0
       0       0       0       0       0       0       0       0       0       0
       0       0       0       0       0       0       0       0       0       0
       0       0       0       0       0       0       0       0       0       0
       0       0       0       0       0       0       0       0       0       0
       0       0       0       0       0       0       0       0       0       0
       0       0       0       0       0       0       0       0       0       0
       0       0       0       0       0       0       0       0       0       0
       0       0       0       0       0       0       0       0       0       0
       0       0       0       0       0       0       0       0       0       0
       0       0       0       0       0       0       0       0       0       0
       0       0       0       0       0       0       0       0       0       0
       0       0       0       0       0       0       0       0       0       0
       0       0       0       0       0       0       0       0       0       0
       0       0       0       0       0       0       0       0       0       0
       0       0       0       0       0       0       0       0       0       0
       0       0       0       0       0       0       0       0       0       0
       0       0       0       0       0       0       0       0       0       0
       0       0       0       0       0       0       0       0       0       0
       0       0       0       0       0       0       0       0       0       0
       0       0       0       0       0       0       0       0       0       0
       0       0       0       0       0       0       0       0       0       0
       0       0       0       0       0       0       0       0       0       0
       0       0       0       0       0       0       0       0       0       0
       0       0       0       0       0       0       0       0       0       0
       0       0       0       0       0       0       0       0       0       0
       0       0       0       0       0       0       0       0       0       0
       0       0       0       0       0       0       0       0       0       0
       0       0       0       0       0       0       0       0       0       0
       0       0       0       0       0       0       0       0       0       0
       0       0       0       0       0       0       0       0       0       0
       0       0       0       0       0       0       0       0       0       0
       0       0       0       0       0       0       0       0       0       0
       0       0       0       0       0       0       0       0       0       0
       0       0       0       0       0       0       0       0       0       0
       0       0       0       0       0       0       0       0       0       0
       0       0       0       0       0       0       0       0       0       0
       0       0       0       0       0       0       0       0       0       0
       0       0       0       0       0       0       0       0       0       0
       0       0       0       0       0       0       0       0       0       0
       0       0       0       0       0       0       0       0       0       0
       0       0       0       0       0       0       0       0       0       0
       0       0       0       0       0       0       0       0       0       0
       0       0       0       0       0       0       0       0       0       0
       0       0       0       0       0       0       0       0       0       0
       0       0       0       0       0       0       0       0       0       0
       0       0       0       0       0       0       0       0       0       0
       0       0       0       0       0       0       0       0       0       0
       0       0       0       0       0       0       0       0       0       0
       0       0       0       0       0       0       0       0       0       0
       0       0       0       0       0       0       0       0       0       0
       0       0       0       0       0       0       0       0       0       0
       0       0       0       0       0       0       0       0       0       0
       0       0       0       0       0       0       0       0       0       0
       0       0       0       0       0       0       0       0       0       0
       0       0       0       0       0       0       0       0       0       0
       0       0       0       0       0       0       0       0       0       0
       0       0       0       0       0       0       0       0       0       0
       0       0       0       0       0       0       0       0       0       0
       0       0       0       0       0       0       0       0       0       0
       0       0       0       0       0       0       0       0       0       0
       0       0       0       0       0       0       0       0       0       0
       0       0       0       0       0       0       0       0       0       0
       0       0       0       0       0       0       0       0       0       0
       0       0       0       0       0       0       0       0       0       0
       0       0       0       0       0       0       0       0       0       0
       0       0       0       0       0       0       0       0       0       0
       0       0       0       0       0       0       0       0       0       0
       0       0       0       0       0       0       0       0       0       0
       0       0       0       0       0       0       0       0       0       0
       0       0       0       0       0       0       0       0       0       0
       0       0       0       0       0       0       0       0       0       0
       0       0       0       0       0       0       0       0       0       0
       0       0       0       0       0       0       0       0       0       0
       0       0       0       0       0       0       0       0       0       0
       0       0       0       0       0       0       0       0       0       0
       0       0       0       0       0       0       0       0       0       0
       0       0       0       0       0       0       0       0       0       0
       0       0       0       0       0       0       0       0       0       0
       0       0       0       0       0       0       0       0       0       0
       0       0       0       0       0       0       0       0       0       0
       0       0       0       0       0       0       0       0       0       0
       0       0       0       0       0       0       0       0       0       0
       0       0       0       0       0       0       0       0       0       0
       0       0       0       0       0       0       0       0       0       0
       0       0       0       0       0       0       0       0       0       0
       0       0       0       0       0       0       0       0       0       0
       0       0       0       0       0       0       0       0       0       0
       0       0       0       0       0       0       0       0       0       0
       0       0       0       0       0       0       0       0       0       0
       0       0       0       0       0       0       0       0       0       0
       0       0       0       0       0       0       0       0       0       0
       0       0       0       0       0       0       0       0       0       0
       0       0       0       0       0       0       0       0       0       0
       0       0       0       0       0       0       0       0       0       0
       0       0       0       0       0       0       0       0       0       0
       0       0       0       0       0       0       0       0       0       0
       0       0       0       0       0       0       0       0       0       0
       0       0       0       0       0       0       0       0       0       0
       0       0       0       0       0       0       0       0       0       0
       0       0       0       0       0       0       0       0       0       0
       0       0       0       0       0       0       0       0       0       0
       0       0       0       0       0       0       0       0       0       0
       0       0       0       0       0       0       0       0       0       0
       0       0       0       0       0       0       0       0       0       0
       0       0       0       0       0       0       0       0       0       0
       0       0       0       0       0       0       0       0       0       0
       0       0       0       0       0       0       0       0       0       0
       0       0       0       0       0       0       0       0       0       0
       0       0       0       0       0       0       0       0       0       0
       0       0       0       0       0       0       0       0       0       0
       0       0       0       0       0       0       0       0       0       0
       0       0       0       0       0       0       0       0       0       0
       0       0       0       0       0       0       0       0       0       0
       0       0       0       0       0       0       0       0       0       0
       0       0       0       0       0       0       0       0       0       0
       0       0       0       0       0       0       0       0       0       0
       0       0       0       0       0       0       0       0       0       0
       0       0       0       0       0       0       0       0       0       0
       0       0       0       0       0       0       0       0       0       0
       0       0       0       0       0       0       0       0       0       0
       0       0       0       0       0       0       0       0       0       0
       0       0       0       0       0       0       0       0       0       0
       0       0       0       0       0       0       0       0       0       0
       0       0       0       0       0       0       0       0       0       0
       0       0       0       0       0       0       0       0       0       0
       0       0       0       0       0       0       0       0       0       0
       0       0       0       0       0       0       0       0       0       0
       0       0       0       0       0       0       0       0       0       0
       0       0       0       0       0       0       0       0       0       0
       0       0       0       0       0       0       0       0       0       0
       0       0       0       0       0       0       0       0       0       0
       0       0       0       0       0       0       0       0       0       0
       0       0       0       0       0       0       0       0       0       0
       0       0       0       0       0       0       0       0       0       0
       0       0       0       0       0       0       0       0       0       0
       0       0       0       0       0       0       0       0       0       0
       0       0       0       0       0       0       0       0       0       0
       0       0       0       0       0       0       0       0       0       0
       0       0       0       0       0       0       0       0       0       0
       0       0       0       0       0       0       0       0       0       0
       0       0       0       0       0       0       0       0       0       0
       0       0       0       0       0       0       0       0       0       0
       0       0       0       0       0       0       0       0       0       0
       0       0       0       0       0       0       0       0       0       0
       0       0       0       0       0       0       0       0       0       0
       0       0       0       0       0       0       0       0       0       0
       0       0       0       0       0       0       0       0       0       0
       0       0       0       0       0       0       0       0       0       0
       0       0       0       0       0       0       0       0       0       0
       0       0       0       0       0       0       0       0       0       0
       0       0       0       0       0       0       0       0       0       0
       0       0       0       0       0       0       0       0       0       0
       0       0       0       0       0       0       0       0       0       0
       0       0       0       0       0       0       0       0       0       0
       0       0       0       0       0       0       0       0       0       0
       0       0       0       0       0       0       0       0       0       0
       0       0       0       0       0       0       0       0       0       0
       0       0       0       0       0       0       0       0       0       0
       0       0       0       0       0       0       0       0       0       0
       0       0       0       0       0       0       0       0       0       0
       0       0       0       0       0       0       0       0       0       0
       0       0       0       0       0       0       0       0       0       0
       0       0       0       0       0       0       0       0       0       0
       0       0       0       0       0       0       0       0       0       0
       0       0       0       0       0       0       0       0       0       0
       0       0       0       0       0       0       0       0       0       0
       0       0       0       0       0       0       0       0       0       0
       0       0       0       0       0       0       0       0       0       0
       0       0       0       0       0       0       0       0       0       0
       0       0       0       0       0       0       0       0       0       0
       0       0       0       0       0       0       0       0       0       0
       0       0       0       0       0       0       0       0       0       0
       0       0       0       0       0       0       0       0       0       0
       0       0       0       0       0       0       0       0       0       0
       0       0       0       0       0       0       0       0       0       0
       0       0       0       0       0       0       0       0       0       0
       0       0       0       0       0       0       0       0       0       0
       0       0       0       0       0       0       0       0       0       0
       0       0       0       0       0       0       0       0       0       0
       0       0       0       0       0       0       0       0       0       0
       0       0       0       0       0       0       0       0       0       0
       0       0       0       0       0       0       0       0       0       0
       0       0       0       0       0       0       0       0       0       0
       0       0       0       0       0       0       0       0       0       0
       0       0       0       0       0       0       0       0       0       0
       0       0       0       0       0       0       0       0       0       0
       0       0       0       0       0       0       0       0       0       0
       0       0       0       0       0       0       0       0       0       0
       0       0       0       0       0       0       0       0       0       0
       0       0       0       0       0       0       0       0       0       0
       0       0       0       0       0       0       0       0       0       0
       0       0       0       0       0       0       0       0       0       0
       0       0       0       0       0       0       0       0       0       0
       0       0       0       0       0       0       0       0       0       0
       0       0       0       0       0       0       0       0       0       0
       0       0       0       0       0       0       0       0       0       0
       0       0       0       0       0       0       0       0       0       0
       0       0       0       0       0       0       0       0       0       0
       0       0       0       0       0       0       0       0       0       0
       0       0       0       0       0       0       0       0       0       0
       0       0       0       0       0       0       0       0       0       0
       0       0       0       0       0       0       0       0       0       0
       0       0       0       0       0       0       0       0       0       0
       0       0       0       0       0       0       0       0       0       0
       0       0       0       0       0       0       0       0       0       0
       0       0       0       0       0       0       0       0       0       0
       0       0       0       0       0       0       0       0       0       0
       0       0       0       0       0       0       0       0       0       0
       0       0       0       0       0       0       0       0       0       0
       0       0       0       0       0       0       0       0       0       0
       0       0       0       0       0       0       0       0       0       0
       0       0       0       0       0       0       0       0       0       0
       0       0       0       0       0       0       0       0       0       0
       0       0       0       0       0       0       0       0       0       0
       0       0       0       0       0       0       0       0       0       0
       0       0       0       0       0       0       0       0       0       0
       0       0       0       0       0       0       0       0       0       0
       0       0       0       0       0       0       0       0       0       0
       0       0       0       0       0       0       0       0       0       0
       0       0       0       0       0       0       0       0       0       0
       0       0       0       0       0       0       0       0       0       0
       0       0       0       0       0       0       0       0       0       0
       0       0       0       0       0       0       0       0       0       0
       0       0       0       0       0       0       0       0       0       0
       0       0       0       0       0       0       0       0       0       0
       0       0       0       0       0       0       0       0       0       0
       0       0       0       0       0       0       0       0       0       0
       0       0       0       0       0       0       0       0       0       0
       0       0       0       0       0       0       0       0       0       0
       0       0       0       0       0       0       0       0       0       0
       0       0       0       0       0       0       0       0       0       0
       0       0       0       0       0       0       0       0       0       0
       0       0       0       0       0       0       0       0       0       0
       0       0       0       0       0       0       0       0       0       0
       0       0       0       0       0       0       0       0       0       0
       0       0       0       0       0       0       0       0       0       0
       0       0       0       0       0       0       0       0       0       0
       0       0       0       0       0       0       0       0       0       0
       0       0       0       0       0       0       0       0       0       0
       0       0       0       0       0       0       0       0       0       0
       0       0       0       0       0       0       0       0       0       0
       0       0       0       0       0       0       0       0       0       0
       0       0       0       0       0       0       0       0       0       0
       0       0       0       0       0       0       0       0       0       0
       0       0       0       0       0       0       0       0       0       0
       0       0       0       0       0       0       0       0       0       0
       0       0       0       0       0       0       0       0       0       0
       0       0       0       0       0       0       0       0       0       0
       0       0       0       0       0       0       0       0       0       0
       0       0       0       0       0       0       0       0       0       0
       0       0       0       0       0       0       0       0       0       0
       0       0       0       0       0       0       0       0       0       0
       0       0       0       0       0       0       0       0       0       0
       0       0       0       0       0       0       0       0       0       0
       0       0       0       0       0       0       0       0       0       0
       0       0       0       0       0       0       0       0       0       0
       0       0       0       0       0       0       0       0       0       0
       0       0       0       0       0       0       0       0       0       0
       0       0       0       0       0       0       0       0       0       0
       0       0       0       0       0       0       0       0       0       0
       0       0       0       0       0       0       0       0       0       0
       0       0       0       0       0       0       0       0       0       0
       0       0       0       0       0       0       0       0       0       0
       0       0       0       0       0       0       0       0       0       0
       0       0       0       0       0       0       0       0       0       0
       0       0       0       0       0       0       0       0       0       0
       0       0       0       0       0       0       0       0       0       0
       0       0       0       0       0       0       0       0       0       0
       0       0       0       0       0       0       0       0       0       0
       0       0       0       0       0       0       0       0       0       0
       0       0       0       0       0       0       0       0       0       0
       0       0       0       0       0       0       0       0       0       0
       0       0       0       0       0       0       0       0       0       0
       0       0       0       0       0       0       0       0       0       0
       0       0       0       0       0       0       0       0       0       0
       0       0       0       0       0       0       0       0       0       0
       0       0       0       0       0       0       0       0       0       0
       0       0       0       0       0       0       0       0       0       0
       0       0       0       0       0       0       0       0       0       0
       0       0       0       0       0       0       0       0       0       0
       0       0       0       0       0       0       0       0       0       0
       0       0       0       0       0       0       0       0       0       0
       0       0       0       0       0       0       0       0       0       0
       0       0       0       0       0       0       0       0       0       0
       0       0       0       0       0       0       0       0       0       0
       0       0       0       0       0       0       0       0       0       0
       0       0       0       0       0       0       0       0       0       0
       0       0       0       0       0       0       0       0       0       0
       0       0       0       0       0       0       0       0       0       0
       0       0       0       0       0       0       0       0       0       0
       0       0       0       0       0       0       0       0       0       0
       0       0       0       0       0       0       0       0       0       0
       0       0       0       0       0       0       0       0       0       0
       0       0       0       0       0       0       0       0       0       0
       0       0       0       0       0       0       0       0       0       0
       0       0       0       0       0       0       0       0       0       0
       0       0       0       0       0       0       0       0       0       0
       0       0       0       0       0       0       0       0       0       0
       0       0       0       0       0       0       0       0       0       0
       0       0       0       0       0       0       0       0       0       0
       0       0       0       0       0       0       0       0       0       0
       0       0       0       0       0       0       0       0       0       0
       0       0       0       0       0       0       0       0       0       0
       0       0       0       0       0       0       0       0       0       0
       0       0       0       0       0       0       0       0       0       0
       0       0       0       0       0       0       0       0       0       0
       0       0       0       0       0       0       0       0       0       0
       0       0       0       0       0       0       0       0       0       0
       0       0       0       0       0       0       0       0       0       0
       0       0       0       0       0       0       0       0       0       0
       0       0       0       0       0       0       0       0       0       0
       0       0       0       0       0       0       0       0       0       0
       0       0       0       0       0       0       0       0       0       0
       0       0       0       0       0       0       0       0       0       0
       0       0       0       0       0       0       0       0       0       0
       0       0       0       0       0       0       0       0       0       0
       0       0       0       0       0       0       0       0       0       0
       0       0       0       0       0       0       0       0       0       0
       0       0       0       0       0       0       0       0       0       0
       0       0       0       0       0       0       0       0       0       0
       0       0       0       0       0       0       0       0       0       0
       0       0       0       0       0       0       0       0       0       0
       0       0       0       0       0       0       0       0       0       0
       0       0       0       0       0       0       0       0       0       0
       0       0       0       0       0       0       0       0       0       0
       0       0       0       0       0       0       0       0       0       0
       0       0       0       0       0       0       0       0       0       0
       0       0       0       0       0       0       0       0       0       0
       0       0       0       0       0       0       0       0       0       0
       0       0       0       0       0       0       0       0       0       0
       0       0       0       0       0       0       0       0       0       0
       0       0       0       0       0       0       0       0       0       0
       0       0       0       0       0       0       0       0       0       0
       0       0       0       0       0       0       0       0       0       0
       0       0       0       0       0       0       0       0       0       0
       0       0       0       0       0       0       0       0       0       0
       0       0       0       0       0       0       0       0       0       0
       0       0       0       0       0       0       0       0       0       0
       0       0       0       0       0       0       0       0       0       0
       0       0       0       0       0       0       0       0       0       0
       0       0       0       0       0       0       0       0       0       0
       0       0       0       0       0       0       0       0       0       0
       0       0       0       0       0       0       0       0       0       0
       0       0       0       0       0       0       0       0       0       0
       0       0       0       0       0       0       0       0       0       0
       0       0       0       0       0       0       0       0       0       0
       0       0       0       0       0       0       0       0       0       0
       0       0       0       0       0       0       0       0       0       0
       0       0       0       0       0       0       0       0       0       0
       0       0       0       0       0       0       0       0       0       0
       0       0       0       0       0       0       0       0       0       0
       0       0       0       0       0       0       0       0       0       0
       0       0       0       0       0       0       0       0       0       0
       0       0       0       0       0       0       0       0       0       0
       0       0       0       0       0       0       0       0       0       0
       0       0       0       0       0       0       0       0       0       0
       0       0       0       0       0       0       0       0       0       0
       0       0       0       0       0       0       0       0       0       0
       0       0       0       0       0       0       0       0       0       0
       0       0       0       0       0       0       0       0       0       0
       0       0       0       0       0       0       0       0       0       0
       0       0       0       0       0       0       0       0       0       0
       0       0       0       0       0       0       0       0       0       0
       0       0       0       0       0       0       0       0       0       0
       0       0       0       0       0       0       0       0       0       0
       0       0       0       0       0       0       0       0       0       0
       0       0       0       0       0       0       0       0       0       0
       0       0       0       0       0       0       0       0       0       0
       0       0       0       0       0       0       0       0       0       0
       0       0       0       0       0       0       0       0       0       0
       0       0       0       0       0       0       0       0       0       0
       0       0       0       0       0       0       0       0       0       0
       0       0       0       0       0       0       0       0       0       0
       0       0       0       0       0       0       0       0       0       0
       0       0       0       0       0       0       0       0       0       0
       0       0       0       0       0       0       0       0       0       0
       0       0       0       0       0       0       0       0       0       0
       0       0       0       0       0       0       0       0       0       0
       0       0       0       0       0       0       0       0       0       0
       0       0       0       0       0       0       0       0       0       0
       0       0       0       0       0       0       0       0       0       0
       0       0       0       0       0       0       0       0       0       0
       0       0       0       0       0       0       0       0       0       0
       0       0       0       0       0       0       0       0       0       0
       0       0       0       0       0       0       0       0       0       0
       0       0       0       0       0       0       0       0       0       0
       0       0       0       0       0       0       0       0       0       0
       0       0       0       0       0       0       0       0       0       0
       0       0       0       0       0       0       0       0       0       0
       0       0       0       0       0       0       0       0       0       0
       0       0       0       0       0       0       0       0       0       0
       0       0       0       0       0       0       0       0       0       0
       0       0       0       0       0       0       0       0       0       0
       0       0       0       0       0       0       0       0       0       0
       0       0       0       0       0       0       0       0       0       0
       0       0       0       0       0       0       0       0       0       0
       0       0       0       0       0       0       0       0       0       0
       0       0       0       0       0       0       0       0       0       0
       0       0       0       0       0       0       0       0       0       0
       0       0       0       0       0       0       0       0       0       0
       0       0       0       0       0       0       0       0       0       0
       0       0       0       0       0       0       0       0       0       0
       0       0       0       0       0       0       0       0       0       0
       0       0       0       0       0       0       0       0       0       0
       0       0       0       0       0       0       0       0       0       0
       0       0       0       0       0       0       0       0       0       0
       0       0       0       0       0       0       0       0       0       0
       0       0       0       0       0       0       0       0       0       0
       0       0       0       0       0       0       0       0       0       0
       0       0       0       0       0       0       0       0       0       0
       0       0       0       0       0       0       0       0       0       0
       0       0       0       0       0       0       0       0       0       0
       0       0       0       0       0       0       0       0       0       0
       0       0       0       0       0       0       0       0       0       0
       0       0       0       0       0       0       0       0       0       0
       0       0       0       0       0       0       0       0       0       0
       0       0       0       0       0       0       0       0       0       0
       0       0       0       0       0       0       0       0       0       0
       0       0       0       0       0       0       0       0       0       0
       0       0       0       0       0       0       0       0       0       0
       0       0       0       0       0       0       0       0       0       0
       0       0       0       0       0       0       0       0       0       0
       0       0       0       0       0       0       0       0       0       0
       0       0       0       0       0       0       0       0       0       0
       0       0       0       0       0       0       0       0       0       0
       0       0       0       0       0       0       0       0       0       0
       0       0       0       0       0       0       0       0       0       0
       0       0       0       0       0       0       0       0       0       0
       0       0       0       0       0       0       0       0       0       0
       0       0       0       0       0       0       0       0       0       0
       0       0       0       0       0       0       0       0       0       0
       0       0       0       0       0       0       0       0       0       0
       0       0       0       0       0       0       0       0       0       0
       0       0       0       0       0       0       0       0       0       0
       0       0       0       0       0       0       0       0       0       0
       0       0       0       0       0       0       0       0       0       0
       0       0       0       0       0       0       0       0       0       0
       0       0       0       0       0       0       0       0       0       0
       0       0       0       0       0       0       0       0       0       0
       0       0       0       0       0       0       0       0       0       0
       0       0       0       0       0       0       0       0       0       0
       0       0       0       0       0       0       0       0       0       0
       0       0       0       0       0       0       0       0       0       0
       0       0       0       0       0       0       0       0       0       0
       0       0       0       0       0       0       0       0       0       0
       0       0       0       0       0       0       0       0       0       0
       0       0       0       0       0       0       0       0       0       0
       0       0       0       0       0       0       0       0       0       0
       0       0       0       0       0       0       0       0       0       0
       0       0       0       0       0       0       0       0       0       0
       0       0       0       0       0       0       0       0       0       0
       0       0       0       0       0       0       0       0       0       0
       0       0       0       0       0       0       0       0       0       0
       0       0       0       0       0       0       0       0       0       0
       0       0       0       0       0       0       0       0       0       0
       0       0       0       0       0       0       0       0       0       0
       0       0       0       0       0       0       0       0       0       0
       0       0       0       0       0       0       0       0       0       0
       0       0       0       0       0       0       0       0       0       0
       0       0       0       0       0       0       0       0       0       0
       0       0       0       0       0       0       0       0       0       0
       0       0       0       0       0       0       0       0       0       0
       0       0       0       0       0       0       0       0       0       0
       0       0       0       0       0       0       0       0       0       0
       0       0       0       0       0       0       0       0       0       0
       0       0       0       0       0       0       0       0       0       0
       0       0       0       0       0       0       0       0       0       0
       0       0       0       0       0       0       0       0       0       0
       0       0       0       0       0       0       0       0       0       0
       0       0       0       0       0       0       0       0       0       0
       0       0       0       0       0       0       0       0       0       0
       0       0       0       0       0       0       0       0       0       0
       0       0       0       0       0       0       0       0       0       0
       0       0       0       0       0       0       0       0       0       0
       0       0       0       0       0       0       0       0       0       0
       0       0       0       0       0       0       0       0       0       0
       0       0       0       0       0       0       0       0       0       0
       0       0       0       0       0       0       0       0       0       0
       0       0       0       0       0       0       0       0       0       0
       0       0       0       0       0       0       0       0       0       0
       0       0       0       0       0       0       0       0       0       0
       0       0       0       0       0       0       0       0       0       0
       0       0       0       0       0       0       0       0       0       0
       0       0       0       0       0       0       0       0       0       0
       0       0       0       0       0       0       0       0       0       0
       0       0       0       0       0       0       0       0       0       0
       0       0       0       0       0       0       0       0       0       0
       0       0       0       0       0       0       0       0       0       0
       0       0       0       0       0       0       0       0       0       0
       0       0       0       0       0       0       0       0       0       0
       0       0       0       0       0       0       0       0       0       0
       0       0       0       0       0       0       0       0       0       0
       0       0       0       0       0       0       0       0       0       0
       0       0       0       0       0       0       0       0       0       0
       0       0       0       0       0       0       0       0       0       0
       0       0       0       0       0       0       0       0       0       0
       0       0       0       0       0       0       0       0       0       0
       0       0       0       0       0       0       0       0       0       0
       0       0       0       0       0       0       0       0       0       0
       0       0       0       0       0       0       0       0       0       0
       0       0       0       0       0       0       0       0       0       0
       0       0       0       0       0       0       0       0       0       0
       0       0       0       0       0       0       0       0       0       0
       0       0       0       0       0       0       0       0       0       0
       0       0       0       0       0       0       0       0       0       0
       0       0       0       0       0       0       0       0       0       0
       0       0       0       0       0       0       0       0       0       0
       0       0       0       0       0       0       0       0       0       0
       0       0       0       0       0       0       0       0       0       0
       0       0       0       0       0       0       0       0       0       0
       0       0       0       0       0       0       0       0       0       0
       0       0       0       0       0       0       0       0       0       0
       0       0       0       0       0       0       0       0       0       0
       0       0       0       0       0       0       0       0       0       0
       0       0       0       0       0       0       0       0       0       0
       0       0       0       0       0       0       0       0       0       0
       0       0       0       0       0       0       0       0       0       0
       0       0       0       0       0       0       0       0       0       0
       0       0       0       0       0       0       0       0       0       0
       0       0       0       0       0       0       0       0       0       0
       0       0       0       0       0       0       0       0       0       0
       0       0       0       0       0       0       0       0       0       0
       0       0       0       0       0       0       0       0       0       0
       0       0       0       0       0       0       0       0       0       0
       0       0       0       0       0       0       0       0       0       0
       0       0       0       0       0       0       0       0       0       0
       0       0       0       0       0       0       0       0       0       0
       0       0       0       0       0       0       0       0       0       0
       0       0       0       0       0       0       0       0       0       0
       0       0       0       0       0       0       0       0       0       0
       0       0       0       0       0       0       0       0       0       0
       0       0       0       0       0       0       0       0       0       0
       0       0       0       0       0       0       0       0       0       0
       0       0       0       0       0       0       0       0       0       0
       0       0       0       0       0       0       0       0       0       0
       0       0       0       0       0       0       0       0       0       0
       0       0       0       0       0       0       0       0       0       0
       0       0       0       0       0       0       0       0       0       0
       0       0       0       0       0       0       0       0       0       0
       0       0       0       0       0       0       0       0       0       0
       0       0       0       0       0       0       0       0       0       0
       0       0       0       0       0       0       0       0       0       0
       0       0       0       0       0       0       0       0       0       0
       0       0       0       0       0       0       0       0       0       0
       0       0       0       0       0       0       0       0       0       0
       0       0       0       0       0       0       0       0       0       0
       0       0       0       0       0       0       0       0       0       0
       0       0       0       0       0       0       0       0       0       0
       0       0       0       0       0       0       0       0       0       0
       0       0       0       0       0       0       0       0       0       0
       0       0       0       0       0       0       0       0       0       0
       0       0       0       0       0       0       0       0       0       0
       0       0       0       0       0       0       0       0       0       0
       0       0       0       0       0       0       0       0       0       0
       0       0       0       0       0       0       0       0       0       0
       0       0       0       0       0       0       0       0       0       0
       0       0       0       0       0       0       0       0       0       0
       0       0       0       0       0       0       0       0       0       0
       0       0       0       0       0       0       0       0       0       0
       0       0       0       0       0       0       0       0       0       0
       0       0       0       0       0       0       0       0       0       0
       0       0       0       0       0       0       0       0       0       0
       0       0       0       0       0       0       0       0       0       0
       0       0       0       0       0       0       0       0       0       0
       0       0       0       0       0       0       0       0       0       0
       0       0       0       0       0       0       0       0       0       0
       0       0       0       0       0       0       0       0       0       0
       0       0       0       0       0       0       0       0       0       0
       0       0       0       0       0       0       0       0       0       0
       0       0       0       0       0       0       0       0       0       0
       0       0       0       0       0       0       0       0       0       0
       0       0       0       0       0       0       0       0       0       0
       0       0       0       0       0       0       0       0       0       0
       0       0       0       0       0       0       0       0       0       0
       0       0       0       0       0       0       0       0       0       0
       0       0       0       0       0       0       0       0       0       0
       0       0       0       0       0       0       0       0       0       0
       0       0       0       0       0       0       0       0       0       0
       0       0       0       0       0       0       0       0       0       0
       0       0       0       0       0       0       0       0       0       0
       0       0       0       0       0       0       0       0       0       0
       0       0       0       0       0       0       0       0       0       0
       0       0       0       0       0       0       0       0       0       0
       0       0       0       0       0       0       0       0       0       0
       0       0       0       0       0       0       0       0       0       0
       0       0       0       0       0       0       0       0       0       0
       0       0       0       0       0       0       0       0       0       0
       0       0       0       0       0       0       0       0       0       0
       0       0       0       0       0       0       0       0       0       0
       0       0       0       0       0       0       0       0       0       0
       0       0       0       0       0       0       0       0       0       0
       0       0       0       0       0       0       0       0       0       0
       0       0       0       0       0       0       0       0       0       0
       0       0       0       0       0       0       0       0       0       0
       0       0       0       0       0       0       0       0       0       0
       0       0       0       0       0       0       0       0       0       0
       0       0       0       0       0       0       0       0       0       0
       0       0       0       0       0       0       0       0       0       0
       0       0       0       0       0       0       0       0       0       0
       0       0       0       0       0       0       0       0       0       0
       0       0       0       0       0       0       0       0       0       0
       0       0       0       0       0       0       0       0       0       0
       0       0       0       0       0       0       0       0       0       0
       0       0       0       0       0       0       0       0       0       0
       0       0       0       0       0       0       0       0       0       0
       0       0       0       0       0       0       0       0       0       0
       0       0       0       0       0       0       0       0       0       0
       0       0       0       0       0       0       0       0       0       0
       0       0       0       0       0       0       0       0       0       0
       0       0       0       0       0       0       0       0       0       0
       0       0       0       0       0       0       0       0       0       0
       0       0       0       0       0       0       0       0       0       0
       0       0       0       0       0       0       0       0       0       0
       0       0       0       0       0       0       0       0       0       0
       0       0       0       0       0       0       0       0       0       0
       0       0       0       0       0       0       0       0       0       0
       0       0       0       0       0       0       0       0       0       0
       0       0       0       0       0       0       0       0       0       0
       0       0       0       0       0       0       0       0       0       0
       0       0       0       0       0       0       0       0       0       0
       0       0       0       0       0       0       0       0       0       0
       0       0       0       0       0       0       0       0       0       0
       0       0       0       0       0       0       0       0       0       0
       0       0       0       0       0       0       0       0       0       0
       0       0       0       0       0       0       0       0       0       0
       0       0       0       0       0       0       0       0       0       0
       0       0       0       0       0       0       0       0       0       0
       0       0       0       0       0       0       0       0       0       0
       0       0       0       0       0       0       0       0       0       0
       0       0       0       0       0       0       0       0       0       0
       0       0       0       0       0       0       0       0       0       0
       0       0       0       0       0       0       0       0       0       0
       0       0       0       0       0       0       0       0       0       0
       0       0       0       0       0       0       0       0       0       0
       0       0       0       0       0       0       0       0       0       0
       0       0       0       0       0       0       0       0       0       0
       0       0       0       0       0       0       0       0       0       0
       0       0       0       0       0       0       0       0       0       0
       0       0       0       0       0       0       0       0       0       0
       0       0       0       0       0       0       0       0       0       0
       0       0       0       0       0       0       0       0       0       0
       0       0       0       0       0       0       0       0       0       0
       0       0       0       0       0       0       0       0       0       0
       0       0       0       0       0       0       0       0       0       0
       0       0       0       0       0       0       0       0       0       0
       0       0       0       0       0       0       0       0       0       0
       0       0       0       0       0       0       0       0       0       0
       0       0       0       0       0       0       0       0       0       0
       0       0       0       0       0       0       0       0       0       0
       0       0       0       0       0       0       0       0       0       0
       0       0       0       0       0       0       0       0       0       0
       0       0       0       0       0       0       0       0       0       0
       0       0       0       0       0       0       0       0       0       0
       0       0       0       0       0       0       0       0       0       0
       0       0       0       0       0       0       0       0       0       0
       0       0       0       0       0       0       0       0       0       0
       0       0       0       0       0       0       0       0       0       0
       0       0       0       0       0       0       0       0       0       0
       0       0       0       0       0       0       0       0       0       0
       0       0       0       0       0       0       0       0       0       0
       0       0       0       0       0       0       0       0       0       0
       0       0       0       0       0       0       0       0       0       0
       0       0       0       0       0       0       0       0       0       0
       0       0       0       0       0       0       0       0       0       0
       0       0       0       0       0       0       0       0       0       0
       0       0       0       0       0       0       0       0       0       0
       0       0       0       0       0       0       0       0       0       0
       0       0       0       0       0       0       0       0       0       0
       0       0       0       0       0       0       0       0       0       0
       0       0       0       0       0       0       0       0       0       0
       0       0       0       0       0       0       0       0       0       0
       0       0       0       0       0       0       0       0       0       0
       0       0       0       0       0       0       0       0       0       0
       0       0       0       0       0       0       0       0       0       0
       0       0       0       0       0       0       0       0       0       0
       0       0       0       0       0       0       0       0       0       0
       0       0       0       0       0       0       0       0       0       0
       0       0       0       0       0       0       0       0       0       0
       0       0       0       0       0       0       0       0       0       0
       0       0       0       0       0       0       0       0       0       0
       0       0       0       0       0       0       0       0       0       0
       0       0       0       0       0       0       0       0       0       0
       0       0       0       0       0       0       0       0       0       0
       0       0       0       0       0       0       0       0       0       0
       0       0       0       0       0       0       0       0       0       0
       0       0       0       0       0       0       0       0       0       0
       0       0       0       0       0       0       0       0       0       0
       0       0       0       0       0       0       0       0       0       0
       0       0       0       0       0       0       0       0       0       0
       0       0       0       0       0       0       0       0       0       0
       0       0       0       0       0       0       0       0       0       0
       0       0       0       0       0       0       0       0       0       0
       0       0       0       0       0       0       0       0       0       0
       0       0       0       0       0       0       0       0       0       0
       0       0       0       0       0       0       0       0       0       0
       0       0       0       0       0       0       0       0       0       0
       0       0       0       0       0       0       0       0       0       0
       0       0       0       0       0       0       0       0       0       0
       0       0       0       0       0       0       0       0       0       0
       0       0       0       0       0       0       0       0       0       0
       0       0       0       0       0       0       0       0       0       0
       0       0       0       0       0       0       0       0       0       0
       0       0       0       0       0       0       0       0       0       0
       0       0       0       0       0       0       0       0       0       0
       0       0       0       0       0       0       0       0       0       0
       0       0       0       0       0       0       0       0       0       0
       0       0       0       0       0       0       0       0       0       0
       0       0       0       0       0       0       0       0       0       0
       0       0       0       0       0       0       0       0       0       0
       0       0       0       0       0       0       0       0       0       0
       0       0       0       0       0       0       0       0       0       0
       0       0       0       0       0       0       0       0       0       0
       0       0       0       0       0       0       0       0       0       0
       0       0       0       0       0       0       0       0       0       0
       0       0       0       0       0       0       0       0       0       0
       0       0       0       0       0       0       0       0       0       0
       0       0       0       0       0       0       0       0       0       0
       0       0       0       0       0       0       0       0       0       0
       0       0       0       0       0       0       0       0       0       0
       0       0       0       0       0       0       0       0       0       0
       0       0       0       0       0       0       0       0       0       0
       0       0       0       0       0       0       0       0       0       0
       0       0       0       0       0       0       0       0       0       0
       0       0       0       0       0       0       0       0       0       0
       0       0       0       0       0       0       0       0       0       0
       0       0       0       0       0       0       0       0       0       0
       0       0       0       0       0       0       0       0       0       0
       0       0       0       0       0       0       0       0       0       0
       0       0       0       0       0       0       0       0       0       0
       0       0       0       0       0       0       0       0       0       0
       0       0       0       0       0       0       0       0       0       0
       0       0       0       0       0       0       0       0       0       0
       0       0       0       0       0       0       0       0       0       0
       0       0       0       0       0       0       0       0       0       0
       0       0       0       0       0       0       0       0       0       0
       0       0       0       0       0       0       0       0       0       0
       0       0       0       0       0       0       0       0       0       0
       0       0       0       0       0       0       0       0       0       0
       0       0       0       0       0       0       0       0       0       0
       0       0       0       0       0       0       0       0       0       0
       0       0       0       0       0       0       0       0       0       0
       0       0       0       0       0       0       0       0       0       0
       0       0       0       0       0       0       0       0       0       0
       0       0       0       0       0       0       0       0       0       0
       0       0       0       0       0       0       0       0       0       0
       0       0       0       0       0       0       0       0       0       0
       0       0       0       0       0       0       0       0       0       0
       0       0       0       0       0       0       0       0       0       0
       0       0       0       0       0       0       0       0       0       0
       0       0       0       0       0       0       0       0       0       0
       0       0       0       0       0       0       0       0       0       0
       0       0       0       0       0       0       0       0       0       0
       0       0       0       0       0       0       0       0       0       0
       0       0       0       0       0       0       0       0       0       0
       0       0       0       0       0       0       0       0       0       0
       0       0       0       0       0       0       0       0       0       0
       0       0       0       0       0       0       0       0       0       0
       0       0       0       0       0       0       0       0       0       0
       0       0       0       0       0       0       0       0       0       0
       0       0       0       0       0       0       0       0       0       0
       0       0       0       0       0       0       0       0       0       0
       0       0       0       0       0       0       0       0       0       0
       0       0       0       0       0       0       0       0       0       0
       0       0       0       0       0       0       0       0       0       0
       0       0       0       0       0       0       0       0       0       0
       0       0       0       0       0       0       0       0       0       0
       0       0       0       0       0       0       0       0       0       0
       0       0       0       0       0       0       0       0       0       0
       0       0       0       0       0       0       0       0       0       0
       0       0       0       0       0       0       0       0       0       0
       0       0       0       0       0       0       0       0       0       0
       0       0       0       0       0       0       0       0       0       0
       0       0       0       0       0       0       0       0       0       0
       0       0       0       0       0       0       0       0       0       0
       0       0       0       0       0       0       0       0       0       0
       0       0       0       0       0       0       0       0       0       0
       0       0       0       0       0       0       0       0       0       0
       0       0       0       0       0       0       0       0       0       0
       0       0       0       0       0       0       0       0       0       0
       0       0       0       0       0       0       0       0       0       0
       0       0       0       0       0       0       0       0       0       0
       0       0       0       0       0       0       0       0       0       0
       0       0       0       0       0       0       0       0       0       0
       0       0       0       0       0       0       0       0       0       0
       0       0       0       0       0       0       0       0       0       0
       0       0       0       0       0       0       0       0       0       0
       0       0       0       0       0       0       0       0       0       0
       0       0       0       0       0       0       0       0       0       0
       0       0       0       0       0       0       0       0       0       0
       0       0       0       0       0       0       0       0       0       0
       0       0       0       0       0       0       0       0       0       0
       0       0       0       0       0       0       0       0       0       0
       0       0       0       0       0       0       0       0       0       0
       0       0       0       0       0       0       0       0       0       0
       0       0       0       0       0       0       0       0       0       0
       0       0       0       0       0       0       0       0       0       0
       0       0       0       0       0       0       0       0       0       0
       0       0       0       0       0       0       0       0       0       0
       0       0       0       0       0       0       0       0       0       0
       0       0       0       0       0       0       0       0       0       0
       0       0       0       0       0       0       0       0       0       0
       0       0       0       0       0       0       0       0       0       0
       0       0       0       0       0       0       0       0       0       0
       0       0       0       0       0       0       0       0       0       0
       0       0       0       0       0       0       0       0       0       0
       0       0       0       0       0       0       0       0       0       0
       0       0       0       0       0       0       0       0       0       0
       0       0       0       0       0       0       0       0       0       0
       0       0       0       0       0       0       0       0       0       0
       0       0       0       0       0       0       0       0       0       0
       0       0       0       0       0       0       0       0       0       0
       0       0       0       0       0       0       0       0       0       0
       0       0       0       0       0       0       0       0       0       0
       0       0       0       0       0       0       0       0       0       0
       0       0       0       0       0       0       0       0       0       0
       0       0       0       0       0       0       0       0       0       0
       0       0       0       0       0       0       0       0       0       0
       0       0       0       0       0       0       0       0       0       0
       0       0       0       0       0       0       0       0       0       0
       0       0       0       0       0       0       0       0       0       0
       0       0       0       0       0       0       0       0       0       0
       0       0       0       0       0       0       0       0       0       0
       0       0       0       0       0       0       0       0       0       0
       0       0       0       0       0       0       0       0       0       0
       0       0       0       0       0       0       0       0       0       0
       0       0       0       0       0       0       0       0       0       0
       0       0       0       0       0       0       0       0       0       0
       0       0       0       0       0       0       0       0       0       0
       0       0       0       0       0       0       0       0       0       0
       0       0       0       0       0       0       0       0       0       0
       0       0       0       0       0       0       0       0       0       0
       0       0       0       0       0       0       0       0       0       0
       0       0       0       0       0       0       0       0       0       0
       0       0       0       0       0       0       0       0       0       0
       0       0       0       0       0       0       0       0       0       0
       0       0       0       0       0       0       0       0       0       0
       0       0       0       0       0       0       0       0       0       0
       0       0       0       0       0       0       0       0       0       0
       0       0       0       0       0       0       0       0       0       0
       0       0       0       0       0       0       0       0       0       0
       0       0       0       0       0       0       0       0       0       0
       0       0       0       0       0       0       0       0       0       0
       0       0       0       0       0       0       0       0       0       0
       0       0       0       0       0       0       0       0       0       0
       0       0       0       0       0       0       0       0       0       0
       0       0       0       0       0       0       0       0       0       0
       0       0       0       0       0       0       0       0       0       0
       0       0       0       0       0       0       0       0       0       0
       0       0       0       0       0       0       0       0       0       0
       0       0       0       0       0       0       0       0       0       0
       0       0       0       0       0       0       0       0       0       0
       0       0       0       0       0       0       0       0       0       0
       0       0       0       0       0       0       0       0       0       0
       0       0       0       0       0       0       0       0       0       0
       0       0       0       0       0       0       0       0       0       0
       0       0       0       0       0       0       0       0       0       0
       0       0       0       0       0       0       0       0       0       0
       0       0       0       0       0       0       0       0       0       0
       0       0       0       0       0       0       0       0       0       0
       0       0       0       0       0       0       0       0       0       0
       0       0       0       0       0       0       0       0       0       0
       0       0       0       0       0       0       0       0       0       0
       0       0       0       0       0       0       0       0       0       0
       0       0       0       0       0       0       0       0       0       0
       0       0       0       0       0       0       0       0       0       0
       0       0       0       0       0       0       0       0       0       0
       0       0       0       0       0       0       0       0       0       0
       0       0       0       0       0       0       0       0       0       0
       0       0       0       0       0       0       0       0       0       0
       0       0       0       0       0       0       0       0       0       0
       0       0       0       0       0       0       0       0       0       0
       0       0       0       0       0       0       0       0       0       0
       0       0       0       0       0       0       0       0       0       0
       0       0       0       0       0       0       0       0       0       0
       0       0       0       0       0       0       0       0       0       0
       0       0       0       0       0       0       0       0       0       0
       0       0       0       0       0       0       0       0       0       0
       0       0       0       0       0       0       0       0       0       0
       0       0       0       0       0       0       0       0       0       0
       0       0       0       0       0       0       0       0       0       0
       0       0       0       0       0       0       0       0       0       0
       0       0       0       0       0       0       0       0       0       0
       0       0       0       0       0       0       0       0       0       0
       0       0       0       0       0       0       0       0       0       0
       0       0       0       0       0       0       0       0       0       0
       0       0       0       0       0       0       0       0       0       0
       0       0       0       0       0       0       0       0       0       0
       0       0       0       0       0       0       0       0       0       0
       0       0       0       0       0       0       0       0       0       0
       0       0       0       0       0       0       0       0       0       0
       0       0       0       0       0       0       0       0       0       0
       0       0       0       0       0       0       0       0       0       0
       0       0       0       0       0       0       0       0       0       0
       0       0       0       0       0       0       0       0       0       0
       0       0       0       0       0       0       0       0       0       0
       0       0       0       0       0       0       0       0       0       0
       0       0       0       0       0       0       0       0       0       0
       0       0       0       0       0       0       0       0       0       0
       0       0       0       0       0       0       0       0       0       0
       0       0       0       0       0       0       0       0       0       0
       0       0       0       0       0       0       0       0       0       0
       0       0       0       0       0       0       0       0       0       0
       0       0       0       0       0       0       0       0       0       0
       0       0       0       0       0       0       0       0       0       0
       0       0       0       0       0       0       0       0       0       0
       0       0       0       0       0       0       0       0       0       0
       0       0       0       0       0       0       0       0       0       0
       0       0       0       0       0       0       0       0       0       0
       0       0       0       0       0       0       0       0       0       0
       0       0       0       0       0       0       0       0       0       0
       0       0       0       0       0       0       0       0       0       0
       0       0       0       0       0       0       0       0       0       0
       0       0       0       0       0       0       0       0       0       0
       0       0       0       0       0       0       0       0       0       0
       0       0       0       0       0       0       0       0       0       0
       0       0       0       0       0       0       0       0       0       0
       0       0       0       0       0       0       0       0       0       0
       0       0       0       0       0       0       0       0       0       0
       0       0       0       0       0       0       0       0       0       0
       0       0       0       0       0       0       0       0       0       0
       0       0       0       0       0       0       0       0       0       0
       0       0       0       0       0       0       0       0       0       0
       0       0       0       0       0       0       0       0       0       0
       0       0       0       0       0       0       0       0       0       0
       0       0       0       0       0       0       0       0       0       0
       0       0       0       0       0       0       0       0       0       0
       0       0       0       0       0       0       0       0       0       0
       0       0       0       0       0       0       0       0       0       0
       0       0       0       0       0       0       0       0       0       0
       0       0       0       0       0       0       0       0       0       0
       0       0       0       0       0       0       0       0       0       0
       0       0       0       0       0       0       0       0       0       0
       0       0       0       0       0       0       0       0       0       0
       0       0       0       0       0       0       0       0       0       0
       0       0       0       0       0       0       0       0       0       0
       0       0       0       0       0       0       0       0       0       0
       0       0       0       0       0       0       0       0       0       0
       0       0       0       0       0       0       0       0       0       0
       0       0       0       0       0       0       0       0       0       0
       0       0       0       0       0       0       0       0       0       0
       0       0       0       0       0       0       0       0       0       0
       0       0       0       0       0       0       0       0       0       0
       0       0       0       0       0       0       0       0       0       0
       0       0       0       0       0       0       0       0       0       0
       0       0       0       0       0       0       0       0       0       0
       0       0       0       0       0       0       0       0       0       0
       0       0       0       0       0       0       0       0       0       0
       0       0       0       0       0       0       0       0       0       0
       0       0       0       0       0       0       0       0       0       0
       0       0       0       0       0       0       0       0       0       0
       0       0       0       0       0       0       0       0       0       0
       0       0       0       0       0       0       0       0       0       0
       0       0       0       0       0       0       0       0       0       0
       0       0       0       0       0       0       0       0       0       0
       0       0       0       0       0       0       0       0       0       0
       0       0       0       0       0       0       0       0       0       0
       0       0       0       0       0       0       0       0       0       0
       0       0       0       0       0       0       0       0       0       0
       0       0       0       0       0       0       0       0       0       0
       0       0       0       0       0       0       0       0       0       0
       0       0       0       0       0       0       0       0       0       0
       0       0       0       0       0       0       0       0       0       0
       0       0       0       0       0       0       0       0       0       0
       0       0       0       0       0       0       0       0       0       0
       0       0       0       0       0       0       0       0       0       0
       0       0       0       0       0       0       0       0       0       0
       0       0       0       0       0       0       0       0       0       0
       0       0       0       0       0       0       0       0       0       0
       0       0       0       0       0       0       0       0       0       0
       0       0       0       0       0       0       0       0       0       0
       0       0       0       0       0       0       0       0       0       0
       0       0       0       0       0       0       0       0       0       0
       0       0       0       0       0       0       0       0       0       0
       0       0       0       0       0       0       0       0       0       0
       0       0       0       0       0       0       0       0       0       0
       0       0       0       0       0       0       0       0       0       0
       0       0       0       0       0       0       0       0       0       0
       0       0       0       0       0       0       0       0       0       0
       0       0       0       0       0       0       0       0       0       0
       0       0       0       0       0       0       0       0       0       0
       0       0       0       0       0       0       0       0       0       0
       0       0       0       0       0       0       0       0       0       0
       0       0       0       0       0       0       0       0       0       0
       0       0       0       0       0       0       0       0       0       0
       0       0       0       0       0       0       0       0       0       0
       0       0       0       0       0       0       0       0       0       0
       0       0       0       0       0       0       0       0       0       0
       0       0       0       0       0       0       0       0       0       0
       0       0       0       0       0       0       0       0       0       0
       0       0       0       0       0       0       0       0       0       0
       0       0       0       0       0       0       0       0       0       0
       0       0       0       0       0       0       0       0       0       0
       0       0       0       0       0       0       0       0       0       0
       0       0       0       0       0       0       0       0       0       0
       0       0       0       0       0       0       0       0       0       0
       0       0       0       0       0       0       0       0       0       0
       0       0       0       0       0       0       0       0       0       0
       0       0       0       0       0       0       0       0       0       0
       0       0       0       0       0       0       0       0       0       0
       0       0       0       0       0       0       0       0       0       0
       0       0       0       0       0       0       0       0       0       0
       0       0       0       0       0       0       0       0       0       0
       0       0       0       0       0       0       0       0       0       0
       0       0       0       0       0       0       0       0       0       0
       0       0       0       0       0       0       0       0       0       0
       0       0       0       0       0       0       0       0       0       0
       0       0       0       0       0       0       0       0       0       0
       0       0       0       0       0       0       0       0       0       0
       0       0       0       0       0       0       0       0       0       0
       0       0       0       0       0       0       0       0       0       0
       0       0       0       0       0       0       0       0       0       0
       0       0       0       0       0       0       0       0       0       0
       0       0       0       0       0       0       0       0       0       0
       0       0       0       0       0       0       0       0       0       0
       0       0       0       0       0       0       0       0       0       0
       0       0       0       0       0       0       0       0       0       0
       0       0       0       0       0       0       0       0       0       0
       0       0       0       0       0       0       0       0       0       0
       0       0       0       0       0       0       0       0       0       0
       0       0       0       0       0       0       0       0       0       0
       0       0       0       0       0       0       0       0       0       0
       0       0       0       0       0       0       0       0       0       0
       0       0       0       0       0       0       0       0       0       0
       0       0       0       0       0       0       0       0       0       0
       0       0       0       0       0       0       0       0       0       0
       0       0       0       0       0       0       0       0       0       0
       0       0       0       0       0       0       0       0       0       0
       0       0       0       0       0       0       0       0       0       0
       0       0       0       0       0       0       0       0       0       0
       0       0       0       0       0       0       0       0       0       0
       0       0       0       0       0       0       0       0       0       0
       0       0       0       0       0       0       0       0       0       0
       0       0       0       0       0       0       0       0       0       0
       0       0       0       0       0       0       0       0       0       0
       0       0       0       0       0       0       0       0       0       0
       0       0       0       0       0       0       0       0       0       0
       0       0       0       0       0       0       0       0       0       0
       0       0       0       0       0       0       0       0       0       0
       0       0       0       0       0       0       0       0       0       0
       0       0       0       0       0       0       0       0       0       0
       0       0       0       0       0       0       0       0       0       0
       0       0       0       0       0       0       0       0       0       0
       0       0       0       0       0       0       0       0       0       0
       0       0       0       0       0       0       0       0       0       0
       0       0       0       0       0       0       0       0       0       0
       0       0       0       0       0       0       0       0       0       0
       0       0       0       0       0       0       0       0       0       0
       0       0       0       0       0       0       0       0       0       0
       0       0       0       0       0       0       0       0       0       0
       0       0       0       0       0       0       0       0       0       0
       0       0       0       0       0       0       0       0       0       0
       0       0       0       0       0       0       0       0       0       0
       0       0       0       0       0       0       0       0       0       0
       0       0       0       0       0       0       0       0       0       0
       0       0       0       0       0       0       0       0       0       0
       0       0       0       0       0       0       0       0       0       0
       0       0       0       0       0       0       0       0       0       0
       0       0       0       0       0       0       0       0       0       0
       0       0       0       0       0       0       0       0       0       0
       0       0       0       0       0       0       0       0       0       0
       0       0       0       0       0       0       0       0       0       0
       0       0       0       0       0       0       0       0       0       0
       0       0       0       0       0       0       0       0       0       0
       0       0       0       0       0       0       0       0       0       0
       0       0       0       0       0       0       0       0       0       0
       0       0       0       0       0       0       0       0       0       0
       0       0       0       0       0       0       0       0       0       0
       0       0       0       0       0       0       0       0       0       0
       0       0       0       0       0       0       0       0       0       0
       0       0       0       0       0       0       0       0       0       0
       0       0       0       0       0       0       0       0       0       0
       0       0       0       0       0       0       0       0       0       0
       0       0       0       0       0       0       0       0       0       0
       0       0       0       0       0       0       0       0       0       0
       0       0       0       0       0       0       0       0       0       0
       0       0       0       0       0       0       0       0       0       0
       0       0       0       0       0       0       0       0       0       0
       0       0       0       0       0       0       0       0       0       0
       0       0       0       0       0       0       0       0       0       0
       0       0       0       0       0       0       0       0       0       0
       0       0       0       0       0       0       0       0       0       0
       0       0       0       0       0       0       0       0       0       0
       0       0       0       0       0       0       0       0       0       0
       0       0       0       0       0       0       0       0       0       0
       0       0       0       0       0       0       0       0       0       0
       0       0       0       0       0       0       0       0       0       0
       0       0       0       0       0       0       0       0       0       0
       0       0       0       0       0       0       0       0       0       0
       0       0       0       0       0       0       0       0       0       0
       0       0       0       0       0       0       0       0       0       0
       0       0       0       0       0       0       0       0       0       0
       0       0       0       0       0       0       0       0       0       0
       0       0       0       0       0       0       0       0       0       0
       0       0       0       0       0       0       0       0       0       0
       0       0       0       0       0       0       0       0       0       0
       0       0       0       0       0       0       0       0       0       0
       0       0       0       0       0       0       0       0       0       0
       0       0       0       0       0       0       0       0       0       0
       0       0       0       0       0       0       0       0       0       0
       0       0       0       0       0       0       0       0       0       0
       0       0       0       0       0       0       0       0       0       0
       0       0       0       0       0       0       0       0       0       0
       0       0       0       0       0       0       0       0       0       0
       0       0       0       0       0       0       0       0       0       0
       0       0       0       0       0       0       0       0       0       0
       0       0       0       0       0       0       0       0       0       0
       0       0       0       0       0       0       0       0       0       0
       0       0       0       0       0       0       0       0       0       0
       0       0       0       0       0       0       0       0       0       0
       0       0       0       0       0       0       0       0       0       0
       0       0       0       0       0       0       0       0       0       0
       0       0       0       0       0       0       0       0       0       0
       0       0       0       0       0       0       0       0       0       0
       0       0       0       0       0       0       0       0       0       0
       0       0       0       0       0       0       0       0       0       0
       0       0       0       0       0       0       0       0       0       0
       0       0       0       0       0       0       0       0       0       0
       0       0       0       0       0       0       0       0       0       0
       0       0       0       0       0       0       0       0       0       0
       0       0       0       0       0       0       0       0       0       0
       0       0       0       0       0       0       0       0       0       0
       0       0       0       0       0       0       0       0       0       0
       0       0       0       0       0       0       0       0       0       0
       0       0       0       0       0       0       0       0       0       0
       0       0       0       0       0       0       0       0       0       0
       0       0       0       0       0       0       0       0       0       0
       0       0       0       0       0       0       0       0       0       0
       0       0       0       0       0       0       0       0       0       0
       0       0       0       0       0       0       0       0       0       0
       0       0       0       0       0       0       0       0       0       0
       0       0       0       0       0       0       0       0       0       0
       0       0       0       0       0       0       0       0       0       0
       0       0       0       0       0       0       0       0       0       0
       0       0       0       0       0       0       0       0       0       0
       0       0       0       0       0       0       0       0       0       0
       0       0       0       0       0       0       0       0       0       0
       0       0       0       0       0       0       0       0       0       0
       0       0       0       0       0       0       0       0       0       0
       0       0       0       0       0       0       0       0       0       0
       0       0       0       0       0       0       0       0       0       0
       0       0       0       0       0       0       0       0       0       0
       0       0       0       0       0       0       0       0       0       0
       0       0       0       0       0       0       0       0       0       0
       0       0       0       0       0       0       0       0       0       0
       0       0       0       0       0       0       0       0       0       0
       0       0       0       0       0       0       0       0       0       0
       0       0       0       0       0       0       0       0       0       0
       0       0       0       0       0       0       0       0       0       0
       0       0       0       0       0       0       0       0       0       0
       0       0       0       0       0       0       0       0       0       0
       0       0       0       0       0       0       0       0       0       0
       0       0       0       0       0       0       0       0       0       0
       0       0       0       0       0       0       0       0       0       0
       0       0       0       0       0       0       0       0       0       0
       0       0       0       0       0       0       0       0       0       0
       0       0       0       0       0       0       0       0       0       0
       0       0       0       0       0       0       0       0       0       0
       0       0       0       0       0       0       0       0       0       0
       0       0       0       0       0       0       0       0       0       0
       0       0       0       0       0       0       0       0       0       0
       0       0       0       0       0       0       0       0       0       0
       0       0       0       0       0       0       0       0       0       0
       0       0       0       0       0       0       0       0       0       0
       0       0       0       0       0       0       0       0       0       0
       0       0       0       0       0       0       0       0       0       0
       0       0       0       0       0       0       0       0       0       0
       0       0       0       0       0       0       0       0       0       0
       0       0       0       0       0       0       0       0       0       0
       0       0       0       0       0       0       0       0       0       0
       0       0       0       0       0       0       0       0       0       0
       0       0       0       0       0       0       0       0       0       0
       0       0       0       0       0       0       0       0       0       0
       0       0       0       0       0       0       0       0       0       0
       0       0       0       0       0       0       0       0       0       0
       0       0       0       0       0       0       0       0       0       0
       0       0       0       0       0       0       0       0       0       0
       0       0       0       0       0       0       0       0       0       0
       0       0       0       0       0       0       0       0       0       0
       0       0       0       0       0       0       0       0       0       0
       0       0       0       0       0       0       0       0       0       0
       0       0       0       0       0       0       0       0       0       0
       0       0       0       0       0       0       0       0       0       0
       0       0       0       0       0       0       0       0       0       0
       0       0       0       0       0       0       0       0       0       0
       0       0       0       0       0       0       0       0       0       0
       0       0       0       0       0       0       0       0       0       0
       0       0       0       0       0       0       0       0       0       0
       0       0       0       0       0       0       0       0       0       0
       0       0       0       0       0       0       0       0       0       0
       0       0       0       0       0       0       0       0       0       0
       0       0       0       0       0       0       0       0       0       0
       0       0       0       0       0       0       0       0       0       0
       0       0       0       0       0       0       0       0       0       0
       0       0       0       0       0       0       0       0       0       0
       0       0       0       0       0       0       0       0       0       0
       0       0       0       0       0       0       0       0       0       0
       0       0       0       0       0       0       0       0       0       0
       0       0       0       0       0       0       0       0       0       0
       0       0       0       0       0       0       0       0       0       0
       0       0       0       0       0       0       0       0       0       0
       0       0       0       0       0       0       0       0       0       0
       0       0       0       0       0       0       0       0       0       0
       0       0       0       0       0       0       0       0       0       0
       0       0       0       0       0       0       0       0       0       0
       0       0       0       0       0       0       0       0       0       0
       0       0       0       0       0       0       0       0       0       0
       0       0       0       0       0       0       0       0       0       0
       0       0       0       0       0       0       0       0       0       0
       0       0       0       0       0       0       0       0       0       0
       0       0       0       0       0       0       0       0       0       0
       0       0       0       0       0       0       0       0       0       0
       0       0       0       0       0       0       0       0       0       0
       0       0       0       0       0       0       0       0       0       0
       0       0       0       0       0       0       0       0       0       0
       0       0       0       0       0       0       0       0       0       0
       0       0       0       0       0       0       0       0       0       0
       0       0       0       0       0       0       0       0       0       0
       0       0       0       0       0       0       0       0       0       0
       0       0       0       0       0       0       0       0       0       0
       0       0       0       0       0       0       0       0       0       0
       0       0       0       0       0       0       0       0       0       0
       0       0       0       0       0       0       0       0       0       0
       0       0       0       0       0       0       0       0       0       0
       0       0       0       0       0       0       0       0       0       0
       0       0       0       0       0       0       0       0       0       0
       0       0       0       0       0       0       0       0       0       0
       0       0       0       0       0       0       0       0       0       0
       0       0       0       0       0       0       0       0       0       0
       0       0       0       0       0       0       0       0       0       0
       0       0       0       0       0       0       0       0       0       0
       0       0       0       0       0       0       0       0       0       0
       0       0       0       0       0       0       0       0       0       0
       0       0       0       0       0       0       0       0       0       0
       0       0       0       0       0       0       0       0       0       0
       0       0       0       0       0       0       0       0       0       0
       0       0       0       0       0       0       0       0       0       0
       0       0       0       0       0       0       0       0       0       0
       0       0       0       0       0       0       0       0       0       0
       0       0       0       0       0       0       0       0       0       0
       0       0       0       0       0       0       0       0       0       0
       0       0       0       0       0       0       0       0       0       0
       0       0       0       0       0       0       0       0       0       0
       0       0       0       0       0       0       0       0       0       0
       0       0       0       0       0       0       0       0       0       0
       0       0       0       0       0       0       0       0       0       0
       0       0       0       0       0       0       0       0       0       0
       0       0       0       0       0       0       0       0       0       0
       0       0       0       0       0       0       0       0       0       0
       0       0       0       0       0       0       0       0       0       0
       0       0       0       0       0       0       0       0       0       0
       0       0       0       0       0       0       0       0       0       0
       0       0       0       0       0       0       0       0       0       0
       0       0       0       0       0       0       0       0       0       0
       0       0       0       0       0       0       0       0       0       0
       0       0       0       0       0       0       0       0       0       0
       0       0       0       0       0       0       0       0       0       0
       0       0       0       0       0       0       0       0       0       0
       0       0       0       0       0       0       0       0       0       0
       0       0       0       0       0       0       0       0       0       0
       0       0       0       0       0       0       0       0       0       0
       0       0       0       0       0       0       0       0       0       0
       0       0       0       0       0       0       0       0       0       0
       0       0       0       0       0       0       0       0       0       0
       0       0       0       0       0       0       0       0       0       0
       0       0       0       0       0       0       0       0       0       0
       0       0       0       0       0       0       0       0       0       0
       0       0       0       0       0       0       0       0       0       0
       0       0       0       0       0       0       0       0       0       0
       0       0       0       0       0       0       0       0       0       0
       0       0       0       0       0       0       0       0       0       0
       0       0       0       0       0       0       0       0       0       0
       0       0       0       0       0       0       0       0       0       0
       0       0       0       0       0       0       0       0       0       0
       0       0       0       0       0       0       0       0       0       0
       0       0       0       0       0       0       0       0       0       0
       0       0       0       0       0       0       0       0       0       0
       0       0       0       0       0       0       0       0       0       0
       0       0       0       0       0       0       0       0       0       0
       0       0       0       0       0       0       0       0       0       0
       0       0       0       0       0       0       0       0       0       0
       0       0       0       0       0       0       0       0       0       0
       0       0       0       0       0       0       0       0       0       0
       0       0       0       0       0       0       0       0       0       0
       0       0       0       0       0       0       0       0       0       0
       0       0       0       0       0       0       0       0       0       0
       0       0       0       0       0       0       0       0       0       0
       0       0       0       0       0       0       0       0       0       0
       0       0       0       0       0       0       0       0       0       0
       0       0       0       0       0       0       0       0       0       0
       0       0       0       0       0       0       0       0       0       0
       0       0       0       0       0       0       0       0       0       0
       0       0       0       0       0       0       0       0       0       0
       0       0       0       0       0       0       0       0       0       0
       0       0       0       0       0       0       0       0       0       0
       0       0       0       0       0       0       0       0       0       0
       0       0       0       0       0       0       0       0       0       0
       0       0       0       0       0       0       0       0       0       0
       0       0       0       0       0       0       0       0       0       0
       0       0       0       0       0       0       0       0       0       0
       0       0       0       0       0       0       0       0       0       0
       0       0       0       0       0       0       0       0       0       0
       0       0       0       0       0       0       0       0       0       0
       0       0       0       0       0       0       0       0       0       0
       0       0       0       0       0       0       0       0       0       0
       0       0       0       0       0       0       0       0       0       0
       0       0       0       0       0       0       0       0       0       0
       0       0       0       0       0       0       0       0       0       0
       0       0       0       0       0       0       0       0       0       0
       0       0       0       0       0       0       0       0       0       0
       0       0       0       0       0       0       0       0       0       0
       0       0       0       0       0       0       0       0       0       0
       0       0       0       0       0       0       0       0       0       0
       0       0       0       0       0       0       0       0       0       0
       0       0       0       0       0       0       0       0       0       0
       0       0       0       0       0       0       0       0       0       0
       0       0       0       0       0       0       0       0       0       0
       0       0       0       0       0       0       0       0       0       0
       0       0       0       0       0       0       0       0       0       0
       0       0       0       0       0       0       0       0       0       0
       0       0       0       0       0       0       0       0       0       0
       0       0       0       0       0       0       0       0       0       0
       0       0       0       0       0       0       0       0       0       0
       0       0       0       0       0       0       0       0       0       0
       0       0       0       0       0       0       0       0       0       0
       0       0       0       0       0       0       0       0       0       0
       0       0       0       0       0       0       0       0       0       0
       0       0       0       0       0       0       0       0       0       0
       0       0       0       0       0       0       0       0       0       0
       0       0       0       0       0       0       0       0       0       0
       0       0       0       0       0       0       0       0       0       0
       0       0       0       0       0       0       0       0       0       0
       0       0       0       0       0       0       0       0       0       0
       0       0       0       0       0       0       0       0       0       0
       0       0       0       0       0       0       0       0       0       0
       0       0       0       0       0       0       0       0       0       0
       0       0       0       0       0       0       0       0       0       0
       0       0       0       0       0       0       0       0       0       0
       0       0       0       0       0       0       0       0       0       0
       0       0       0       0       0       0       0       0       0       0
       0       0       0       0       0       0       0       0       0       0
       0       0       0       0       0       0       0       0       0       0
       0       0       0       0       0       0       0       0       0       0
       0       0       0       0       0       0       0       0       0       0
       0       0       0       0       0       0       0       0       0       0
       0       0       0       0       0       0       0       0       0       0
       0       0       0       0       0       0       0       0       0       0
       0       0       0       0       0       0       0       0       0       0
       0       0       0       0       0       0       0       0       0       0
       0       0       0       0       0       0       0       0       0       0
       0       0       0       0       0       0       0       0       0       0
       0       0       0       0       0       0       0       0       0       0
       0       0       0       0       0       0       0       0       0       0
       0       0       0       0       0       0       0       0       0       0
       0       0       0       0       0       0       0       0       0       0
       0       0       0       0       0       0       0       0       0       0
       0       0       0       0       0       0       0       0       0       0
       0       0       0       0       0       0       0       0       0       0
       0       0       0       0       0       0       0       0       0       0
       0       0       0       0       0       0       0       0       0       0
       0       0       0       0       0       0       0       0       0       0
       0       0       0       0       0       0       0       0       0       0
       0       0       0       0       0       0       0       0       0       0
       0       0       0       0       0       0       0       0       0       0
       0       0       0       0       0       0       0       0       0       0
       0       0       0       0       0       0       0       0       0       0
       0       0       0       0       0       0       0       0       0       0
       0       0       0       0       0       0       0       0       0       0
       0       0       0       0       0       0       0       0       0       0
       0       0       0       0       0       0       0       0       0       0
       0       0       0       0       0       0       0       0       0       0
       0       0       0       0       0       0       0       0       0       0
       0       0       0       0       0       0       0       0       0       0
       0       0       0       0       0       0       0       0       0       0
       0       0       0       0       0       0       0       0       0       0
       0       0       0       0       0       0       0       0       0       0
       0       0       0       0       0       0       0       0       0       0
       0       0       0       0       0       0       0       0       0       0
       0       0       0       0       0       0       0       0       0       0
       0       0       0       0       0       0       0       0       0       0
       0       0       0       0       0       0       0       0       0       0
       0       0       0       0       0       0       0       0       0       0
       0       0       0       0       0       0       0       0       0       0
       0       0       0       0       0       0       0       0       0       0
       0       0       0       0       0       0       0       0       0       0
       0       0       0       0       0       0       0       0       0       0
       0       0       0       0       0       0       0       0       0       0
       0       0       0       0       0       0       0       0       0       0
       0       0       0       0       0       0       0       0       0       0
       0       0       0       0       0       0       0       0       0       0
       0       0       0       0       0       0       0       0       0       0
       0       0       0       0       0       0       0       0       0       0
       0       0       0       0       0       0       0       0       0       0
       0       0       0       0       0       0       0       0       0       0
       0       0       0       0       0       0       0       0       0       0
       0       0       0       0       0       0       0       0       0       0
       0       0       0       0       0       0       0       0       0       0
       0       0       0       0       0       0       0       0       0       0
       0       0       0       0       0       0       0       0       0       0
       0       0       0       0       0       0       0       0       0       0
       0       0       0       0       0       0       0       0       0       0
       0       0       0       0       0       0       0       0       0       0
       0       0       0       0       0       0       0       0       0       0
       0       0       0       0       0       0       0       0       0       0
       0       0       0       0       0       0       0       0       0       0
       0       0       0       0       0       0       0       0       0       0
       0       0       0       0       0       0       0       0       0       0
       0       0       0       0       0       0       0       0       0       0
       0       0       0       0       0       0       0       0       0       0
       0       0       0       0       0       0       0       0       0       0
       0       0       0       0       0       0       0       0       0       0
       0       0       0       0       0       0       0       0       0       0
       0       0       0       0       0       0       0       0       0       0
       0       0       0       0       0       0       0       0       0       0
       0       0       0       0       0       0       0       0       0       0
       0       0       0       0       0       0       0       0       0       0
       0       0       0       0       0       0       0       0       0       0
       0       0       0       0       0       0       0       0       0       0
       0       0       0       0       0       0       0       0       0       0
       0       0       0       0       0       0       0       0       0       0
       0       0       0       0       0       0       0       0       0       0
       0       0       0       0       0       0       0       0       0       0
       0       0       0       0       0       0       0       0       0       0
       0       0       0       0       0       0       0       0       0       0
       0       0       0       0       0       0       0       0       0       0
       0       0       0       0       0       0       0       0       0       0
       0       0       0       0       0       0       0       0       0       0
       0       0       0       0       0       0       0       0       0       0
       0       0       0       0       0       0       0       0       0       0
       0       0       0       0       0       0       0       0       0       0
       0       0       0       0       0       0       0       0       0       0
       0       0       0       0       0       0       0       0       0       0
       0       0       0       0       0       0       0       0       0       0
       0       0       0       0       0       0       0       0       0       0
       0       0       0       0       0       0       0       0       0       0
       0       0       0       0       0       0       0       0       0       0
       0       0       0       0       0       0       0       0       0       0
       0       0       0       0       0       0       0       0       0       0
       0       0       0       0       0       0       0       0       0       0
       0       0       0       0       0       0       0       0       0       0
       0       0       0       0       0       0       0       0       0       0
       0       0       0       0       0       0       0       0       0       0
       0       0       0       0       0       0       0       0       0       0
       0       0       0       0       0       0       0       0       0       0
       0       0       0       0       0       0       0       0       0       0
       0       0       0       0       0       0       0       0       0       0
       0       0       0       0       0       0       0       0       0       0
       0       0       0       0       0       0       0       0       0       0
       0       0       0       0       0       0       0       0       0       0
       0       0       0       0       0       0       0       0       0       0
       0       0       0       0       0       0       0       0       0       0
       0       0       0       0       0       0       0       0       0       0
       0       0       0       0       0       0       0       0       0       0
       0       0       0       0       0       0       0       0       0       0
       0       0       0       0       0       0       0       0       0       0
       0       0       0       0       0       0       0       0       0       0
       0       0       0       0       0       0       0       0       0       0
       0       0       0       0       0       0       0       0       0       0
       0       0       0       0       0       0       0       0       0       0
       0       0       0       0       0       0       0       0       0       0
       0       0       0       0       0       0       0       0       0       0
       0       0       0       0       0       0       0       0       0       0
       0       0       0       0       0       0       0       0       0       0
       0       0       0       0       0       0       0       0       0       0
       0       0       0       0       0       0       0       0       0       0
       0       0       0       0       0       0       0       0       0       0
       0       0       0       0       0       0       0       0       0       0
       0       0       0       0       0       0       0       0       0       0
       0       0       0       0       0       0       0       0       0       0
       0       0       0       0       0       0       0       0       0       0
       0       0       0       0       0       0       0       0       0       0
       0       0       0       0       0       0       0       0       0       0
       0       0       0       0       0       0       0       0       0       0
       0       0       0       0       0       0       0       0       0       0
       0       0       0       0       0       0       0       0       0       0
       0       0       0       0       0       0       0       0       0       0
       0       0       0       0       0       0       0       0       0       0
       0       0       0       0       0       0       0       0       0       0
       0       0       0       0       0       0       0       0       0       0
       0       0       0       0       0       0       0       0       0       0
       0       0       0       0       0       0       0       0       0       0
       0       0       0       0       0       0       0       0       0       0
       0       0       0       0       0       0       0       0       0       0
       0       0       0       0       0       0       0       0       0       0
       0       0       0       0       0       0       0       0       0       0
       0       0       0       0       0       0       0       0       0       0
       0       0       0       0       0       0       0       0       0       0
       0       0       0       0       0       0       0       0       0       0
       0       0       0       0       0       0       0       0       0       0
       0       0       0       0       0       0       0       0       0       0
       0       0       0       0       0       0       0       0       0       0
       0       0       0       0       0       0       0       0       0       0
       0       0       0       0       0       0       0       0       0       0
       0       0       0       0       0       0       0       0       0       0
       0       0       0       0       0       0       0       0       0       0
       0       0       0       0       0       0       0       0       0       0
       0       0       0       0       0       0       0       0       0       0
       0       0       0       0       0       0       0       0       0       0
       0       0       0       0       0       0       0       0       0       0
       0       0       0       0       0       0       0       0       0       0
       0       0       0       0       0       0       0       0       0       0
       0       0       0       0       0       0       0       0       0       0
       0       0       0       0       0       0       0       0       0       0
       0       0       0       0       0       0       0       0       0       0
       0       0       0       0       0       0       0       0       0       0
       0       0       0       0       0       0       0       0       0       0
       0       0       0       0       0       0       0       0       0       0
       0       0       0       0       0       0       0       0       0       0
       0       0       0       0       0       0       0       0       0       0
       0       0       0       0       0       0       0       0       0       0
       0       0       0       0       0       0       0       0       0       0
       0       0       0       0       0       0       0       0       0       0
       0       0       0       0       0       0       0       0       0       0
       0       0       0       0       0       0       0       0       0       0
       0       0       0       0       0       0       0       0       0       0
       0       0       0       0       0       0       0       0       0       0
       0       0       0       0       0       0       0       0       0       0
       0       0       0       0       0       0       0       0       0       0
       0       0       0       0       0       0       0       0       0       0
       0       0       0       0       0       0       0       0       0       0
       0       0       0       0       0       0       0       0       0       0
       0       0       0       0       0       0       0       0       0       0
       0       0       0       0       0       0       0       0       0       0
       0       0       0       0       0       0       0       0       0       0
       0       0       0       0       0       0       0       0       0       0
       0       0       0       0       0       0       0       0       0       0
       0       0       0       0       0       0       0       0       0       0
       0       0       0       0       0       0       0       0       0       0
       0       0       0       0       0       0       0       0       0       0
       0       0       0       0       0       0       0       0       0       0
       0       0       0       0       0       0       0       0       0       0
       0       0       0       0       0       0       0       0       0       0
       0       0       0       0       0       0       0       0       0       0
       0       0       0       0       0       0       0       0       0       0
       0       0       0       0       0       0       0       0       0       0
       0       0       0       0       0       0       0       0       0       0
       0       0       0       0       0       0       0       0       0       0
       0       0       0       0       0       0       0       0       0       0
       0       0       0       0       0       0       0       0       0       0
       0       0       0       0       0       0       0       0       0       0
       0       0       0       0       0       0       0       0       0       0
       0       0       0       0       0       0       0       0       0       0
       0       0       0       0       0       0       0       0       0       0
       0       0       0       0       0       0       0       0       0       0
       0       0       0       0       0       0       0       0       0       0
       0       0       0       0       0       0       0       0       0       0
       0       0       0       0       0       0       0       0       0       0
       0       0       0       0       0       0       0       0       0       0
       0       0       0       0       0       0       0       0       0       0
       0       0       0       0       0       0       0       0       0       0
       0       0       0       0       0       0       0       0       0       0
       0       0       0       0       0       0       0       0       0       0
       0       0       0       0       0       0       0       0       0       0
       0       0       0       0       0       0       0       0       0       0
       0       0       0       0       0       0       0       0       0       0
       0       0       0       0       0       0       0       0       0       0
       0       0       0       0       0       0       0       0       0       0
       0       0       0       0       0       0       0       0       0       0
       0       0       0       0       0       0       0       0       0       0
       0       0       0       0       0       0       0       0       0       0
       0       0       0       0       0       0       0       0       0       0
       0       0       0       0       0       0       0       0       0       0
       0       0       0       0       0       0       0       0       0       0
       0       0       0       0       0       0       0       0       0       0
       0       0       0       0       0       0       0       0       0       0
       0       0       0       0       0       0       0       0       0       0
       0       0       0       0       0       0       0       0       0       0
       0       0       0       0       0       0       0       0       0       0
       0       0       0       0       0       0       0       0       0       0
       0       0       0       0       0       0       0       0       0       0
       0       0       0       0       0       0       0       0       0       0
       0       0       0       0       0       0       0       0       0       0
       0       0       0       0       0       0       0       0       0       0
       0       0       0       0       0       0       0       0       0       0
       0       0       0       0       0       0       0       0       0       0
       0       0       0       0       0       0       0       0       0       0
       0       0       0       0       0       0       0       0       0       0
       0       0       0       0       0       0       0       0       0       0
       0       0       0       0       0       0       0       0       0       0
       0       0       0       0       0       0       0       0       0       0
       0       0       0       0       0       0       0       0       0       0
       0       0       0       0       0       0       0       0       0       0
       0       0       0       0       0       0       0       0       0       0
       0       0       0       0       0       0       0       0       0       0
       0       0       0       0       0       0       0       0       0       0
       0       0       0       0       0       0       0       0       0       0
       0       0       0       0       0       0       0       0       0       0
       0       0       0       0       0       0       0       0       0       0
       0       0       0       0       0       0       0       0       0       0
       0       0       0       0       0       0       0       0       0       0
       0       0       0       0       0       0       0       0       0       0
       0       0       0       0       0       0       0       0       0       0
       0       0       0       0       0       0       0       0       0       0
       0       0       0       0       0       0       0       0       0       0
       0       0       0       0       0       0       0       0       0       0
       0       0       0       0       0       0       0       0       0       0
       0       0       0       0       0       0       0       0       0       0
       0       0       0       0       0       0       0       0       0       0
       0       0       0       0       0       0       0       0       0       0
       0       0       0       0       0       0       0       0       0       0
       0       0       0       0       0       0       0       0       0       0
       0       0       0       0       0       0       0       0       0       0
       0       0       0       0       0       0       0       0       0       0
       0       0       0       0       0       0       0       0       0       0
       0       0       0       0       0       0       0       0       0       0
       0       0       0       0       0       0       0       0       0       0
       0       0       0       0       0       0       0       0       0       0
       0       0       0       0       0       0       0       0       0       0
       0       0       0       0       0       0       0       0       0       0
       0       0       0       0       0       0       0       0       0       0
       0       0       0       0       0       0       0       0       0       0
       0       0       0       0       0       0       0       0       0       0
       0       0       0       0       0       0       0       0       0       0
       0       0       0       0       0       0       0       0       0       0
       0       0       0       0       0       0       0       0       0       0
       0       0       0       0       0       0       0       0       0       0
       0       0       0       0       0       0       0       0       0       0
       0       0       0       0       0       0       0       0       0       0
       0       0       0       0       0       0       0       0       0       0
       0       0       0       0       0       0       0       0       0       0
       0       0       0       0       0       0       0       0       0       0
       0       0       0       0       0       0       0       0       0       0
       0       0       0       0       0       0       0       0       0       0
       0       0       0       0       0       0       0       0       0       0
       0       0       0       0       0       0       0       0       0       0
       0       0       0       0       0       0       0       0       0       0
       0       0       0       0       0       0       0       0       0       0
       0       0       0       0       0       0       0       0       0       0
       0       0       0       0       0       0       0       0       0       0
       0       0       0       0       0       0       0       0       0       0
       0       0       0       0       0       0       0       0       0       0
       0       0       0       0       0       0       0       0       0       0
       0       0       0       0       0       0       0       0       0       0
       0       0       0       0       0       0       0       0       0       0
       0       0       0       0       0       0       0       0       0       0
       0       0       0       0       0       0       0       0       0       0
       0       0       0       0       0       0       0       0       0       0
       0       0       0       0       0       0       0       0       0       0
       0       0       0       0       0       0       0       0       0       0
       0       0       0       0       0       0       0       0       0       0
       0       0       0       0       0       0       0       0       0       0
       0       0       0       0       0       0       0       0       0       0
       0       0       0       0       0       0       0       0       0       0
       0       0       0       0       0       0       0       0       0       0
       0       0       0       0       0       0       0       0       0       0
       0       0       0       0       0       0       0       0       0       0
       0       0       0       0       0       0       0       0       0       0
       0       0       0       0       0       0       0       0       0       0
       0       0       0       0       0       0       0       0       0       0
       0       0       0       0       0       0       0       0       0       0
       0       0       0       0       0       0       0       0       0       0
       0       0       0       0       0       0       0       0       0       0
       0       0       0       0       0       0       0       0       0       0
       0       0       0       0       0       0       0       0       0       0
       0       0       0       0       0       0       0       0       0       0
       0       0       0       0       0       0       0       0       0       0
       0       0       0       0       0       0       0       0       0       0
       0       0       0       0       0       0       0       0       0       0
       0       0       0       0       0       0       0       0       0       0
       0       0       0       0       0       0       0       0       0       0
       0       0       0       0       0       0       0       0       0       0
       0       0       0       0       0       0       0       0       0       0
       0       0       0       0       0       0       0       0       0       0
       0       0       0       0       0       0       0       0       0       0
       0       0       0       0       0       0       0       0       0       0
       0       0       0       0       0       0       0       0       0       0
       0       0       0       0       0       0       0       0       0       0
       0       0       0       0       0       0       0       0       0       0
       0       0       0       0       0       0       0       0       0       0
       0       0       0       0       0       0       0       0       0       0
       0       0       0       0       0       0       0       0       0       0
       0       0       0       0       0       0       0       0       0       0
       0       0       0       0       0       0       0       0       0       0
       0       0       0       0       0       0       0       0       0       0
       0       0       0       0       0       0       0       0       0       0
       0       0       0       0       0       0       0       0       0       0
       0       0       0       0       0       0       0       0       0       0
       0       0       0       0       0       0       0       0       0       0
       0       0       0       0       0       0       0       0       0       0
       0       0       0       0       0       0       0       0       0       0
       0       0       0       0       0       0       0       0       0       0
       0       0       0       0       0       0       0       0       0       0
       0       0       0       0       0       0       0       0       0       0
       0       0       0       0       0       0       0       0       0       0
       0       0       0       0       0       0       0       0       0       0
       0       0       0       0       0       0       0       0       0       0
       0       0       0       0       0       0       0       0       0       0
       0       0       0       0       0       0       0       0       0       0
       0       0       0       0       0       0       0       0       0       0
       0       0       0       0       0       0       0       0       0       0
       0       0       0       0       0       0       0       0       0       0
       0       0       0       0       0       0       0       0       0       0
       0       0       0       0       0       0       0       0       0       0
       0       0       0       0       0       0       0       0       0       0
       0       0       0       0       0       0       0       0       0       0
       0       0       0       0       0       0       0       0       0       0
       0       0       0       0       0       0       0       0       0       0
       0       0       0       0       0       0       0       0       0       0
       0       0       0       0       0       0       0       0       0       0
       0       0       0       0       0       0       0       0       0       0
       0       0       0       0       0       0       0       0       0       0
       0       0       0       0       0       0       0       0       0       0
       0       0       0       0       0       0       0       0       0       0
       0       0       0       0       0       0       0       0       0       0
       0       0       0       0       0       0       0       0       0       0
       0       0       0       0       0       0       0       0       0       0
       0       0       0       0       0       0       0       0       0       0
       0       0       0       0       0       0       0       0       0       0
       0       0       0       0       0       0       0       0       0       0
       0       0       0       0       0       0       0       0       0       0
       0       0       0       0       0       0       0       0       0       0
       0       0       0       0       0       0       0       0       0       0
       0       0       0       0       0       0       0       0       0       0
       0       0       0       0       0       0       0       0       0       0
       0       0       0       0       0       0       0       0       0       0
       0       0       0       0       0       0       0       0       0       0
       0       0       0       0       0       0       0       0       0       0
       0       0       0       0       0       0       0       0       0       0
       0       0       0       0       0       0       0       0       0       0
       0       0       0       0       0       0       0       0       0       0
       0       0       0       0       0       0       0       0       0       0
       0       0       0       0       0       0       0       0       0       0
       0       0       0       0       0       0       0       0       0       0
       0       0       0       0       0       0       0       0       0       0
       0       0       0       0       0       0       0       0       0       0
       0       0       0       0       0       0       0       0       0       0
       0       0       0       0       0       0       0       0       0       0
       0       0       0       0       0       0       0       0       0       0
       0       0       0       0       0       0       0       0       0       0
       0       0       0       0       0       0       0       0       0       0
       0       0       0       0       0       0       0       0       0       0
       0       0       0       0       0       0       0       0       0       0
       0       0       0       0       0       0       0       0       0       0
       0       0       0       0       0       0       0       0       0       0
       0       0       0       0       0       0       0       0       0       0
       0       0       0       0       0       0       0       0       0       0
       0       0       0       0       0       0       0       0       0       0
       0       0       0       0       0       0       0       0       0       0
       0       0       0       0       0       0       0       0       0       0
       0       0       0       0       0       0       0       0       0       0
       0       0       0       0       0       0       0       0       0       0
       0       0       0       0       0       0       0       0       0       0
       0       0       0       0       0       0       0       0       0       0
       0       0       0       0       0       0       0       0       0       0
       0       0       0       0       0       0       0       0       0       0
       0       0       0       0       0       0       0       0       0       0
       0       0       0       0       0       0       0       0       0       0
       0       0       0       0       0       0       0       0       0       0
       0       0       0       0       0       0       0       0       0       0
       0       0       0       0       0       0       0       0       0       0
       0       0       0       0       0       0       0       0       0       0
       0       0       0       0       0       0       0       0       0       0
       0       0       0       0       0       0       0       0       0       0
       0       0       0       0       0       0       0       0       0       0
       0       0       0       0       0       0       0       0       0       0
       0       0       0       0       0       0       0       0       0       0
       0       0       0       0       0       0       0       0       0       0
       0       0       0       0       0       0       0       0       0       0
       0       0       0       0       0       0       0       0       0       0
       0       0       0       0       0       0       0       0       0       0
       0       0       0       0       0       0       0       0       0       0
       0       0       0       0       0       0       0       0       0       0
       0       0       0       0       0       0       0       0       0       0
       0       0       0       0       0       0       0       0       0       0
       0       0       0       0       0       0       0       0       0       0
       0       0       0       0       0       0       0       0       0       0
       0       0       0       0       0       0       0       0       0       0
       0       0       0       0       0       0       0       0       0       0
       0       0       0       0       0       0       0       0       0       0
       0       0       0       0       0       0       0       0       0       0
       0       0       0       0       0       0       0       0       0       0
       0       0       0       0       0       0       0       0       0       0
       0       0       0       0       0       0       0       0       0       0
       0       0       0       0       0       0       0       0       0       0
       0       0       0       0       0       0       0       0       0       0
       0       0       0       0       0       0       0       0       0       0
       0       0       0       0       0       0       0       0       0       0
       0       0       0       0       0       0       0       0       0       0
       0       0       0       0       0       0       0       0       0       0
       0       0       0       0       0       0       0       0       0       0
       0       0       0       0       0       0       0       0       0       0
       0       0       0       0       0       0       0       0       0       0
       0       0       0       0       0       0       0       0       0       0
       0       0       0       0       0       0       0       0       0       0
       0       0       0       0       0       0       0       0       0       0
       0       0       0       0       0       0       0       0       0       0
       0       0       0       0       0       0       0       0       0       0
       0       0       0       0       0       0       0       0       0       0
       0       0       0       0       0       0       0       0       0       0
       0       0       0       0       0       0       0       0       0       0
       0       0       0       0       0       0       0       0       0       0
       0       0       0       0       0       0       0       0       0       0
       0       0       0       0       0       0       0       0       0       0
       0       0       0       0       0       0       0       0       0       0
       0       0       0       0       0       0       0       0       0       0
       0       0       0       0       0       0       0       0       0       0
       0       0       0       0       0       0       0       0       0       0
       0       0       0       0       0       0       0       0       0       0
       0       0       0       0       0       0       0       0       0       0
       0       0       0       0       0       0       0       0       0       0
       0       0       0       0       0       0       0       0       0       0
       0       0       0       0       0       0       0       0       0       0
       0       0       0       0       0       0       0       0       0       0
       0       0       0       0       0       0       0       0       0       0
       0       0       0       0       0       0       0       0       0       0
       0       0       0       0       0       0       0       0       0       0
       0       0       0       0       0       0       0       0       0       0
       0       0       0       0       0       0       0       0       0       0
       0       0       0       0       0       0       0       0       0       0
       0       0       0       0       0       0       0       0       0       0
       0       0       0       0       0       0       0       0       0       0
       0       0       0       0       0       0       0       0       0       0
       0       0       0       0       0       0       0       0       0       0
       0       0       0       0       0       0       0       0       0       0
       0       0       0       0       0       0       0       0       0       0
       0       0       0       0       0       0       0       0       0       0
       0       0       0       0       0       0       0       0       0       0
       0       0       0       0       0       0       0       0       0       0
       0       0       0       0       0       0       0       0       0       0
       0       0       0       0       0       0       0       0       0       0
       0       0       0       0       0       0       0       0       0       0
       0       0       0       0       0       0       0       0       0       0
       0       0       0       0       0       0       0       0       0       0
       0       0       0       0       0       0       0       0       0       0
       0       0       0       0       0       0       0       0       0       0
       0       0       0       0       0       0       0       0       0       0
       0       0       0       0       0       0       0       0       0       0
       0       0       0       0       0       0       0       0       0       0
       0       0       0       0       0       0       0       0       0       0
       0       0       0       0       0       0       0       0       0       0
       0       0       0       0       0       0       0       0       0       0
       0       0       0       0       0       0       0       0       0       0
       0       0       0       0       0       0       0       0       0       0
       0       0       0       0       0       0       0       0       0       0
       0       0       0       0       0       0       0       0       0       0
       0       0       0       0       0       0       0       0       0       0
       0       0       0       0       0       0       0       0       0       0
       0       0       0       0       0       0       0       0       0       0
       0       0       0       0       0       0       0       0       0       0
       0       0       0       0       0       0       0       0       0       0
       0       0       0       0       0       0       0       0       0       0
       0       0       0       0       0       0       0       0       0       0
       0       0       0       0       0       0       0       0       0       0
       0       0       0       0       0       0       0       0       0       0
       0       0       0       0       0       0       0       0       0       0
       0       0       0       0       0       0       0       0       0       0
       0       0       0       0       0       0       0       0       0       0
       0       0       0       0       0       0       0       0       0       0
       0       0       0       0       0       0       0       0       0       0
       0       0       0       0       0       0       0       0       0       0
       0       0       0       0       0       0       0       0       0       0
       0       0       0       0       0       0       0       0       0       0
       0       0       0       0       0       0       0       0       0       0
       0       0       0       0       0       0       0       0       0       0
       0       0       0       0       0       0       0       0       0       0
       0       0       0       0       0       0       0       0       0       0
       0       0       0       0       0       0       0       0       0       0
       0       0       0       0       0       0       0       0       0       0
       0       0       0       0       0       0       0       0       0       0
       0       0       0       0       0       0       0       0       0       0
       0       0       0       0       0       0       0       0       0       0
       0       0       0       0       0       0       0       0       0       0
       0       0       0       0       0       0       0       0       0       0
       0       0       0       0       0       0       0       0       0       0
       0       0       0       0       0       0       0       0       0       0
       0       0       0       0       0       0       0       0       0       0
       0       0       0       0       0       0       0       0       0       0
       0       0       0       0       0       0       0       0       0       0
       0       0       0       0       0       0       0       0       0       0
       0       0       0       0       0       0       0       0       0       0
       0       0       0       0       0       0       0       0       0       0
       0       0       0       0       0       0       0       0       0       0
       0       0       0       0       0       0       0       0       0       0
       0       0       0       0       0       0       0       0       0       0
       0       0       0       0       0       0       0       0       0       0
       0       0       0       0       0       0       0       0       0       0
       0       0       0       0       0       0       0       0       0       0
       0       0       0       0       0       0       0       0       0       0
       0       0       0       0       0       0       0       0       0       0
       0       0       0       0       0       0       0       0       0       0
       0       0       0       0       0       0       0       0       0       0
       0       0       0       0       0       0       0       0       0       0
       0       0       0       0       0       0       0       0       0       0
       0       0       0       0       0       0       0       0       0       0
       0       0       0       0       0       0       0       0       0       0
       0       0       0       0       0       0       0       0       0       0
       0       0       0       0       0       0       0       0       0       0
       0       0       0       0       0       0       0       0       0       0
       0       0       0       0       0       0       0       0       0       0
       0       0       0       0       0       0       0       0       0       0
       0       0       0       0       0       0       0       0       0       0
       0       0       0       0       0       0       0       0       0       0
       0       0       0       0       0       0       0       0       0       0
       0       0       0       0       0       0       0       0       0       0
       0       0       0       0       0       0       0       0       0       0
       0       0       0       0       0       0       0       0       0       0
       0       0       0       0       0       0       0       0       0       0
       0       0       0       0       0       0       0       0       0       0
       0       0       0       0       0       0       0       0       0       0
       0       0       0       0       0       0       0       0       0       0
       0       0       0       0       0       0       0       0       0       0
       0       0       0       0       0       0       0       0       0       0
       0       0       0       0       0       0       0       0       0       0
       0       0       0       0       0       0       0       0       0       0
       0       0       0       0       0       0       0       0       0       0
       0       0       0       0       0       0       0       0       0       0
       0       0       0       0       0       0       0       0       0       0
       0       0       0       0       0       0       0       0       0       0
       0       0       0       0       0       0       0       0       0       0
       0       0       0       0       0       0       0       0       0       0
       0       0       0       0       0       0       0       0       0       0
       0       0       0       0       0       0       0       0       0       0
       0       0       0       0       0       0       0       0       0       0
       0       0       0       0       0       0       0       0       0       0
       0       0       0       0       0       0       0       0       0       0
       0       0       0       0       0       0       0       0       0       0
       0       0       0       0       0       0       0       0       0       0
       0       0       0       0       0       0       0       0       0       0
       0       0       0       0       0       0       0       0       0       0
       0       0       0       0       0       0       0       0       0       0
       0       0       0       0       0       0       0       0       0       0
       0       0       0       0       0       0       0       0       0       0
       0       0       0       0       0       0       0       0       0       0
       0       0       0       0       0       0       0       0       0       0
       0       0       0       0       0       0       0       0       0       0
       0       0       0       0       0       0       0       0       0       0
       0       0       0       0       0       0       0       0       0       0
       0       0       0       0       0       0       0       0       0       0
       0       0       0       0       0       0       0       0       0       0
       0       0       0       0       0       0       0       0       0       0
       0       0       0       0       0       0       0       0       0       0
       0       0       0       0       0       0       0       0       0       0
       0       0       0       0       0       0       0       0       0       0
       0       0       0       0       0       0       0       0       0       0
       0       0       0       0       0       0       0       0       0       0
       0       0       0       0       0       0       0       0       0       0
       0       0       0       0       0       0       0       0       0       0
       0       0       0       0       0       0       0       0       0       0
       0       0       0       0       0       0       0       0       0       0
       0       0       0       0       0       0       0       0       0       0
       0       0       0       0       0       0       0       0       0       0
       0       0       0       0       0       0       0       0       0       0
       0       0       0       0       0       0       0       0       0       0
       0       0       0       0       0       0       0       0       0       0
       0       0       0       0       0       0       0       0       0       0
       0       0       0       0       0       0       0       0       0       0
       0       0       0       0       0       0       0       0       0       0
       0       0       0       0       0       0       0       0       0       0
       0       0       0       0       0       0       0       0       0       0
       0       0       0       0       0       0       0       0       0       0
       0       0       0       0       0       0       0       0       0       0
       0       0       0       0       0       0       0       0       0       0
       0       0       0       0       0       0       0       0       0       0
       0       0       0       0       0       0       0       0       0       0
       0       0       0       0       0       0       0       0       0       0
       0       0       0       0       0       0       0       0       0       0
       0       0       0       0       0       0       0       0       0       0
       0       0       0       0       0       0       0       0       0       0
       0       0       0       0       0       0       0       0       0       0
       0       0       0       0       0       0       0       0       0       0
       0       0       0       0       0       0       0       0       0       0
       0       0       0       0       0       0       0       0       0       0
       0       0       0       0       0       0       0       0       0       0
       0       0       0       0       0       0       0       0       0       0
       0       0       0       0       0       0       0       0       0       0
       0       0       0       0       0       0       0       0       0       0
       0       0       0       0       0       0       0       0       0       0
       0       0       0       0       0       0       0       0       0       0
       0       0       0       0       0       0       0       0       0       0
       0       0       0       0       0       0       0       0       0       0
       0       0       0       0       0       0       0       0       0       0
       0       0       0       0       0       0       0       0       0       0
       0       0       0       0       0       0       0       0       0       0
       0       0       0       0       0       0       0       0       0       0
       0       0       0       0       0       0       0       0       0       0
       0       0       0       0       0       0       0       0       0       0
       0       0       0       0       0       0       0       0       0       0
       0       0       0       0       0       0       0       0       0       0
       0       0       0       0       0       0       0       0       0       0
       0       0       0       0       0       0       0       0       0       0
       0       0       0       0       0       0       0       0       0       0
       0       0       0       0       0       0       0       0       0       0
       0       0       0       0       0       0       0       0       0       0
       0       0       0       0       0       0       0       0       0       0
       0       0       0       0       0       0       0       0       0       0
       0       0       0       0       0       0       0       0       0       0
       0       0       0       0       0       0       0       0       0       0
       0       0       0       0       0       0       0       0       0       0
       0       0       0       0       0       0       0       0       0       0
       0       0       0       0       0       0       0       0       0       0
       0       0       0       0       0       0       0       0       0       0
       0       0       0       0       0       0       0       0       0       0
       0       0       0       0       0       0       0       0       0       0
       0       0       0       0       0       0       0       0       0       0
       0       0       0       0       0       0       0       0       0       0
       0       0       0       0       0       0       0       0       0       0
       0       0       0       0       0       0       0       0       0       0
       0       0       0       0       0       0       0       0       0       0
       0       0       0       0       0       0       0       0       0       0
       0       0       0       0       0       0       0       0       0       0
       0       0       0       0       0       0       0       0       0       0
       0       0       0       0       0       0       0       0       0       0
       0       0       0       0       0       0       0       0       0       0
       0       0       0       0       0       0       0       0       0       0
       0       0       0       0       0       0       0       0       0       0
       0       0       0       0       0       0       0       0       0       0
       0       0       0       0       0       0       0       0       0       0
       0       0       0       0       0       0       0       0       0       0
       0       0       0       0       0       0       0       0       0       0
       0       0       0       0       0       0       0       0       0       0
       0       0       0       0       0       0       0       0       0       0
       0       0       0       0       0       0       0       0       0       0
       0       0       0       0       0       0       0       0       0       0
       0       0       0       0       0       0       0       0       0       0
       0       0       0       0       0       0       0       0       0       0
       0       0       0       0       0       0       0       0       0       0
       0       0       0       0       0       0       0       0       0       0
       0       0       0       0       0       0       0       0       0       0
       0       0       0       0       0       0       0       0       0       0
       0       0       0       0       0       0       0       0       0       0
       0       0       0       0       0       0       0       0       0       0
       0       0       0       0       0       0       0       0       0       0
       0       0       0       0       0       0       0       0       0       0
       0       0       0       0       0       0       0       0       0       0
       0       0       0       0       0       0       0       0       0       0
       0       0       0       0       0       0       0       0       0       0
       0       0       0       0       0       0       0       0       0       0
       0       0       0       0       0       0       0       0       0       0
       0       0       0       0       0       0       0       0       0       0
       0       0       0       0       0       0       0       0       0       0
       0       0       0       0       0       0       0       0       0       0
       0       0       0       0       0       0       0       0       0       0
       0       0       0       0       0       0       0       0       0       0
       0       0       0       0       0       0       0       0       0       0
       0       0       0       0       0       0       0       0       0       0
       0       0       0       0       0       0       0       0       0       0
       0       0       0       0       0       0       0       0       0       0
       0       0       0       0       0       0       0       0       0       0
       0       0       0       0       0       0       0       0       0       0
       0       0       0       0       0       0       0       0       0       0
       0       0       0       0       0       0       0       0       0       0
       0       0       0       0       0       0       0       0       0       0
       0       0       0       0       0       0       0       0       0       0
       0       0       0       0       0       0       0       0       0       0
       0       0       0       0       0       0       0       0       0       0
       0       0       0       0       0       0       0       0       0       0
       0       0       0       0       0       0       0       0       0       0
       0       0       0       0       0       0       0       0       0       0
       0       0       0       0       0       0       0       0       0       0
       0       0       0       0       0       0       0       0       0       0
       0       0       0       0       0       0       0       0       0       0
       0       0       0       0       0       0       0       0       0       0
       0       0       0       0       0       0       0       0       0       0
       0       0       0       0       0       0       0       0       0       0
       0       0       0       0       0       0       0       0       0       0
       0       0       0       0       0       0       0       0       0       0
       0       0       0       0       0       0       0       0       0       0
       0       0       0       0       0       0       0       0       0       0
       0       0       0       0       0       0       0       0       0       0
       0       0       0       0       0       0       0       0       0       0
       0       0       0       0       0       0       0       0       0       0
       0       0       0       0       0       0       0       0       0       0
       0       0       0       0       0       0       0       0       0       0
       0       0       0       0       0       0       0       0       0       0
       0       0       0       0       0       0       0       0       0       0
       0       0       0       0       0       0       0       0       0       0
       0       0       0       0       0       0       0       0       0       0
       0       0       0       0       0       0       0       0       0       0
       0       0       0       0       0       0       0       0       0       0
       0       0       0       0       0       0       0       0       0       0
       0       0       0       0       0       0       0       0       0       0
       0       0       0       0       0       0       0       0       0       0
       0       0       0       0       0       0       0       0       0       0
       0       0       0       0       0       0       0       0       0       0
       0       0       0       0       0       0       0       0       0       0
       0       0       0       0       0       0       0       0       0       0
       0       0       0       0       0       0       0       0       0       0
       0       0       0       0       0       0       0       0       0       0
       0       0       0       0       0       0       0       0       0       0
       0       0       0       0       0       0       0       0       0       0
       0       0       0       0       0       0       0       0       0       0
       0       0       0       0       0       0       0       0       0       0
       0       0       0       0       0       0       0       0       0       0
       0       0       0       0       0       0       0       0       0       0
       0       0       0       0       0       0       0       0       0       0
       0       0       0       0       0       0       0       0       0       0
       0       0       0       0       0       0       0       0       0       0
       0       0       0       0       0       0       0       0       0       0
       0       0       0       0       0       0       0       0       0       0
       0       0       0       0       0       0       0       0       0       0
       0       0       0       0       0       0       0       0       0       0
       0       0       0       0       0       0       0       0       0       0
       0       0       0       0       0       0       0       0       0       0
       0       0       0       0       0       0       0       0       0       0
       0       0       0       0       0       0       0       0       0       0
       0       0       0       0       0       0       0       0       0       0
       0       0       0       0       0       0       0       0       0       0
       0       0       0       0       0       0       0       0       0       0
       0       0       0       0       0       0       0       0       0       0
       0       0       0       0       0       0       0       0       0       0
       0       0       0       0       0       0       0       0       0       0
       0       0       0       0       0       0       0       0       0       0
       0       0       0       0       0       0       0       0       0       0
       0       0       0       0       0       0       0       0       0       0
       0       0       0       0       0       0       0       0       0       0
       0       0       0       0       0       0       0       0       0       0
       0       0       0       0       0       0       0       0       0       0
       0       0       0       0       0       0       0       0       0       0
       0       0       0       0       0       0       0       0       0       0
       0       0       0       0       0       0       0       0       0       0
       0       0       0       0       0       0       0       0       0       0
       0       0       0       0       0       0       0       0       0       0
       0       0       0       0       0       0       0       0       0       0
       0       0       0       0       0       0       0       0       0       0
       0       0       0       0       0       0       0       0       0       0
       0       0       0       0       0       0       0       0       0       0
       0       0       0       0       0       0       0       0       0       0
       0       0       0       0       0       0       0       0       0       0
       0       0       0       0       0       0       0       0       0       0
       0       0       0       0       0       0       0       0       0       0
       0       0       0       0       0       0       0       0       0       0
       0       0       0       0       0       0       0       0       0       0
       0       0       0       0       0       0       0       0       0       0
       0       0       0       0       0       0       0       0       0       0
       0       0       0       0       0       0       0       0       0       0
       0       0       0       0       0       0       0       0       0       0
       0       0       0       0       0       0       0       0       0       0
       0       0       0       0       0       0       0       0       0       0
       0       0       0       0       0       0       0       0       0       0
       0       0       0       0       0       0       0       0       0       0
       0       0       0       0       0       0       0       0       0       0
       0       0       0       0       0       0       0       0       0       0
       0       0       0       0       0       0       0       0       0       0
       0       0       0       0       0       0       0       0       0       0
       0       0       0       0       0       0       0       0       0       0
       0       0       0       0       0       0       0       0       0       0
       0       0       0       0       0       0       0       0       0       0
       0       0       0       0       0       0       0       0       0       0
       0       0       0       0       0       0       0       0       0       0
       0       0       0       0       0       0       0       0       0       0
       0       0       0       0       0       0       0       0       0       0
       0       0       0       0       0       0       0       0       0       0
       0       0       0       0       0       0       0       0       0       0
       0       0       0       0       0       0       0       0       0       0
       0       0       0       0       0       0       0       0       0       0
       0       0       0       0       0       0       0       0       0       0
       0       0       0       0       0       0       0       0       0       0
       0       0       0       0       0       0       0       0       0       0
       0       0       0       0       0       0       0       0       0       0
       0       0       0       0       0       0       0       0       0       0
       0       0       0       0       0       0       0       0       0       0
       0       0       0       0       0       0       0       0       0       0
       0       0       0       0       0       0       0       0       0       0
       0       0       0       0       0       0       0       0       0       0
       0       0       0       0       0       0       0       0       0       0
       0       0       0       0       0       0       0       0       0       0
       0       0       0       0       0       0       0       0       0       0
       0       0       0       0       0       0       0       0       0       0
       0       0       0       0       0       0       0       0       0       0
       0       0       0       0       0       0       0       0       0       0
       0       0       0       0       0       0       0       0       0       0
       0       0       0       0       0       0       0       0       0       0
       0       0       0       0       0       0       0       0       0       0
       0       0       0       0       0       0       0       0       0       0
       0       0       0       0       0       0       0       0       0       0
       0       0       0       0       0       0       0       0       0       0
       0       0       0       0       0       0       0       0       0       0
       0       0       0       0       0       0       0       0       0       0
       0       0       0       0       0       0       0       0       0       0
       0       0       0       0       0       0       0       0       0       0
       0       0       0       0       0       0       0       0       0       0
       0       0       0       0       0       0       0       0       0       0
       0       0       0       0       0       0       0       0       0       0
       0       0       0       0       0       0       0       0       0       0
       0       0       0       0       0       0       0       0       0       0
       0       0       0       0       0       0       0       0       0       0
       0       0       0       0       0       0       0       0       0       0
       0       0       0       0       0       0       0       0       0       0
       0       0       0       0       0       0       0       0       0       0
       0       0       0       0       0       0       0       0       0       0
       0       0       0       0       0       0       0       0       0       0
       0       0       0       0       0       0       0       0       0       0
       0       0       0       0       0       0       0       0       0       0
       0       0       0       0       0       0       0       0       0       0
       0       0       0       0       0       0       0       0       0       0
       0       0       0       0       0       0       0       0       0       0
       0       0       0       0       0       0       0       0       0       0
       0       0       0       0       0       0       0       0       0       0
       0       0       0       0       0       0       0       0       0       0
       0       0       0       0       0       0       0       0       0       0
       0       0       0       0       0       0       0       0       0       0
       0       0       0       0       0       0       0       0       0       0
       0       0       0       0       0       0       0       0       0       0
       0       0       0       0       0       0       0       0       0       0
       0       0       0       0       0       0       0       0       0       0
       0       0       0       0       0       0       0       0       0       0
       0       0       0       0       0       0       0       0       0       0
       0       0       0       0       0       0       0       0       0       0
       0       0       0       0       0       0       0       0       0       0
       0       0       0       0       0       0       0       0       0       0
       0       0       0       0       0       0       0       0       0       0
       0       0       0       0       0       0       0       0       0       0
       0       0       0       0       0       0       0       0       0       0
       0       0       0       0       0       0       0       0       0       0
       0       0       0       0       0       0       0       0       0       0
       0       0       0       0       0       0       0       0       0       0
       0       0       0       0       0       0       0       0       0       0
       0       0       0       0       0       0       0       0       0       0
       0       0       0       0       0       0       0       0       0       0
       0       0       0       0       0       0       0       0       0       0
       0       0       0       0       0       0       0       0       0       0
       0       0       0       0       0       0       0       0       0       0
       0       0       0       0       0       0       0       0       0       0
       0       0       0       0       0       0       0       0       0       0
       0       0       0       0       0       0       0       0       0       0
       0       0       0       0       0       0       0       0       0       0
       0       0       0       0       0       0       0       0       0       0
       0       0       0       0       0       0       0       0       0       0
       0       0       0       0       0       0       0       0       0       0
       0       0       0       0       0       0       0       0       0       0
       0       0       0       0       0       0       0       0       0       0
       0       0       0       0       0       0       0       0       0       0
       0       0       0       0       0       0       0       0       0       0
       0       0       0       0       0       0       0       0       0       0
       0       0       0       0       0       0       0       0       0       0
       0       0       0       0       0       0       0       0       0       0
       0       0       0       0       0       0       0       0       0       0
       0       0       0       0       0       0       0       0       0       0
       0       0       0       0       0       0       0       0       0       0
       0       0       0       0       0       0       0       0       0       0
       0       0       0       0       0       0       0       0       0       0
       0       0       0       0       0       0       0       0       0       0
       0       0       0       0       0       0       0       0       0       0
       0       0       0       0       0       0       0       0       0       0
       0       0       0       0       0       0       0       0       0       0
       0       0       0       0       0       0       0       0       0       0
       0       0       0       0       0       0       0       0       0       0
       0       0       0       0       0       0       0       0       0       0
       0       0       0       0       0       0       0       0       0       0
       0       0       0       0       0       0       0       0       0       0
       0       0       0       0       0       0       0       0       0       0
       0       0       0       0       0       0       0       0       0       0
       0       0       0       0       0       0       0       0       0       0
       0       0       0       0       0       0       0       0       0       0
       0       0       0       0       0       0       0       0       0       0
       0       0       0       0       0       0       0       0       0       0
       0       0       0       0       0       0       0       0       0       0
       0       0       0       0       0       0       0       0       0       0
       0       0       0       0       0       0       0       0       0       0
       0       0       0       0       0       0       0       0       0       0
       0       0       0       0       0       0       0       0       0       0
       0       0       0       0       0       0       0       0       0       0
       0       0       0       0       0       0       0       0       0       0
       0       0       0       0       0       0       0       0       0       0
       0       0       0       0       0       0       0       0       0       0
       0       0       0       0       0       0       0       0       0       0
       0       0       0       0       0       0       0       0       0       0
       0       0       0       0       0       0       0       0       0       0
       0       0       0       0       0       0       0       0       0       0
       0       0       0       0       0       0       0       0       0       0
       0       0       0       0       0       0       0       0       0       0
       0       0       0       0       0       0       0       0       0       0
       0       0       0       0       0       0       0       0       0       0
       0       0       0       0       0       0       0       0       0       0
       0       0       0       0       0       0       0       0       0       0
       0       0       0       0       0       0       0       0       0       0
       0       0       0       0       0       0       0       0       0       0
       0       0       0       0       0       0       0       0       0       0
       0       0       0       0       0       0       0       0       0       0
       0       0       0       0       0       0       0       0       0       0
       0       0       0       0       0       0       0       0       0       0
       0       0       0       0       0       0       0       0       0       0
       0       0       0       0       0       0       0       0       0       0
       0       0       0       0       0       0       0       0       0       0
       0       0       0       0       0       0       0       0       0       0
       0       0       0       0       0       0       0       0       0       0
       0       0       0       0       0       0       0       0       0       0
       0       0       0       0       0       0       0       0       0       0
       0       0       0       0       0       0       0       0       0       0
       0       0       0       0       0       0       0       0       0       0
       0       0       0       0       0       0       0       0       0       0
       0       0       0       0       0       0       0       0       0       0
       0       0       0       0       0       0       0       0       0       0
       0       0       0       0       0       0       0       0       0       0
       0       0       0       0       0       0       0       0       0       0
       0       0       0       0       0       0       0       0       0       0
       0       0       0       0       0       0       0       0       0       0
       0       0       0       0       0       0       0       0       0       0
       0       0       0       0       0       0       0       0       0       0
       0       0       0       0       0       0       0       0       0       0
       0       0       0       0       0       0       0       0       0       0
       0       0       0       0       0       0       0       0       0       0
       0       0       0       0       0       0       0       0       0       0
       0       0       0       0       0       0       0       0       0       0
       0       0       0       0       0       0       0       0       0       0
       0       0       0       0       0       0       0       0       0       0
       0       0       0       0       0       0       0       0       0       0
       0       0       0       0       0       0       0       0       0       0
       0       0       0       0       0       0       0       0       0       0
       0       0       0       0       0       0       0       0       0       0
       0       0       0       0       0       0       0       0       0       0
       0       0       0       0       0       0       0       0       0       0
       0       0       0       0       0       0       0       0       0       0
       0       0       0       0       0       0       0       0       0       0
       0       0       0       0       0       0       0       0       0       0
       0       0       0       0       0       0       0       0       0       0
       0       0       0       0       0       0       0       0       0       0
       0       0       0       0       0       0       0       0       0       0
       0       0       0       0       0       0       0       0       0       0
       0       0       0       0       0       0       0       0       0       0
       0       0       0       0       0       0       0       0       0       0
       0       0       0       0       0       0       0       0       0       0
       0       0       0       0       0       0       0       0       0       0
       0       0       0       0       0       0       0       0       0       0
       0       0       0       0       0       0       0       0       0       0
       0       0       0       0       0       0       0       0       0       0
       0       0       0       0       0       0       0       0       0       0
       0       0       0       0       0       0       0       0       0       0
       0       0       0       0       0       0       0       0       0       0
       0       0       0       0       0       0       0       0       0       0
       0       0       0       0       0       0       0       0       0       0
       0       0       0       0       0       0       0       0       0       0
       0       0       0       0       0       0       0       0       0       0
       0       0       0       0       0       0       0       0       0       0
       0       0       0       0       0       0       0       0       0       0
       0       0       0       0       0       0       0       0       0       0
       0       0       0       0       0       0       0       0       0       0
       0       0       0       0       0       0       0       0       0       0
       0       0       0       0       0       0       0       0       0       0
       0       0       0       0       0       0       0       0       0       0
       0       0       0       0       0       0       0       0       0       0
       0       0       0       0       0       0       0       0       0       0
       0       0       0       0       0       0       0       0       0       0
       0       0       0       0       0       0       0       0       0       0
       0       0       0       0       0       0       0       0       0       0
       0       0       0       0       0       0       0       0       0       0
       0       0       0       0       0       0       0       0       0       0
       0       0       0       0       0       0       0       0       0       0
       0       0       0       0       0       0       0       0       0       0
       0       0       0       0       0       0       0       0       0       0
       0       0       0       0       0       0       0       0       0       0
       0       0       0       0       0       0       0       0       0       0
       0       0       0       0       0       0       0       0       0       0
       0       0       0       0       0       0       0       0       0       0
       0       0       0       0       0       0       0       0       0       0
       0       0       0       0       0       0       0       0       0       0
       0       0       0       0       0       0       0       0       0       0
       0       0       0       0       0       0       0       0       0       0
       0       0       0       0       0       0       0       0       0       0
       0       0       0       0       0       0       0       0       0       0
       0       0       0       0       0       0       0       0       0       0
       0       0       0       0       0       0       0       0       0       0
       0       0       0       0       0       0       0       0       0       0
       0       0       0       0       0       0       0       0       0       0
       0       0       0       0       0       0       0       0       0       0
       0       0       0       0       0       0       0       0       0       0
       0       0       0       0       0       0       0       0       0       0
       0       0       0       0       0       0       0       0       0       0
       0       0       0       0       0       0       0       0       0       0
       0       0       0       0       0       0       0       0       0       0
       0       0       0       0       0       0       0       0       0       0
       0       0       0       0       0       0       0       0       0       0
       0       0       0       0       0       0       0       0       0       0
       0       0       0       0       0       0       0       0       0       0
       0       0       0       0       0       0       0       0       0       0
       0       0       0       0       0       0       0       0       0       0
       0       0       0       0       0       0       0       0       0       0
       0       0       0       0       0       0       0       0       0       0
       0       0       0       0       0       0       0       0       0       0
       0       0       0       0       0       0       0       0       0       0
       0       0       0       0       0       0       0       0       0       0
       0       0       0       0       0       0       0       0       0       0
       0       0       0       0       0       0       0       0       0       0
       0       0       0       0       0       0       0       0       0       0
       0       0       0       0       0       0       0       0       0       0
       0       0       0       0       0       0       0       0       0       0
       0       0       0       0       0       0       0       0       0       0
       0       0       0       0       0       0       0       0       0       0
       0       0       0       0       0       0       0       0       0       0
       0       0       0       0       0       0       0       0       0       0
       0       0       0       0       0       0       0       0       0       0
       0       0       0       0       0       0       0       0       0       0
       0       0       0       0       0       0       0       0       0       0
       0       0       0       0       0       0       0       0       0       0
       0       0       0       0       0       0       0       0       0       0
       0       0       0       0       0       0       0       0       0       0
       0       0       0       0       0       0       0       0       0       0
       0       0       0       0       0       0       0       0       0       0
       0       0       0       0       0       0       0       0       0       0
       0       0       0       0       0       0       0       0       0       0
       0       0       0       0       0       0       0       0       0       0
       0       0       0       0       0       0       0       0       0       0
       0       0       0       0       0       0       0       0       0       0
       0       0       0       0       0       0       0       0       0       0
       0       0       0       0       0       0       0       0       0       0
       0       0       0       0       0       0       0       0       0       0
       0       0       0       0       0       0       0       0       0       0
       0       0       0       0       0       0       0       0       0       0
       0       0       0       0       0       0       0       0       0       0
       0       0       0       0       0       0       0       0       0       0
       0       0       0       0       0       0       0       0       0       0
       0       0       0       0       0       0       0       0       0       0
       0       0       0       0       0       0       0       0       0       0
       0       0       0       0       0       0       0       0       0       0
       0       0       0       0       0       0       0       0       0       0
       0       0       0       0       0       0       0       0       0       0
       0       0       0       0       0       0       0       0       0       0
       0       0       0       0       0       0       0       0       0       0
       0       0       0       0       0       0       0       0       0       0
       0       0       0       0       0       0       0       0       0       0
       0       0       0       0       0       0       0       0       0       0
       0       0       0       0       0       0       0       0       0       0
       0       0       0       0       0       0       0       0       0
%FLAG RADIUS_SET                                                                
%FORMAT(1a80)                                                                   
modified Bondi radii (mbondi)                                                   
%FLAG RADII                                                                     
%FORMAT(5E16.8)                                                                 
  8.00000000E-01  1.50000000E+00  1.70000000E+00  1.30000000E+00  1.30000000E+00
  1.70000000E+00  1.30000000E+00  1.50000000E+00  1.70000000E+00  1.30000000E+00
  1.55000000E+00  1.70000000E+00  1.30000000E+00  1.55000000E+00  1.70000000E+00
  1.70000000E+00  1.50000000E+00  1.55000000E+00  1.30000000E+00  1.70000000E+00
  1.55000000E+00  1.30000000E+00  1.30000000E+00  1.55000000E+00  1.70000000E+00
  1.70000000E+00  1.30000000E+00  1.70000000E+00  1.30000000E+00  1.50000000E+00
  8.00000000E-01  1.50000000E+00  1.85000000E+00  1.50000000E+00  1.50000000E+00
  1.50000000E+00  1.70000000E+00  1.30000000E+00  1.30000000E+00  1.70000000E+00
  1.30000000E+00  1.50000000E+00  1.70000000E+00  1.30000000E+00  1.55000000E+00
  1.70000000E+00  1.30000000E+00  1.55000000E+00  1.70000000E+00  1.70000000E+00
  1.50000000E+00  1.55000000E+00  1.30000000E+00  1.70000000E+00  1.55000000E+00
  1.30000000E+00  1.30000000E+00  1.55000000E+00  1.70000000E+00  1.70000000E+00
  1.30000000E+00  1.70000000E+00  1.30000000E+00  1.50000000E+00  8.00000000E-01
  1.50000000E+00  1.85000000E+00  1.50000000E+00  1.50000000E+00  1.50000000E+00
  1.70000000E+00  1.30000000E+00  1.30000000E+00  1.70000000E+00  1.30000000E+00
  1.50000000E+00  1.70000000E+00  1.30000000E+00  1.55000000E+00  1.70000000E+00
  1.30000000E+00  1.55000000E+00  1.70000000E+00  1.70000000E+00  1.55000000E+00
  1.30000000E+00  1.30000000E+00  1.55000000E+00  1.70000000E+00  1.30000000E+00
  1.55000000E+00  1.70000000E+00  1.70000000E+00  1.30000000E+00  1.70000000E+00
  1.30000000E+00  1.50000000E+00  8.00000000E-01  1.50000000E+00  1.85000000E+00
  1.50000000E+00  1.50000000E+00  1.50000000E+00  1.70000000E+00  1.30000000E+00
  1.30000000E+00  1.70000000E+00  1.30000000E+00  1.50000000E+00  1.70000000E+00
  1.30000000E+00  1.55000000E+00  1.70000000E+00  1.30000000E+00  1.70000000E+00
  1.30000000E+00  1.70000000E+00  1.50000000E+00  1.55000000E+00  1.30000000E+00
  1.70000000E+00  1.50000000E+00  1.70000000E+00  1.30000000E+00  1.70000000E+00
  1.30000000E+00  1.50000000E+00  8.00000000E-01  1.50000000E+00  1.85000000E+00
  1.50000000E+00  1.50000000E+00  1.50000000E+00  1.70000000E+00  1.30000000E+00
  1.30000000E+00  1.70000000E+00  1.30000000E+00  1.50000000E+00  1.70000000E+00
  1.30000000E+00  1.55000000E+00  1.70000000E+00  1.30000000E+00  1.70000000E+00
  1.30000000E+00  1.70000000E+00  1.55000000E+00  1.30000000E+00  1.30000000E+00
  1.55000000E+00  1.70000000E+00  1.50000000E+00  1.70000000E+00  1.30000000E+00
  1.70000000E+00  1.30000000E+00  1.50000000E+00  8.00000000E-01  1.50000000E+00
  1.85000000E+00  1.50000000E+00  1.50000000E+00  1.50000000E+00  1.70000000E+00
  1.30000000E+00  1.30000000E+00  1.70000000E+00  1.30000000E+00  1.50000000E+00
  1.70000000E+00  1.30000000E+00  1.55000000E+00  1.70000000E+00  1.30000000E+00
  1.55000000E+00  1.70000000E+00  1.70000000E+00  1.55000000E+00  1.30000000E+00
  1.30000000E+00  1.55000000E+00  1.70000000E+00  1.30000000E+00  1.55000000E+00
  1.70000000E+00  1.70000000E+00  1.30000000E+00  1.70000000E+00  1.30000000E+00
  1.50000000E+00  8.00000000E-01  1.50000000E+00  1.85000000E+00  1.50000000E+00
  1.50000000E+00  1.50000000E+00  1.70000000E+00  1.30000000E+00  1.30000000E+00
  1.70000000E+00  1.30000000E+00  1.50000000E+00  1.70000000E+00  1.30000000E+00
  1.55000000E+00  1.70000000E+00  1.30000000E+00  1.70000000E+00  1.30000000E+00
  1.70000000E+00  1.50000000E+00  1.55000000E+00  1.30000000E+00  1.70000000E+00
  1.50000000E+00  1.70000000E+00  1.30000000E+00  1.70000000E+00  1.30000000E+00
  1.50000000E+00  8.00000000E-01  1.50000000E+00  1.85000000E+00  1.50000000E+00
  1.50000000E+00  1.50000000E+00  1.70000000E+00  1.30000000E+00  1.30000000E+00
  1.70000000E+00  1.30000000E+00  1.50000000E+00  1.70000000E+00  1.30000000E+00
  1.55000000E+00  1.70000000E+00  1.30000000E+00  1.55000000E+00  1.70000000E+00
  1.70000000E+00  1.55000000E+00  1.30000000E+00  1.30000000E+00  1.55000000E+00
  1.70000000E+00  1.30000000E+00  1.55000000E+00  1.70000000E+00  1.70000000E+00
  1.30000000E+00  1.70000000E+00  1.30000000E+00  1.50000000E+00  8.00000000E-01
  1.50000000E+00  1.85000000E+00  1.50000000E+00  1.50000000E+00  1.50000000E+00
  1.70000000E+00  1.30000000E+00  1.30000000E+00  1.70000000E+00  1.30000000E+00
  1.50000000E+00  1.70000000E+00  1.30000000E+00  1.55000000E+00  1.70000000E+00
  1.30000000E+00  1.70000000E+00  1.30000000E+00  1.70000000E+00  1.50000000E+00
  1.55000000E+00  1.30000000E+00  1.70000000E+00  1.50000000E+00  1.70000000E+00
  1.30000000E+00  1.70000000E+00  1.30000000E+00  1.50000000E+00  8.00000000E-01
  1.50000000E+00  1.85000000E+00  1.50000000E+00  1.50000000E+00  1.50000000E+00
  1.70000000E+00  1.30000000E+00  1.30000000E+00  1.70000000E+00  1.30000000E+00
  1.50000000E+00  1.70000000E+00  1.30000000E+00  1.55000000E+00  1.70000000E+00
  1.30000000E+00  1.55000000E+00  1.70000000E+00  1.70000000E+00  1.55000000E+00
  1.30000000E+00  1.30000000E+00  1.55000000E+00  1.70000000E+00  1.30000000E+00
  1.55000000E+00  1.70000000E+00  1.70000000E+00  1.30000000E+00  1.70000000E+00
  1.30000000E+00  1.50000000E+00  8.00000000E-01  1.50000000E+00  1.85000000E+00
  1.50000000E+00  1.50000000E+00  1.50000000E+00  1.70000000E+00  1.30000000E+00
  1.30000000E+00  1.70000000E+00  1.30000000E+00  1.50000000E+00  1.70000000E+00
  1.30000000E+00  1.55000000E+00  1.70000000E+00  1.30000000E+00  1.55000000E+00
  1.70000000E+00  1.70000000E+00  1.55000000E+00  1.30000000E+00  1.30000000E+00
  1.55000000E+00  1.70000000E+00  1.30000000E+00  1.55000000E+00  1.70000000E+00
  1.70000000E+00  1.30000000E+00  1.70000000E+00  1.30000000E+00  1.50000000E+00
  8.00000000E-01  1.50000000E+00  1.85000000E+00  1.50000000E+00  1.50000000E+00
  1.50000000E+00  1.70000000E+00  1.30000000E+00  1.30000000E+00  1.70000000E+00
  1.30000000E+00  1.50000000E+00  1.70000000E+00  1.30000000E+00  1.55000000E+00
  1.70000000E+00  1.30000000E+00  1.70000000E+00  1.30000000E+00  1.70000000E+00
  1.50000000E+00  1.55000000E+00  1.30000000E+00  1.70000000E+00  1.50000000E+00
  1.70000000E+00  1.30000000E+00  1.70000000E+00  1.30000000E+00  1.50000000E+00
  8.00000000E-01  1.50000000E+00  1.85000000E+00  1.50000000E+00  1.50000000E+00
  1.50000000E+00  1.70000000E+00  1.30000000E+00  1.30000000E+00  1.70000000E+00
  1.30000000E+00  1.50000000E+00  1.70000000E+00  1.30000000E+00  1.55000000E+00
  1.70000000E+00  1.30000000E+00  1.70000000E+00  1.30000000E+00  1.70000000E+00
  1.55000000E+00  1.30000000E+00  1.30000000E+00  1.55000000E+00  1.70000000E+00
  1.50000000E+00  1.70000000E+00  1.30000000E+00  1.70000000E+00  1.30000000E+00
  1.50000000E+00  8.00000000E-01  1.50000000E+00  1.85000000E+00  1.50000000E+00
  1.50000000E+00  1.50000000E+00  1.70000000E+00  1.30000000E+00  1.30000000E+00
  1.70000000E+00  1.30000000E+00  1.50000000E+00  1.70000000E+00  1.30000000E+00
  1.55000000E+00  1.70000000E+00  1.30000000E+00  1.55000000E+00  1.70000000E+00
  1.70000000E+00  1.50000000E+00  1.55000000E+00  1.30000000E+00  1.70000000E+00
  1.55000000E+00  1.30000000E+00  1.30000000E+00  1.55000000E+00  1.70000000E+00
  1.70000000E+00  1.30000000E+00  1.70000000E+00  1.30000000E+00  1.50000000E+00
  8.00000000E-01  1.50000000E+00  1.85000000E+00  1.50000000E+00  1.50000000E+00
  1.50000000E+00  1.70000000E+00  1.30000000E+00  1.30000000E+00  1.70000000E+00
  1.30000000E+00  1.50000000E+00  1.70000000E+00  1.30000000E+00  1.55000000E+00
  1.70000000E+00  1.30000000E+00  1.70000000E+00  1.30000000E+00  1.70000000E+00
  1.55000000E+00  1.30000000E+00  1.30000000E+00  1.55000000E+00  1.70000000E+00
  1.50000000E+00  1.70000000E+00  1.30000000E+00  1.70000000E+00  1.30000000E+00
  1.50000000E+00  8.00000000E-01  1.50000000E+00  1.85000000E+00  1.50000000E+00
  1.50000000E+00  1.50000000E+00  1.70000000E+00  1.30000000E+00  1.30000000E+00
  1.70000000E+00  1.30000000E+00  1.50000000E+00  1.70000000E+00  1.30000000E+00
  1.55000000E+00  1.70000000E+00  1.30000000E+00  1.55000000E+00  1.70000000E+00
  1.70000000E+00  1.50000000E+00  1.55000000E+00  1.30000000E+00  1.70000000E+00
  1.55000000E+00  1.30000000E+00  1.30000000E+00  1.55000000E+00  1.70000000E+00
  1.70000000E+00  1.30000000E+00  1.70000000E+00  1.30000000E+00  1.50000000E+00
  8.00000000E-01  1.50000000E+00  1.85000000E+00  1.50000000E+00  1.50000000E+00
  1.50000000E+00  1.70000000E+00  1.30000000E+00  1.30000000E+00  1.70000000E+00
  1.30000000E+00  1.50000000E+00  1.70000000E+00  1.30000000E+00  1.55000000E+00
  1.70000000E+00  1.30000000E+00  1.70000000E+00  1.30000000E+00  1.70000000E+00
  1.50000000E+00  1.55000000E+00  1.30000000E+00  1.70000000E+00  1.50000000E+00
  1.70000000E+00  1.30000000E+00  1.70000000E+00  1.30000000E+00  1.50000000E+00
  8.00000000E-01  1.50000000E+00  1.85000000E+00  1.50000000E+00  1.50000000E+00
  1.50000000E+00  1.70000000E+00  1.30000000E+00  1.30000000E+00  1.70000000E+00
  1.30000000E+00  1.50000000E+00  1.70000000E+00  1.30000000E+00  1.55000000E+00
  1.70000000E+00  1.30000000E+00  1.55000000E+00  1.70000000E+00  1.70000000E+00
  1.50000000E+00  1.55000000E+00  1.30000000E+00  1.70000000E+00  1.55000000E+00
  1.30000000E+00  1.30000000E+00  1.55000000E+00  1.70000000E+00  1.70000000E+00
  1.30000000E+00  1.70000000E+00  1.30000000E+00  1.50000000E+00  8.00000000E-01
  1.50000000E+00  1.85000000E+00  1.50000000E+00  1.50000000E+00  1.50000000E+00
  1.70000000E+00  1.30000000E+00  1.30000000E+00  1.70000000E+00  1.30000000E+00
  1.50000000E+00  1.70000000E+00  1.30000000E+00  1.55000000E+00  1.70000000E+00
  1.30000000E+00  1.55000000E+00  1.70000000E+00  1.70000000E+00  1.50000000E+00
  1.55000000E+00  1.30000000E+00  1.70000000E+00  1.55000000E+00  1.30000000E+00
  1.30000000E+00  1.55000000E+00  1.70000000E+00  1.70000000E+00  1.30000000E+00
  1.70000000E+00  1.30000000E+00  1.50000000E+00  8.00000000E-01  1.50000000E+00
  1.85000000E+00  1.50000000E+00  1.50000000E+00  1.50000000E+00  1.70000000E+00
  1.30000000E+00  1.30000000E+00  1.70000000E+00  1.30000000E+00  1.50000000E+00
  1.70000000E+00  1.30000000E+00  1.55000000E+00  1.70000000E+00  1.30000000E+00
  1.55000000E+00  1.70000000E+00  1.70000000E+00  1.55000000E+00  1.30000000E+00
  1.30000000E+00  1.55000000E+00  1.70000000E+00  1.30000000E+00  1.55000000E+00
  1.70000000E+00  1.70000000E+00  1.30000000E+00  1.70000000E+00  1.30000000E+00
  1.50000000E+00  8.00000000E-01  1.50000000E+00  1.85000000E+00  1.50000000E+00
  1.50000000E+00  1.50000000E+00  1.70000000E+00  1.30000000E+00  1.30000000E+00
  1.70000000E+00  1.30000000E+00  1.50000000E+00  1.70000000E+00  1.30000000E+00
  1.55000000E+00  1.70000000E+00  1.30000000E+00  1.70000000E+00  1.30000000E+00
  1.70000000E+00  1.50000000E+00  1.55000000E+00  1.30000000E+00  1.70000000E+00
  1.50000000E+00  1.70000000E+00  1.30000000E+00  1.70000000E+00  1.30000000E+00
  1.50000000E+00  8.00000000E-01  1.50000000E+00  1.85000000E+00  1.50000000E+00
  1.50000000E+00  1.50000000E+00  1.70000000E+00  1.30000000E+00  1.30000000E+00
  1.70000000E+00  1.30000000E+00  1.50000000E+00  1.70000000E+00  1.30000000E+00
  1.55000000E+00  1.70000000E+00  1.30000000E+00  1.55000000E+00  1.70000000E+00
  1.70000000E+00  1.55000000E+00  1.30000000E+00  1.30000000E+00  1.55000000E+00
  1.70000000E+00  1.30000000E+00  1.55000000E+00  1.70000000E+00  1.70000000E+00
  1.30000000E+00  1.70000000E+00  1.30000000E+00  1.50000000E+00  8.00000000E-01
  1.50000000E+00  1.85000000E+00  1.50000000E+00  1.50000000E+00  1.50000000E+00
  1.70000000E+00  1.30000000E+00  1.30000000E+00  1.70000000E+00  1.30000000E+00
  1.50000000E+00  1.70000000E+00  1.30000000E+00  1.55000000E+00  1.70000000E+00
  1.30000000E+00  1.70000000E+00  1.30000000E+00  1.70000000E+00  1.50000000E+00
  1.55000000E+00  1.30000000E+00  1.70000000E+00  1.50000000E+00  1.70000000E+00
  1.30000000E+00  1.70000000E+00  1.30000000E+00  1.50000000E+00  8.00000000E-01
  1.50000000E+00  1.85000000E+00  1.50000000E+00  1.50000000E+00  1.50000000E+00
  1.70000000E+00  1.30000000E+00  1.30000000E+00  1.70000000E+00  1.30000000E+00
  1.50000000E+00  1.70000000E+00  1.30000000E+00  1.55000000E+00  1.70000000E+00
  1.30000000E+00  1.55000000E+00  1.70000000E+00  1.70000000E+00  1.50000000E+00
  1.55000000E+00  1.30000000E+00  1.70000000E+00  1.55000000E+00  1.30000000E+00
  1.30000000E+00  1.55000000E+00  1.70000000E+00  1.70000000E+00  1.30000000E+00
  1.70000000E+00  1.30000000E+00  1.50000000E+00  8.00000000E-01  1.50000000E+00
  1.85000000E+00  1.50000000E+00  1.50000000E+00  1.50000000E+00  1.70000000E+00
  1.30000000E+00  1.30000000E+00  1.70000000E+00  1.30000000E+00  1.50000000E+00
  1.70000000E+00  1.30000000E+00  1.55000000E+00  1.70000000E+00  1.30000000E+00
  1.55000000E+00  1.70000000E+00  1.70000000E+00  1.50000000E+00  1.55000000E+00
  1.30000000E+00  1.70000000E+00  1.55000000E+00  1.30000000E+00  1.30000000E+00
  1.55000000E+00  1.70000000E+00  1.70000000E+00  1.30000000E+00  1.70000000E+00
  1.30000000E+00  1.50000000E+00  8.00000000E-01  1.50000000E+00  1.85000000E+00
  1.50000000E+00  1.50000000E+00  1.50000000E+00  1.70000000E+00  1.30000000E+00
  1.30000000E+00  1.70000000E+00  1.30000000E+00  1.50000000E+00  1.70000000E+00
  1.30000000E+00  1.55000000E+00  1.70000000E+00  1.30000000E+00  1.70000000E+00
  1.30000000E+00  1.70000000E+00  1.55000000E+00  1.30000000E+00  1.30000000E+00
  1.55000000E+00  1.70000000E+00  1.50000000E+00  1.70000000E+00  1.30000000E+00
  1.70000000E+00  1.30000000E+00  1.50000000E+00  8.00000000E-01  1.50000000E+00
  1.85000000E+00  1.50000000E+00  1.50000000E+00  1.50000000E+00  1.70000000E+00
  1.30000000E+00  1.30000000E+00  1.70000000E+00  1.30000000E+00  1.50000000E+00
  1.70000000E+00  1.30000000E+00  1.55000000E+00  1.70000000E+00  1.30000000E+00
  1.55000000E+00  1.70000000E+00  1.70000000E+00  1.55000000E+00  1.30000000E+00
  1.30000000E+00  1.55000000E+00  1.70000000E+00  1.30000000E+00  1.55000000E+00
  1.70000000E+00  1.70000000E+00  1.30000000E+00  1.70000000E+00  1.30000000E+00
  1.50000000E+00  8.00000000E-01  1.50000000E+00  1.85000000E+00  1.50000000E+00
  1.50000000E+00  1.50000000E+00  1.70000000E+00  1.30000000E+00  1.30000000E+00
  1.70000000E+00  1.30000000E+00  1.50000000E+00  1.70000000E+00  1.30000000E+00
  1.55000000E+00  1.70000000E+00  1.30000000E+00  1.70000000E+00  1.30000000E+00
  1.70000000E+00  1.55000000E+00  1.30000000E+00  1.30000000E+00  1.55000000E+00
  1.70000000E+00  1.50000000E+00  1.70000000E+00  1.30000000E+00  1.70000000E+00
  1.30000000E+00  1.50000000E+00  8.00000000E-01  1.50000000E+00  1.85000000E+00
  1.50000000E+00  1.50000000E+00  1.50000000E+00  1.70000000E+00  1.30000000E+00
  1.30000000E+00  1.70000000E+00  1.30000000E+00  1.50000000E+00  1.70000000E+00
  1.30000000E+00  1.55000000E+00  1.70000000E+00  1.30000000E+00  1.55000000E+00
  1.70000000E+00  1.70000000E+00  1.50000000E+00  1.55000000E+00  1.30000000E+00
  1.70000000E+00  1.55000000E+00  1.30000000E+00  1.30000000E+00  1.55000000E+00
  1.70000000E+00  1.70000000E+00  1.30000000E+00  1.70000000E+00  1.30000000E+00
  1.50000000E+00  8.00000000E-01  1.50000000E+00  1.85000000E+00  1.50000000E+00
  1.50000000E+00  1.50000000E+00  1.70000000E+00  1.30000000E+00  1.30000000E+00
  1.70000000E+00  1.30000000E+00  1.50000000E+00  1.70000000E+00  1.30000000E+00
  1.55000000E+00  1.70000000E+00  1.30000000E+00  1.70000000E+00  1.30000000E+00
  1.70000000E+00  1.55000000E+00  1.30000000E+00  1.30000000E+00  1.55000000E+00
  1.70000000E+00  1.50000000E+00  1.70000000E+00  1.30000000E+00  1.70000000E+00
  1.30000000E+00  1.50000000E+00  8.00000000E-01  1.50000000E+00  1.85000000E+00
  1.50000000E+00  1.50000000E+00  1.50000000E+00  1.70000000E+00  1.30000000E+00
  1.30000000E+00  1.70000000E+00  1.30000000E+00  1.50000000E+00  1.70000000E+00
  1.30000000E+00  1.55000000E+00  1.70000000E+00  1.30000000E+00  1.55000000E+00
  1.70000000E+00  1.70000000E+00  1.55000000E+00  1.30000000E+00  1.30000000E+00
  1.55000000E+00  1.70000000E+00  1.30000000E+00  1.55000000E+00  1.70000000E+00
  1.70000000E+00  1.30000000E+00  1.70000000E+00  1.30000000E+00  1.50000000E+00
  8.00000000E-01  1.50000000E+00  1.85000000E+00  1.50000000E+00  1.50000000E+00
  1.50000000E+00  1.70000000E+00  1.30000000E+00  1.30000000E+00  1.70000000E+00
  1.30000000E+00  1.50000000E+00  1.70000000E+00  1.30000000E+00  1.55000000E+00
  1.70000000E+00  1.30000000E+00  1.55000000E+00  1.70000000E+00  1.70000000E+00
  1.55000000E+00  1.30000000E+00  1.30000000E+00  1.55000000E+00  1.70000000E+00
  1.30000000E+00  1.55000000E+00  1.70000000E+00  1.70000000E+00  1.30000000E+00
  1.70000000E+00  1.30000000E+00  1.50000000E+00  8.00000000E-01  1.50000000E+00
  1.85000000E+00  1.50000000E+00  1.50000000E+00  1.50000000E+00  1.70000000E+00
  1.30000000E+00  1.30000000E+00  1.70000000E+00  1.30000000E+00  1.50000000E+00
  1.70000000E+00  1.30000000E+00  1.55000000E+00  1.70000000E+00  1.30000000E+00
  1.55000000E+00  1.70000000E+00  1.70000000E+00  1.50000000E+00  1.55000000E+00
  1.30000000E+00  1.70000000E+00  1.55000000E+00  1.30000000E+00  1.30000000E+00
  1.55000000E+00  1.70000000E+00  1.70000000E+00  1.30000000E+00  1.70000000E+00
  1.30000000E+00  1.50000000E+00  8.00000000E-01  1.50000000E+00  1.85000000E+00
  1.50000000E+00  1.50000000E+00  1.50000000E+00  1.70000000E+00  1.30000000E+00
  1.30000000E+00  1.70000000E+00  1.30000000E+00  1.50000000E+00  1.70000000E+00
  1.30000000E+00  1.55000000E+00  1.70000000E+00  1.30000000E+00  1.70000000E+00
  1.30000000E+00  1.70000000E+00  1.50000000E+00  1.55000000E+00  1.30000000E+00
  1.70000000E+00  1.50000000E+00  1.70000000E+00  1.30000000E+00  1.70000000E+00
  1.30000000E+00  1.50000000E+00  8.00000000E-01  1.50000000E+00  1.85000000E+00
  1.50000000E+00  1.50000000E+00  1.50000000E+00  1.70000000E+00  1.30000000E+00
  1.30000000E+00  1.70000000E+00  1.30000000E+00  1.50000000E+00  1.70000000E+00
  1.30000000E+00  1.55000000E+00  1.70000000E+00  1.30000000E+00  1.70000000E+00
  1.30000000E+00  1.70000000E+00  1.50000000E+00  1.55000000E+00  1.30000000E+00
  1.70000000E+00  1.50000000E+00  1.70000000E+00  1.30000000E+00  1.70000000E+00
  1.30000000E+00  1.50000000E+00  8.00000000E-01  1.50000000E+00  1.85000000E+00
  1.50000000E+00  1.50000000E+00  1.50000000E+00  1.70000000E+00  1.30000000E+00
  1.30000000E+00  1.70000000E+00  1.30000000E+00  1.50000000E+00  1.70000000E+00
  1.30000000E+00  1.55000000E+00  1.70000000E+00  1.30000000E+00  1.70000000E+00
  1.30000000E+00  1.70000000E+00  1.50000000E+00  1.55000000E+00  1.30000000E+00
  1.70000000E+00  1.50000000E+00  1.70000000E+00  1.30000000E+00  1.70000000E+00
  1.30000000E+00  1.50000000E+00  8.00000000E-01  1.50000000E+00  1.85000000E+00
  1.50000000E+00  1.50000000E+00  1.50000000E+00  1.70000000E+00  1.30000000E+00
  1.30000000E+00  1.70000000E+00  1.30000000E+00  1.50000000E+00  1.70000000E+00
  1.30000000E+00  1.55000000E+00  1.70000000E+00  1.30000000E+00  1.70000000E+00
  1.30000000E+00  1.70000000E+00  1.55000000E+00  1.30000000E+00  1.30000000E+00
  1.55000000E+00  1.70000000E+00  1.50000000E+00  1.70000000E+00  1.30000000E+00
  1.70000000E+00  1.30000000E+00  1.50000000E+00  8.00000000E-01  1.50000000E+00
  1.85000000E+00  1.50000000E+00  1.50000000E+00  1.50000000E+00  1.70000000E+00
  1.30000000E+00  1.30000000E+00  1.70000000E+00  1.30000000E+00  1.50000000E+00
  1.70000000E+00  1.30000000E+00  1.55000000E+00  1.70000000E+00  1.30000000E+00
  1.70000000E+00  1.30000000E+00  1.70000000E+00  1.50000000E+00  1.55000000E+00
  1.30000000E+00  1.70000000E+00  1.50000000E+00  1.70000000E+00  1.30000000E+00
  1.70000000E+00  1.30000000E+00  1.50000000E+00  8.00000000E-01  1.50000000E+00
  1.85000000E+00  1.50000000E+00  1.50000000E+00  1.50000000E+00  1.70000000E+00
  1.30000000E+00  1.30000000E+00  1.70000000E+00  1.30000000E+00  1.50000000E+00
  1.70000000E+00  1.30000000E+00  1.55000000E+00  1.70000000E+00  1.30000000E+00
  1.55000000E+00  1.70000000E+00  1.70000000E+00  1.55000000E+00  1.30000000E+00
  1.30000000E+00  1.55000000E+00  1.70000000E+00  1.30000000E+00  1.55000000E+00
  1.70000000E+00  1.70000000E+00  1.30000000E+00  1.70000000E+00  1.30000000E+00
  1.50000000E+00  8.00000000E-01  1.50000000E+00  1.85000000E+00  1.50000000E+00
  1.50000000E+00  1.50000000E+00  1.70000000E+00  1.30000000E+00  1.30000000E+00
  1.70000000E+00  1.30000000E+00  1.50000000E+00  1.70000000E+00  1.30000000E+00
  1.55000000E+00  1.70000000E+00  1.30000000E+00  1.70000000E+00  1.30000000E+00
  1.70000000E+00  1.55000000E+00  1.30000000E+00  1.30000000E+00  1.55000000E+00
  1.70000000E+00  1.50000000E+00  1.70000000E+00  1.30000000E+00  1.70000000E+00
  1.30000000E+00  1.50000000E+00  8.00000000E-01  1.50000000E+00  1.85000000E+00
  1.50000000E+00  1.50000000E+00  1.50000000E+00  1.70000000E+00  1.30000000E+00
  1.30000000E+00  1.70000000E+00  1.30000000E+00  1.50000000E+00  1.70000000E+00
  1.30000000E+00  1.55000000E+00  1.70000000E+00  1.30000000E+00  1.70000000E+00
  1.30000000E+00  1.70000000E+00  1.55000000E+00  1.30000000E+00  1.30000000E+00
  1.55000000E+00  1.70000000E+00  1.50000000E+00  1.70000000E+00  1.30000000E+00
  1.70000000E+00  1.30000000E+00  1.50000000E+00  8.00000000E-01  1.50000000E+00
  1.85000000E+00  1.50000000E+00  1.50000000E+00  1.50000000E+00  1.70000000E+00
  1.30000000E+00  1.30000000E+00  1.70000000E+00  1.30000000E+00  1.50000000E+00
  1.70000000E+00  1.30000000E+00  1.55000000E+00  1.70000000E+00  1.30000000E+00
  1.55000000E+00  1.70000000E+00  1.70000000E+00  1.50000000E+00  1.55000000E+00
  1.30000000E+00  1.70000000E+00  1.55000000E+00  1.30000000E+00  1.30000000E+00
  1.55000000E+00  1.70000000E+00  1.70000000E+00  1.30000000E+00  1.70000000E+00
  1.30000000E+00  1.50000000E+00  8.00000000E-01  1.50000000E+00  1.85000000E+00
  1.50000000E+00  1.50000000E+00  1.50000000E+00  1.70000000E+00  1.30000000E+00
  1.30000000E+00  1.70000000E+00  1.30000000E+00  1.50000000E+00  1.70000000E+00
  1.30000000E+00  1.55000000E+00  1.70000000E+00  1.30000000E+00  1.55000000E+00
  1.70000000E+00  1.70000000E+00  1.50000000E+00  1.55000000E+00  1.30000000E+00
  1.70000000E+00  1.55000000E+00  1.30000000E+00  1.30000000E+00  1.55000000E+00
  1.70000000E+00  1.70000000E+00  1.30000000E+00  1.70000000E+00  1.30000000E+00
  1.50000000E+00  8.00000000E-01  1.50000000E+00  1.85000000E+00  1.50000000E+00
  1.50000000E+00  1.50000000E+00  1.70000000E+00  1.30000000E+00  1.30000000E+00
  1.70000000E+00  1.30000000E+00  1.50000000E+00  1.70000000E+00  1.30000000E+00
  1.55000000E+00  1.70000000E+00  1.30000000E+00  1.55000000E+00  1.70000000E+00
  1.70000000E+00  1.50000000E+00  1.55000000E+00  1.30000000E+00  1.70000000E+00
  1.55000000E+00  1.30000000E+00  1.30000000E+00  1.55000000E+00  1.70000000E+00
  1.70000000E+00  1.30000000E+00  1.70000000E+00  1.30000000E+00  1.50000000E+00
  8.00000000E-01  1.50000000E+00  1.85000000E+00  1.50000000E+00  1.50000000E+00
  1.50000000E+00  1.70000000E+00  1.30000000E+00  1.30000000E+00  1.70000000E+00
  1.30000000E+00  1.50000000E+00  1.70000000E+00  1.30000000E+00  1.55000000E+00
  1.70000000E+00  1.30000000E+00  1.70000000E+00  1.30000000E+00  1.70000000E+00
  1.55000000E+00  1.30000000E+00  1.30000000E+00  1.55000000E+00  1.70000000E+00
  1.50000000E+00  1.70000000E+00  1.30000000E+00  1.70000000E+00  1.30000000E+00
  1.50000000E+00  8.00000000E-01  1.50000000E+00  1.85000000E+00  1.50000000E+00
  1.50000000E+00  1.50000000E+00  1.70000000E+00  1.30000000E+00  1.30000000E+00
  1.70000000E+00  1.30000000E+00  1.50000000E+00  1.70000000E+00  1.30000000E+00
  1.55000000E+00  1.70000000E+00  1.30000000E+00  1.55000000E+00  1.70000000E+00
  1.70000000E+00  1.55000000E+00  1.30000000E+00  1.30000000E+00  1.55000000E+00
  1.70000000E+00  1.30000000E+00  1.55000000E+00  1.70000000E+00  1.70000000E+00
  1.30000000E+00  1.70000000E+00  1.30000000E+00  1.50000000E+00  8.00000000E-01
  1.50000000E+00  1.85000000E+00  1.50000000E+00  1.50000000E+00  1.50000000E+00
  1.70000000E+00  1.30000000E+00  1.30000000E+00  1.70000000E+00  1.30000000E+00
  1.50000000E+00  1.70000000E+00  1.30000000E+00  1.55000000E+00  1.70000000E+00
  1.30000000E+00  1.70000000E+00  1.30000000E+00  1.70000000E+00  1.55000000E+00
  1.30000000E+00  1.30000000E+00  1.55000000E+00  1.70000000E+00  1.50000000E+00
  1.70000000E+00  1.30000000E+00  1.70000000E+00  1.30000000E+00  1.50000000E+00
  8.00000000E-01  1.50000000E+00  1.85000000E+00  1.50000000E+00  1.50000000E+00
  1.50000000E+00  1.70000000E+00  1.30000000E+00  1.30000000E+00  1.70000000E+00
  1.30000000E+00  1.50000000E+00  1.70000000E+00  1.30000000E+00  1.55000000E+00
  1.70000000E+00  1.30000000E+00  1.70000000E+00  1.30000000E+00  1.70000000E+00
  1.55000000E+00  1.30000000E+00  1.30000000E+00  1.55000000E+00  1.70000000E+00
  1.50000000E+00  1.70000000E+00  1.30000000E+00  1.70000000E+00  1.30000000E+00
  1.50000000E+00  8.00000000E-01  1.50000000E+00  1.85000000E+00  1.50000000E+00
  1.50000000E+00  1.50000000E+00  1.70000000E+00  1.30000000E+00  1.30000000E+00
  1.70000000E+00  1.30000000E+00  1.50000000E+00  1.70000000E+00  1.30000000E+00
  1.55000000E+00  1.70000000E+00  1.30000000E+00  1.55000000E+00  1.70000000E+00
  1.70000000E+00  1.50000000E+00  1.55000000E+00  1.30000000E+00  1.70000000E+00
  1.55000000E+00  1.30000000E+00  1.30000000E+00  1.55000000E+00  1.70000000E+00
  1.70000000E+00  1.30000000E+00  1.70000000E+00  1.30000000E+00  1.50000000E+00
  8.00000000E-01  1.50000000E+00  1.85000000E+00  1.50000000E+00  1.50000000E+00
  1.50000000E+00  1.70000000E+00  1.30000000E+00  1.30000000E+00  1.70000000E+00
  1.30000000E+00  1.50000000E+00  1.70000000E+00  1.30000000E+00  1.55000000E+00
  1.70000000E+00  1.30000000E+00  1.70000000E+00  1.30000000E+00  1.70000000E+00
  1.50000000E+00  1.55000000E+00  1.30000000E+00  1.70000000E+00  1.50000000E+00
  1.70000000E+00  1.30000000E+00  1.70000000E+00  1.30000000E+00  1.50000000E+00
  8.00000000E-01  1.50000000E+00  1.85000000E+00  1.50000000E+00  1.50000000E+00
  1.50000000E+00  1.70000000E+00  1.30000000E+00  1.30000000E+00  1.70000000E+00
  1.30000000E+00  1.50000000E+00  1.70000000E+00  1.30000000E+00  1.55000000E+00
  1.70000000E+00  1.30000000E+00  1.55000000E+00  1.70000000E+00  1.70000000E+00
  1.55000000E+00  1.30000000E+00  1.30000000E+00  1.55000000E+00  1.70000000E+00
  1.30000000E+00  1.55000000E+00  1.70000000E+00  1.70000000E+00  1.30000000E+00
  1.70000000E+00  1.30000000E+00  1.50000000E+00  8.00000000E-01  1.50000000E+00
  1.85000000E+00  1.50000000E+00  1.50000000E+00  1.50000000E+00  1.70000000E+00
  1.30000000E+00  1.30000000E+00  1.70000000E+00  1.30000000E+00  1.50000000E+00
  1.70000000E+00  1.30000000E+00  1.55000000E+00  1.70000000E+00  1.30000000E+00
  1.55000000E+00  1.70000000E+00  1.70000000E+00  1.55000000E+00  1.30000000E+00
  1.30000000E+00  1.55000000E+00  1.70000000E+00  1.30000000E+00  1.55000000E+00
  1.70000000E+00  1.70000000E+00  1.30000000E+00  1.70000000E+00  1.30000000E+00
  1.50000000E+00  8.00000000E-01  1.50000000E+00  1.85000000E+00  1.50000000E+00
  1.50000000E+00  1.50000000E+00  1.70000000E+00  1.30000000E+00  1.30000000E+00
  1.70000000E+00  1.30000000E+00  1.50000000E+00  1.70000000E+00  1.30000000E+00
  1.55000000E+00  1.70000000E+00  1.30000000E+00  1.55000000E+00  1.70000000E+00
  1.70000000E+00  1.55000000E+00  1.30000000E+00  1.30000000E+00  1.55000000E+00
  1.70000000E+00  1.30000000E+00  1.55000000E+00  1.70000000E+00  1.70000000E+00
  1.30000000E+00  1.70000000E+00  1.30000000E+00  1.50000000E+00  8.00000000E-01
  1.50000000E+00  1.85000000E+00  1.50000000E+00  1.50000000E+00  1.50000000E+00
  1.70000000E+00  1.30000000E+00  1.30000000E+00  1.70000000E+00  1.30000000E+00
  1.50000000E+00  1.70000000E+00  1.30000000E+00  1.55000000E+00  1.70000000E+00
  1.30000000E+00  1.70000000E+00  1.30000000E+00  1.70000000E+00  1.50000000E+00
  1.55000000E+00  1.30000000E+00  1.70000000E+00  1.50000000E+00  1.70000000E+00
  1.30000000E+00  1.70000000E+00  1.30000000E+00  1.50000000E+00  8.00000000E-01
  1.50000000E+00  1.85000000E+00  1.50000000E+00  1.50000000E+00  1.50000000E+00
  1.70000000E+00  1.30000000E+00  1.30000000E+00  1.70000000E+00  1.30000000E+00
  1.50000000E+00  1.70000000E+00  1.30000000E+00  1.55000000E+00  1.70000000E+00
  1.30000000E+00  1.55000000E+00  1.70000000E+00  1.70000000E+00  1.50000000E+00
  1.55000000E+00  1.30000000E+00  1.70000000E+00  1.55000000E+00  1.30000000E+00
  1.30000000E+00  1.55000000E+00  1.70000000E+00  1.70000000E+00  1.30000000E+00
  1.70000000E+00  1.30000000E+00  1.50000000E+00  8.00000000E-01  1.50000000E+00
  1.85000000E+00  1.50000000E+00  1.50000000E+00  1.50000000E+00  1.70000000E+00
  1.30000000E+00  1.30000000E+00  1.70000000E+00  1.30000000E+00  1.50000000E+00
  1.70000000E+00  1.30000000E+00  1.55000000E+00  1.70000000E+00  1.30000000E+00
  1.70000000E+00  1.30000000E+00  1.70000000E+00  1.50000000E+00  1.55000000E+00
  1.30000000E+00  1.70000000E+00  1.50000000E+00  1.70000000E+00  1.30000000E+00
  1.70000000E+00  1.30000000E+00  1.50000000E+00  8.00000000E-01  1.50000000E+00
  1.85000000E+00  1.50000000E+00  1.50000000E+00  1.50000000E+00  1.70000000E+00
  1.30000000E+00  1.30000000E+00  1.70000000E+00  1.30000000E+00  1.50000000E+00
  1.70000000E+00  1.30000000E+00  1.55000000E+00  1.70000000E+00  1.30000000E+00
  1.70000000E+00  1.30000000E+00  1.70000000E+00  1.55000000E+00  1.30000000E+00
  1.30000000E+00  1.55000000E+00  1.70000000E+00  1.50000000E+00  1.70000000E+00
  1.30000000E+00  1.70000000E+00  1.30000000E+00  1.50000000E+00  8.00000000E-01
  1.50000000E+00  1.85000000E+00  1.50000000E+00  1.50000000E+00  1.50000000E+00
  1.70000000E+00  1.30000000E+00  1.30000000E+00  1.70000000E+00  1.30000000E+00
  1.50000000E+00  1.70000000E+00  1.30000000E+00  1.55000000E+00  1.70000000E+00
  1.30000000E+00  1.70000000E+00  1.30000000E+00  1.70000000E+00  1.55000000E+00
  1.30000000E+00  1.30000000E+00  1.55000000E+00  1.70000000E+00  1.50000000E+00
  1.70000000E+00  1.30000000E+00  1.70000000E+00  1.30000000E+00  1.50000000E+00
  8.00000000E-01  1.50000000E+00  1.85000000E+00  1.50000000E+00  1.50000000E+00
  1.50000000E+00  1.70000000E+00  1.30000000E+00  1.30000000E+00  1.70000000E+00
  1.30000000E+00  1.50000000E+00  1.70000000E+00  1.30000000E+00  1.55000000E+00
  1.70000000E+00  1.30000000E+00  1.55000000E+00  1.70000000E+00  1.70000000E+00
  1.50000000E+00  1.55000000E+00  1.30000000E+00  1.70000000E+00  1.55000000E+00
  1.30000000E+00  1.30000000E+00  1.55000000E+00  1.70000000E+00  1.70000000E+00
  1.30000000E+00  1.70000000E+00  1.30000000E+00  1.50000000E+00  8.00000000E-01
  1.50000000E+00  1.85000000E+00  1.50000000E+00  1.50000000E+00  1.50000000E+00
  1.70000000E+00  1.30000000E+00  1.30000000E+00  1.70000000E+00  1.30000000E+00
  1.50000000E+00  1.70000000E+00  1.30000000E+00  1.55000000E+00  1.70000000E+00
  1.30000000E+00  1.55000000E+00  1.70000000E+00  1.70000000E+00  1.55000000E+00
  1.30000000E+00  1.30000000E+00  1.55000000E+00  1.70000000E+00  1.30000000E+00
  1.55000000E+00  1.70000000E+00  1.70000000E+00  1.30000000E+00  1.70000000E+00
  1.30000000E+00  1.50000000E+00  8.00000000E-01  1.50000000E+00  1.85000000E+00
  1.50000000E+00  1.50000000E+00  1.50000000E+00  1.70000000E+00  1.30000000E+00
  1.30000000E+00  1.70000000E+00  1.30000000E+00  1.50000000E+00  1.70000000E+00
  1.30000000E+00  1.55000000E+00  1.70000000E+00  1.30000000E+00  1.70000000E+00
  1.30000000E+00  1.70000000E+00  1.55000000E+00  1.30000000E+00  1.30000000E+00
  1.55000000E+00  1.70000000E+00  1.50000000E+00  1.70000000E+00  1.30000000E+00
  1.70000000E+00  1.30000000E+00  1.50000000E+00  8.00000000E-01  1.50000000E+00
  1.85000000E+00  1.50000000E+00  1.50000000E+00  1.50000000E+00  1.70000000E+00
  1.30000000E+00  1.30000000E+00  1.70000000E+00  1.30000000E+00  1.50000000E+00
  1.70000000E+00  1.30000000E+00  1.55000000E+00  1.70000000E+00  1.30000000E+00
  1.70000000E+00  1.30000000E+00  1.70000000E+00  1.50000000E+00  1.55000000E+00
  1.30000000E+00  1.70000000E+00  1.50000000E+00  1.70000000E+00  1.30000000E+00
  1.70000000E+00  1.30000000E+00  1.50000000E+00  8.00000000E-01  1.50000000E+00
  1.85000000E+00  1.50000000E+00  1.50000000E+00  1.50000000E+00  1.70000000E+00
  1.30000000E+00  1.30000000E+00  1.70000000E+00  1.30000000E+00  1.50000000E+00
  1.70000000E+00  1.30000000E+00  1.55000000E+00  1.70000000E+00  1.30000000E+00
  1.55000000E+00  1.70000000E+00  1.70000000E+00  1.55000000E+00  1.30000000E+00
  1.30000000E+00  1.55000000E+00  1.70000000E+00  1.30000000E+00  1.55000000E+00
  1.70000000E+00  1.70000000E+00  1.30000000E+00  1.70000000E+00  1.30000000E+00
  1.50000000E+00  8.00000000E-01  1.50000000E+00  1.85000000E+00  1.50000000E+00
  1.50000000E+00  1.50000000E+00  1.70000000E+00  1.30000000E+00  1.30000000E+00
  1.70000000E+00  1.30000000E+00  1.50000000E+00  1.70000000E+00  1.30000000E+00
  1.55000000E+00  1.70000000E+00  1.30000000E+00  1.70000000E+00  1.30000000E+00
  1.70000000E+00  1.50000000E+00  1.55000000E+00  1.30000000E+00  1.70000000E+00
  1.50000000E+00  1.70000000E+00  1.30000000E+00  1.70000000E+00  1.30000000E+00
  1.50000000E+00  8.00000000E-01  1.50000000E+00  1.85000000E+00  1.50000000E+00
  1.50000000E+00  1.50000000E+00  1.70000000E+00  1.30000000E+00  1.30000000E+00
  1.70000000E+00  1.30000000E+00  1.50000000E+00  1.70000000E+00  1.30000000E+00
  1.55000000E+00  1.70000000E+00  1.30000000E+00  1.55000000E+00  1.70000000E+00
  1.70000000E+00  1.50000000E+00  1.55000000E+00  1.30000000E+00  1.70000000E+00
  1.55000000E+00  1.30000000E+00  1.30000000E+00  1.55000000E+00  1.70000000E+00
  1.70000000E+00  1.30000000E+00  1.70000000E+00  1.30000000E+00  1.50000000E+00
  8.00000000E-01  1.50000000E+00  1.85000000E+00  1.50000000E+00  1.50000000E+00
  1.50000000E+00  1.70000000E+00  1.30000000E+00  1.30000000E+00  1.70000000E+00
  1.30000000E+00  1.50000000E+00  1.70000000E+00  1.30000000E+00  1.55000000E+00
  1.70000000E+00  1.30000000E+00  1.55000000E+00  1.70000000E+00  1.70000000E+00
  1.50000000E+00  1.55000000E+00  1.30000000E+00  1.70000000E+00  1.55000000E+00
  1.30000000E+00  1.30000000E+00  1.55000000E+00  1.70000000E+00  1.70000000E+00
  1.30000000E+00  1.70000000E+00  1.30000000E+00  1.50000000E+00  8.00000000E-01
  1.50000000E+00  1.85000000E+00  1.50000000E+00  1.50000000E+00  1.50000000E+00
  1.70000000E+00  1.30000000E+00  1.30000000E+00  1.70000000E+00  1.30000000E+00
  1.50000000E+00  1.70000000E+00  1.30000000E+00  1.55000000E+00  1.70000000E+00
  1.30000000E+00  1.70000000E+00  1.30000000E+00  1.70000000E+00  1.50000000E+00
  1.55000000E+00  1.30000000E+00  1.70000000E+00  1.50000000E+00  1.70000000E+00
  1.30000000E+00  1.70000000E+00  1.30000000E+00  1.50000000E+00  8.00000000E-01
  1.50000000E+00  1.85000000E+00  1.50000000E+00  1.50000000E+00  1.50000000E+00
  1.70000000E+00  1.30000000E+00  1.30000000E+00  1.70000000E+00  1.30000000E+00
  1.50000000E+00  1.70000000E+00  1.30000000E+00  1.55000000E+00  1.70000000E+00
  1.30000000E+00  1.70000000E+00  1.30000000E+00  1.70000000E+00  1.55000000E+00
  1.30000000E+00  1.30000000E+00  1.55000000E+00  1.70000000E+00  1.50000000E+00
  1.70000000E+00  1.30000000E+00  1.70000000E+00  1.30000000E+00  1.50000000E+00
  8.00000000E-01  1.50000000E+00  8.00000000E-01  1.50000000E+00  1.50000000E+00
  1.50000000E+00  1.50000000E+00  1.50000000E+00  1.50000000E+00  1.50000000E+00
  1.50000000E+00  1.50000000E+00  1.50000000E+00  1.50000000E+00  1.50000000E+00
  1.50000000E+00  1.50000000E+00  1.50000000E+00  1.50000000E+00  1.50000000E+00
  1.50000000E+00  1.50000000E+00  1.50000000E+00  1.50000000E+00  1.50000000E+00
  1.50000000E+00  1.50000000E+00  1.50000000E+00  1.50000000E+00  1.50000000E+00
  1.50000000E+00  1.50000000E+00  1.50000000E+00  1.50000000E+00  1.50000000E+00
  1.50000000E+00  1.50000000E+00  1.50000000E+00  1.50000000E+00  1.50000000E+00
  1.50000000E+00  1.50000000E+00  1.50000000E+00  1.50000000E+00  1.50000000E+00
  1.50000000E+00  1.50000000E+00  1.50000000E+00  1.50000000E+00  1.50000000E+00
  1.50000000E+00  1.50000000E+00  1.50000000E+00  1.50000000E+00  1.50000000E+00
  1.50000000E+00  1.50000000E+00  1.50000000E+00  1.50000000E+00  1.50000000E+00
  1.50000000E+00  1.50000000E+00  1.50000000E+00  1.50000000E+00  1.50000000E+00
  1.50000000E+00  1.50000000E+00  1.50000000E+00  1.50000000E+00  1.50000000E+00
  1.50000000E+00  1.70000000E+00  1.50000000E+00  1.70000000E+00  1.50000000E+00
  1.70000000E+00  1.50000000E+00  1.70000000E+00  1.50000000E+00  1.70000000E+00
  1.50000000E+00  1.70000000E+00  1.50000000E+00  1.70000000E+00  1.50000000E+00
  1.70000000E+00  1.50000000E+00  1.70000000E+00  1.50000000E+00  1.70000000E+00
  1.50000000E+00  1.70000000E+00  1.50000000E+00  1.70000000E+00  1.50000000E+00
  1.70000000E+00  1.50000000E+00  1.70000000E+00  1.50000000E+00  1.70000000E+00
  1.50000000E+00  1.70000000E+00  1.50000000E+00  1.70000000E+00  1.50000000E+00
  1.70000000E+00  1.50000000E+00  1.70000000E+00  1.50000000E+00  1.70000000E+00
  1.50000000E+00  1.70000000E+00  1.50000000E+00  1.70000000E+00  1.50000000E+00
  1.70000000E+00  1.50000000E+00  1.70000000E+00  1.50000000E+00  1.70000000E+00
  1.50000000E+00  1.70000000E+00  1.50000000E+00  1.70000000E+00  1.50000000E+00
  1.70000000E+00  1.50000000E+00  1.70000000E+00  1.50000000E+00  1.70000000E+00
  1.50000000E+00  1.70000000E+00  1.50000000E+00  1.70000000E+00  1.50000000E+00
  1.70000000E+00  1.55000000E+00  1.70000000E+00  1.55000000E+00  1.50000000E+00
  1.70000000E+00  1.70000000E+00  1.70000000E+00  1.70000000E+00  1.70000000E+00
  1.70000000E+00  1.70000000E+00  1.55000000E+00  1.70000000E+00  1.70000000E+00
  1.55000000E+00  1.70000000E+00  1.55000000E+00  1.30000000E+00  1.30000000E+00
  1.30000000E+00  1.30000000E+00  1.30000000E+00  1.30000000E+00  1.30000000E+00
  1.30000000E+00  1.30000000E+00  1.30000000E+00  1.30000000E+00  1.50000000E+00
  8.00000000E-01  8.00000000E-01  1.50000000E+00  1.50000000E+00  8.00000000E-01
  8.00000000E-01  1.50000000E+00  1.50000000E+00  8.00000000E-01  8.00000000E-01
  1.50000000E+00  1.50000000E+00  8.00000000E-01  8.00000000E-01  1.50000000E+00
  1.50000000E+00  8.00000000E-01  8.00000000E-01  1.50000000E+00  1.50000000E+00
  8.00000000E-01  8.00000000E-01  1.50000000E+00  1.50000000E+00  8.00000000E-01
  8.00000000E-01  1.50000000E+00  1.50000000E+00  8.00000000E-01  8.00000000E-01
  1.50000000E+00  1.50000000E+00  8.00000000E-01  8.00000000E-01  1.50000000E+00
  1.50000000E+00  8.00000000E-01  8.00000000E-01  1.50000000E+00  1.50000000E+00
  8.00000000E-01  8.00000000E-01  1.50000000E+00  1.50000000E+00  8.00000000E-01
  8.00000000E-01  1.50000000E+00  1.50000000E+00  8.00000000E-01  8.00000000E-01
  1.50000000E+00  1.50000000E+00  8.00000000E-01  8.00000000E-01  1.50000000E+00
  1.50000000E+00  8.00000000E-01  8.00000000E-01  1.50000000E+00  1.50000000E+00
  8.00000000E-01  8.00000000E-01  1.50000000E+00  1.50000000E+00  8.00000000E-01
  8.00000000E-01  1.50000000E+00  1.50000000E+00  8.00000000E-01  8.00000000E-01
  1.50000000E+00  1.50000000E+00  8.00000000E-01  8.00000000E-01  1.50000000E+00
  1.50000000E+00  8.00000000E-01  8.00000000E-01  1.50000000E+00  1.50000000E+00
  8.00000000E-01  8.00000000E-01  1.50000000E+00  1.50000000E+00  8.00000000E-01
  8.00000000E-01  1.50000000E+00  1.50000000E+00  8.00000000E-01  8.00000000E-01
  1.50000000E+00  1.50000000E+00  8.00000000E-01  8.00000000E-01  1.50000000E+00
  1.50000000E+00  8.00000000E-01  8.00000000E-01  1.50000000E+00  1.50000000E+00
  8.00000000E-01  8.00000000E-01  1.50000000E+00  1.50000000E+00  8.00000000E-01
  8.00000000E-01  1.50000000E+00  1.50000000E+00  8.00000000E-01  8.00000000E-01
  1.50000000E+00  1.50000000E+00  8.00000000E-01  8.00000000E-01  1.50000000E+00
  1.50000000E+00  8.00000000E-01  8.00000000E-01  1.50000000E+00  1.50000000E+00
  8.00000000E-01  8.00000000E-01  1.50000000E+00  1.50000000E+00  8.00000000E-01
  8.00000000E-01  1.50000000E+00  1.50000000E+00  8.00000000E-01  8.00000000E-01
  1.50000000E+00  1.50000000E+00  8.00000000E-01  8.00000000E-01  1.50000000E+00
  1.50000000E+00  8.00000000E-01  8.00000000E-01  1.50000000E+00  1.50000000E+00
  8.00000000E-01  8.00000000E-01  1.50000000E+00  1.50000000E+00  8.00000000E-01
  8.00000000E-01  1.50000000E+00  1.50000000E+00  8.00000000E-01  8.00000000E-01
  1.50000000E+00  1.50000000E+00  8.00000000E-01  8.00000000E-01  1.50000000E+00
  1.50000000E+00  8.00000000E-01  8.00000000E-01  1.50000000E+00  1.50000000E+00
  8.00000000E-01  8.00000000E-01  1.50000000E+00  1.50000000E+00  8.00000000E-01
  8.00000000E-01  1.50000000E+00  1.50000000E+00  8.00000000E-01  8.00000000E-01
  1.50000000E+00  1.50000000E+00  8.00000000E-01  8.00000000E-01  1.50000000E+00
  1.50000000E+00  8.00000000E-01  8.00000000E-01  1.50000000E+00  1.50000000E+00
  8.00000000E-01  8.00000000E-01  1.50000000E+00  1.50000000E+00  8.00000000E-01
  8.00000000E-01  1.50000000E+00  1.50000000E+00  8.00000000E-01  8.00000000E-01
  1.50000000E+00  1.50000000E+00  8.00000000E-01  8.00000000E-01  1.50000000E+00
  1.50000000E+00  8.00000000E-01  8.00000000E-01  1.50000000E+00  1.50000000E+00
  8.00000000E-01  8.00000000E-01  1.50000000E+00  1.50000000E+00  8.00000000E-01
  8.00000000E-01  1.50000000E+00  1.50000000E+00  8.00000000E-01  8.00000000E-01
  1.50000000E+00  1.50000000E+00  8.00000000E-01  8.00000000E-01  1.50000000E+00
  1.50000000E+00  8.00000000E-01  8.00000000E-01  1.50000000E+00  1.50000000E+00
  8.00000000E-01  8.00000000E-01  1.50000000E+00  1.50000000E+00  8.00000000E-01
  8.00000000E-01  1.50000000E+00  1.50000000E+00  8.00000000E-01  8.00000000E-01
  1.50000000E+00  1.50000000E+00  8.00000000E-01  8.00000000E-01  1.50000000E+00
  1.50000000E+00  8.00000000E-01  8.00000000E-01  1.50000000E+00  1.50000000E+00
  8.00000000E-01  8.00000000E-01  1.50000000E+00  1.50000000E+00  8.00000000E-01
  8.00000000E-01  1.50000000E+00  1.50000000E+00  8.00000000E-01  8.00000000E-01
  1.50000000E+00  1.50000000E+00  8.00000000E-01  8.00000000E-01  1.50000000E+00
  1.50000000E+00  8.00000000E-01  8.00000000E-01  1.50000000E+00  1.50000000E+00
  8.00000000E-01  8.00000000E-01  1.50000000E+00  1.50000000E+00  8.00000000E-01
  8.00000000E-01  1.50000000E+00  1.50000000E+00  8.00000000E-01  8.00000000E-01
  1.50000000E+00  1.50000000E+00  8.00000000E-01  8.00000000E-01  1.50000000E+00
  1.50000000E+00  8.00000000E-01  8.00000000E-01  1.50000000E+00  1.50000000E+00
  8.00000000E-01  8.00000000E-01  1.50000000E+00  1.50000000E+00  8.00000000E-01
  8.00000000E-01  1.50000000E+00  1.50000000E+00  8.00000000E-01  8.00000000E-01
  1.50000000E+00  1.50000000E+00  8.00000000E-01  8.00000000E-01  1.50000000E+00
  1.50000000E+00  8.00000000E-01  8.00000000E-01  1.50000000E+00  1.50000000E+00
  8.00000000E-01  8.00000000E-01  1.50000000E+00  1.50000000E+00  8.00000000E-01
  8.00000000E-01  1.50000000E+00  1.50000000E+00  8.00000000E-01  8.00000000E-01
  1.50000000E+00  1.50000000E+00  8.00000000E-01  8.00000000E-01  1.50000000E+00
  1.50000000E+00  8.00000000E-01  8.00000000E-01  1.50000000E+00  1.50000000E+00
  8.00000000E-01  8.00000000E-01  1.50000000E+00  1.50000000E+00  8.00000000E-01
  8.00000000E-01  1.50000000E+00  1.50000000E+00  8.00000000E-01  8.00000000E-01
  1.50000000E+00  1.50000000E+00  8.00000000E-01  8.00000000E-01  1.50000000E+00
  1.50000000E+00  8.00000000E-01  8.00000000E-01  1.50000000E+00  1.50000000E+00
  8.00000000E-01  8.00000000E-01  1.50000000E+00  1.50000000E+00  8.00000000E-01
  8.00000000E-01  1.50000000E+00  1.50000000E+00  8.00000000E-01  8.00000000E-01
  1.50000000E+00  1.50000000E+00  8.00000000E-01  8.00000000E-01  1.50000000E+00
  1.50000000E+00  8.00000000E-01  8.00000000E-01  1.50000000E+00  1.50000000E+00
  8.00000000E-01  8.00000000E-01  1.50000000E+00  1.50000000E+00  8.00000000E-01
  8.00000000E-01  1.50000000E+00  1.50000000E+00  8.00000000E-01  8.00000000E-01
  1.50000000E+00  1.50000000E+00  8.00000000E-01  8.00000000E-01  1.50000000E+00
  1.50000000E+00  8.00000000E-01  8.00000000E-01  1.50000000E+00  1.50000000E+00
  8.00000000E-01  8.00000000E-01  1.50000000E+00  1.50000000E+00  8.00000000E-01
  8.00000000E-01  1.50000000E+00  1.50000000E+00  8.00000000E-01  8.00000000E-01
  1.50000000E+00  1.50000000E+00  8.00000000E-01  8.00000000E-01  1.50000000E+00
  1.50000000E+00  8.00000000E-01  8.00000000E-01  1.50000000E+00  1.50000000E+00
  8.00000000E-01  8.00000000E-01  1.50000000E+00  1.50000000E+00  8.00000000E-01
  8.00000000E-01  1.50000000E+00  1.50000000E+00  8.00000000E-01  8.00000000E-01
  1.50000000E+00  1.50000000E+00  8.00000000E-01  8.00000000E-01  1.50000000E+00
  1.50000000E+00  8.00000000E-01  8.00000000E-01  1.50000000E+00  1.50000000E+00
  8.00000000E-01  8.00000000E-01  1.50000000E+00  1.50000000E+00  8.00000000E-01
  8.00000000E-01  1.50000000E+00  1.50000000E+00  8.00000000E-01  8.00000000E-01
  1.50000000E+00  1.50000000E+00  8.00000000E-01  8.00000000E-01  1.50000000E+00
  1.50000000E+00  8.00000000E-01  8.00000000E-01  1.50000000E+00  1.50000000E+00
  8.00000000E-01  8.00000000E-01  1.50000000E+00  1.50000000E+00  8.00000000E-01
  8.00000000E-01  1.50000000E+00  1.50000000E+00  8.00000000E-01  8.00000000E-01
  1.50000000E+00  1.50000000E+00  8.00000000E-01  8.00000000E-01  1.50000000E+00
  1.50000000E+00  8.00000000E-01  8.00000000E-01  1.50000000E+00  1.50000000E+00
  8.00000000E-01  8.00000000E-01  1.50000000E+00  1.50000000E+00  8.00000000E-01
  8.00000000E-01  1.50000000E+00  1.50000000E+00  8.00000000E-01  8.00000000E-01
  1.50000000E+00  1.50000000E+00  8.00000000E-01  8.00000000E-01  1.50000000E+00
  1.50000000E+00  8.00000000E-01  8.00000000E-01  1.50000000E+00  1.50000000E+00
  8.00000000E-01  8.00000000E-01  1.50000000E+00  1.50000000E+00  8.00000000E-01
  8.00000000E-01  1.50000000E+00  1.50000000E+00  8.00000000E-01  8.00000000E-01
  1.50000000E+00  1.50000000E+00  8.00000000E-01  8.00000000E-01  1.50000000E+00
  1.50000000E+00  8.00000000E-01  8.00000000E-01  1.50000000E+00  1.50000000E+00
  8.00000000E-01  8.00000000E-01  1.50000000E+00  1.50000000E+00  8.00000000E-01
  8.00000000E-01  1.50000000E+00  1.50000000E+00  8.00000000E-01  8.00000000E-01
  1.50000000E+00  1.50000000E+00  8.00000000E-01  8.00000000E-01  1.50000000E+00
  1.50000000E+00  8.00000000E-01  8.00000000E-01  1.50000000E+00  1.50000000E+00
  8.00000000E-01  8.00000000E-01  1.50000000E+00  1.50000000E+00  8.00000000E-01
  8.00000000E-01  1.50000000E+00  1.50000000E+00  8.00000000E-01  8.00000000E-01
  1.50000000E+00  1.50000000E+00  8.00000000E-01  8.00000000E-01  1.50000000E+00
  1.50000000E+00  8.00000000E-01  8.00000000E-01  1.50000000E+00  1.50000000E+00
  8.00000000E-01  8.00000000E-01  1.50000000E+00  1.50000000E+00  8.00000000E-01
  8.00000000E-01  1.50000000E+00  1.50000000E+00  8.00000000E-01  8.00000000E-01
  1.50000000E+00  1.50000000E+00  8.00000000E-01  8.00000000E-01  1.50000000E+00
  1.50000000E+00  8.00000000E-01  8.00000000E-01  1.50000000E+00  1.50000000E+00
  8.00000000E-01  8.00000000E-01  1.50000000E+00  1.50000000E+00  8.00000000E-01
  8.00000000E-01  1.50000000E+00  1.50000000E+00  8.00000000E-01  8.00000000E-01
  1.50000000E+00  1.50000000E+00  8.00000000E-01  8.00000000E-01  1.50000000E+00
  1.50000000E+00  8.00000000E-01  8.00000000E-01  1.50000000E+00  1.50000000E+00
  8.00000000E-01  8.00000000E-01  1.50000000E+00  1.50000000E+00  8.00000000E-01
  8.00000000E-01  1.50000000E+00  1.50000000E+00  8.00000000E-01  8.00000000E-01
  1.50000000E+00  1.50000000E+00  8.00000000E-01  8.00000000E-01  1.50000000E+00
  1.50000000E+00  8.00000000E-01  8.00000000E-01  1.50000000E+00  1.50000000E+00
  8.00000000E-01  8.00000000E-01  1.50000000E+00  1.50000000E+00  8.00000000E-01
  8.00000000E-01  1.50000000E+00  1.50000000E+00  8.00000000E-01  8.00000000E-01
  1.50000000E+00  1.50000000E+00  8.00000000E-01  8.00000000E-01  1.50000000E+00
  1.50000000E+00  8.00000000E-01  8.00000000E-01  1.50000000E+00  1.50000000E+00
  8.00000000E-01  8.00000000E-01  1.50000000E+00  1.50000000E+00  8.00000000E-01
  8.00000000E-01  1.50000000E+00  1.50000000E+00  8.00000000E-01  8.00000000E-01
  1.50000000E+00  1.50000000E+00  8.00000000E-01  8.00000000E-01  1.50000000E+00
  1.50000000E+00  8.00000000E-01  8.00000000E-01  1.50000000E+00  1.50000000E+00
  8.00000000E-01  8.00000000E-01  1.50000000E+00  1.50000000E+00  8.00000000E-01
  8.00000000E-01  1.50000000E+00  1.50000000E+00  8.00000000E-01  8.00000000E-01
  1.50000000E+00  1.50000000E+00  8.00000000E-01  8.00000000E-01  1.50000000E+00
  1.50000000E+00  8.00000000E-01  8.00000000E-01  1.50000000E+00  1.50000000E+00
  8.00000000E-01  8.00000000E-01  1.50000000E+00  1.50000000E+00  8.00000000E-01
  8.00000000E-01  1.50000000E+00  1.50000000E+00  8.00000000E-01  8.00000000E-01
  1.50000000E+00  1.50000000E+00  8.00000000E-01  8.00000000E-01  1.50000000E+00
  1.50000000E+00  8.00000000E-01  8.00000000E-01  1.50000000E+00  1.50000000E+00
  8.00000000E-01  8.00000000E-01  1.50000000E+00  1.50000000E+00  8.00000000E-01
  8.00000000E-01  1.50000000E+00  1.50000000E+00  8.00000000E-01  8.00000000E-01
  1.50000000E+00  1.50000000E+00  8.00000000E-01  8.00000000E-01  1.50000000E+00
  1.50000000E+00  8.00000000E-01  8.00000000E-01  1.50000000E+00  1.50000000E+00
  8.00000000E-01  8.00000000E-01  1.50000000E+00  1.50000000E+00  8.00000000E-01
  8.00000000E-01  1.50000000E+00  1.50000000E+00  8.00000000E-01  8.00000000E-01
  1.50000000E+00  1.50000000E+00  8.00000000E-01  8.00000000E-01  1.50000000E+00
  1.50000000E+00  8.00000000E-01  8.00000000E-01  1.50000000E+00  1.50000000E+00
  8.00000000E-01  8.00000000E-01  1.50000000E+00  1.50000000E+00  8.00000000E-01
  8.00000000E-01  1.50000000E+00  1.50000000E+00  8.00000000E-01  8.00000000E-01
  1.50000000E+00  1.50000000E+00  8.00000000E-01  8.00000000E-01  1.50000000E+00
  1.50000000E+00  8.00000000E-01  8.00000000E-01  1.50000000E+00  1.50000000E+00
  8.00000000E-01  8.00000000E-01  1.50000000E+00  1.50000000E+00  8.00000000E-01
  8.00000000E-01  1.50000000E+00  1.50000000E+00  8.00000000E-01  8.00000000E-01
  1.50000000E+00  1.50000000E+00  8.00000000E-01  8.00000000E-01  1.50000000E+00
  1.50000000E+00  8.00000000E-01  8.00000000E-01  1.50000000E+00  1.50000000E+00
  8.00000000E-01  8.00000000E-01  1.50000000E+00  1.50000000E+00  8.00000000E-01
  8.00000000E-01  1.50000000E+00  1.50000000E+00  8.00000000E-01  8.00000000E-01
  1.50000000E+00  1.50000000E+00  8.00000000E-01  8.00000000E-01  1.50000000E+00
  1.50000000E+00  8.00000000E-01  8.00000000E-01  1.50000000E+00  1.50000000E+00
  8.00000000E-01  8.00000000E-01  1.50000000E+00  1.50000000E+00  8.00000000E-01
  8.00000000E-01  1.50000000E+00  1.50000000E+00  8.00000000E-01  8.00000000E-01
  1.50000000E+00  1.50000000E+00  8.00000000E-01  8.00000000E-01  1.50000000E+00
  1.50000000E+00  8.00000000E-01  8.00000000E-01  1.50000000E+00  1.50000000E+00
  8.00000000E-01  8.00000000E-01  1.50000000E+00  1.50000000E+00  8.00000000E-01
  8.00000000E-01  1.50000000E+00  1.50000000E+00  8.00000000E-01  8.00000000E-01
  1.50000000E+00  1.50000000E+00  8.00000000E-01  8.00000000E-01  1.50000000E+00
  1.50000000E+00  8.00000000E-01  8.00000000E-01  1.50000000E+00  1.50000000E+00
  8.00000000E-01  8.00000000E-01  1.50000000E+00  1.50000000E+00  8.00000000E-01
  8.00000000E-01  1.50000000E+00  1.50000000E+00  8.00000000E-01  8.00000000E-01
  1.50000000E+00  1.50000000E+00  8.00000000E-01  8.00000000E-01  1.50000000E+00
  1.50000000E+00  8.00000000E-01  8.00000000E-01  1.50000000E+00  1.50000000E+00
  8.00000000E-01  8.00000000E-01  1.50000000E+00  1.50000000E+00  8.00000000E-01
  8.00000000E-01  1.50000000E+00  1.50000000E+00  8.00000000E-01  8.00000000E-01
  1.50000000E+00  1.50000000E+00  8.00000000E-01  8.00000000E-01  1.50000000E+00
  1.50000000E+00  8.00000000E-01  8.00000000E-01  1.50000000E+00  1.50000000E+00
  8.00000000E-01  8.00000000E-01  1.50000000E+00  1.50000000E+00  8.00000000E-01
  8.00000000E-01  1.50000000E+00  1.50000000E+00  8.00000000E-01  8.00000000E-01
  1.50000000E+00  1.50000000E+00  8.00000000E-01  8.00000000E-01  1.50000000E+00
  1.50000000E+00  8.00000000E-01  8.00000000E-01  1.50000000E+00  1.50000000E+00
  8.00000000E-01  8.00000000E-01  1.50000000E+00  1.50000000E+00  8.00000000E-01
  8.00000000E-01  1.50000000E+00  1.50000000E+00  8.00000000E-01  8.00000000E-01
  1.50000000E+00  1.50000000E+00  8.00000000E-01  8.00000000E-01  1.50000000E+00
  1.50000000E+00  8.00000000E-01  8.00000000E-01  1.50000000E+00  1.50000000E+00
  8.00000000E-01  8.00000000E-01  1.50000000E+00  1.50000000E+00  8.00000000E-01
  8.00000000E-01  1.50000000E+00  1.50000000E+00  8.00000000E-01  8.00000000E-01
  1.50000000E+00  1.50000000E+00  8.00000000E-01  8.00000000E-01  1.50000000E+00
  1.50000000E+00  8.00000000E-01  8.00000000E-01  1.50000000E+00  1.50000000E+00
  8.00000000E-01  8.00000000E-01  1.50000000E+00  1.50000000E+00  8.00000000E-01
  8.00000000E-01  1.50000000E+00  1.50000000E+00  8.00000000E-01  8.00000000E-01
  1.50000000E+00  1.50000000E+00  8.00000000E-01  8.00000000E-01  1.50000000E+00
  1.50000000E+00  8.00000000E-01  8.00000000E-01  1.50000000E+00  1.50000000E+00
  8.00000000E-01  8.00000000E-01  1.50000000E+00  1.50000000E+00  8.00000000E-01
  8.00000000E-01  1.50000000E+00  1.50000000E+00  8.00000000E-01  8.00000000E-01
  1.50000000E+00  1.50000000E+00  8.00000000E-01  8.00000000E-01  1.50000000E+00
  1.50000000E+00  8.00000000E-01  8.00000000E-01  1.50000000E+00  1.50000000E+00
  8.00000000E-01  8.00000000E-01  1.50000000E+00  1.50000000E+00  8.00000000E-01
  8.00000000E-01  1.50000000E+00  1.50000000E+00  8.00000000E-01  8.00000000E-01
  1.50000000E+00  1.50000000E+00  8.00000000E-01  8.00000000E-01  1.50000000E+00
  1.50000000E+00  8.00000000E-01  8.00000000E-01  1.50000000E+00  1.50000000E+00
  8.00000000E-01  8.00000000E-01  1.50000000E+00  1.50000000E+00  8.00000000E-01
  8.00000000E-01  1.50000000E+00  1.50000000E+00  8.00000000E-01  8.00000000E-01
  1.50000000E+00  1.50000000E+00  8.00000000E-01  8.00000000E-01  1.50000000E+00
  1.50000000E+00  8.00000000E-01  8.00000000E-01  1.50000000E+00  1.50000000E+00
  8.00000000E-01  8.00000000E-01  1.50000000E+00  1.50000000E+00  8.00000000E-01
  8.00000000E-01  1.50000000E+00  1.50000000E+00  8.00000000E-01  8.00000000E-01
  1.50000000E+00  1.50000000E+00  8.00000000E-01  8.00000000E-01  1.50000000E+00
  1.50000000E+00  8.00000000E-01  8.00000000E-01  1.50000000E+00  1.50000000E+00
  8.00000000E-01  8.00000000E-01  1.50000000E+00  1.50000000E+00  8.00000000E-01
  8.00000000E-01  1.50000000E+00  1.50000000E+00  8.00000000E-01  8.00000000E-01
  1.50000000E+00  1.50000000E+00  8.00000000E-01  8.00000000E-01  1.50000000E+00
  1.50000000E+00  8.00000000E-01  8.00000000E-01  1.50000000E+00  1.50000000E+00
  8.00000000E-01  8.00000000E-01  1.50000000E+00  1.50000000E+00  8.00000000E-01
  8.00000000E-01  1.50000000E+00  1.50000000E+00  8.00000000E-01  8.00000000E-01
  1.50000000E+00  1.50000000E+00  8.00000000E-01  8.00000000E-01  1.50000000E+00
  1.50000000E+00  8.00000000E-01  8.00000000E-01  1.50000000E+00  1.50000000E+00
  8.00000000E-01  8.00000000E-01  1.50000000E+00  1.50000000E+00  8.00000000E-01
  8.00000000E-01  1.50000000E+00  1.50000000E+00  8.00000000E-01  8.00000000E-01
  1.50000000E+00  1.50000000E+00  8.00000000E-01  8.00000000E-01  1.50000000E+00
  1.50000000E+00  8.00000000E-01  8.00000000E-01  1.50000000E+00  1.50000000E+00
  8.00000000E-01  8.00000000E-01  1.50000000E+00  1.50000000E+00  8.00000000E-01
  8.00000000E-01  1.50000000E+00  1.50000000E+00  8.00000000E-01  8.00000000E-01
  1.50000000E+00  1.50000000E+00  8.00000000E-01  8.00000000E-01  1.50000000E+00
  1.50000000E+00  8.00000000E-01  8.00000000E-01  1.50000000E+00  1.50000000E+00
  8.00000000E-01  8.00000000E-01  1.50000000E+00  1.50000000E+00  8.00000000E-01
  8.00000000E-01  1.50000000E+00  1.50000000E+00  8.00000000E-01  8.00000000E-01
  1.50000000E+00  1.50000000E+00  8.00000000E-01  8.00000000E-01  1.50000000E+00
  1.50000000E+00  8.00000000E-01  8.00000000E-01  1.50000000E+00  1.50000000E+00
  8.00000000E-01  8.00000000E-01  1.50000000E+00  1.50000000E+00  8.00000000E-01
  8.00000000E-01  1.50000000E+00  1.50000000E+00  8.00000000E-01  8.00000000E-01
  1.50000000E+00  1.50000000E+00  8.00000000E-01  8.00000000E-01  1.50000000E+00
  1.50000000E+00  8.00000000E-01  8.00000000E-01  1.50000000E+00  1.50000000E+00
  8.00000000E-01  8.00000000E-01  1.50000000E+00  1.50000000E+00  8.00000000E-01
  8.00000000E-01  1.50000000E+00  1.50000000E+00  8.00000000E-01  8.00000000E-01
  1.50000000E+00  1.50000000E+00  8.00000000E-01  8.00000000E-01  1.50000000E+00
  1.50000000E+00  8.00000000E-01  8.00000000E-01  1.50000000E+00  1.50000000E+00
  8.00000000E-01  8.00000000E-01  1.50000000E+00  1.50000000E+00  8.00000000E-01
  8.00000000E-01  1.50000000E+00  1.50000000E+00  8.00000000E-01  8.00000000E-01
  1.50000000E+00  1.50000000E+00  8.00000000E-01  8.00000000E-01  1.50000000E+00
  1.50000000E+00  8.00000000E-01  8.00000000E-01  1.50000000E+00  1.50000000E+00
  8.00000000E-01  8.00000000E-01  1.50000000E+00  1.50000000E+00  8.00000000E-01
  8.00000000E-01  1.50000000E+00  1.50000000E+00  8.00000000E-01  8.00000000E-01
  1.50000000E+00  1.50000000E+00  8.00000000E-01  8.00000000E-01  1.50000000E+00
  1.50000000E+00  8.00000000E-01  8.00000000E-01  1.50000000E+00  1.50000000E+00
  8.00000000E-01  8.00000000E-01  1.50000000E+00  1.50000000E+00  8.00000000E-01
  8.00000000E-01  1.50000000E+00  1.50000000E+00  8.00000000E-01  8.00000000E-01
  1.50000000E+00  1.50000000E+00  8.00000000E-01  8.00000000E-01  1.50000000E+00
  1.50000000E+00  8.00000000E-01  8.00000000E-01  1.50000000E+00  1.50000000E+00
  8.00000000E-01  8.00000000E-01  1.50000000E+00  1.50000000E+00  8.00000000E-01
  8.00000000E-01  1.50000000E+00  1.50000000E+00  8.00000000E-01  8.00000000E-01
  1.50000000E+00  1.50000000E+00  8.00000000E-01  8.00000000E-01  1.50000000E+00
  1.50000000E+00  8.00000000E-01  8.00000000E-01  1.50000000E+00  1.50000000E+00
  8.00000000E-01  8.00000000E-01  1.50000000E+00  1.50000000E+00  8.00000000E-01
  8.00000000E-01  1.50000000E+00  1.50000000E+00  8.00000000E-01  8.00000000E-01
  1.50000000E+00  1.50000000E+00  8.00000000E-01  8.00000000E-01  1.50000000E+00
  1.50000000E+00  8.00000000E-01  8.00000000E-01  1.50000000E+00  1.50000000E+00
  8.00000000E-01  8.00000000E-01  1.50000000E+00  1.50000000E+00  8.00000000E-01
  8.00000000E-01  1.50000000E+00  1.50000000E+00  8.00000000E-01  8.00000000E-01
  1.50000000E+00  1.50000000E+00  8.00000000E-01  8.00000000E-01  1.50000000E+00
  1.50000000E+00  8.00000000E-01  8.00000000E-01  1.50000000E+00  1.50000000E+00
  8.00000000E-01  8.00000000E-01  1.50000000E+00  1.50000000E+00  8.00000000E-01
  8.00000000E-01  1.50000000E+00  1.50000000E+00  8.00000000E-01  8.00000000E-01
  1.50000000E+00  1.50000000E+00  8.00000000E-01  8.00000000E-01  1.50000000E+00
  1.50000000E+00  8.00000000E-01  8.00000000E-01  1.50000000E+00  1.50000000E+00
  8.00000000E-01  8.00000000E-01  1.50000000E+00  1.50000000E+00  8.00000000E-01
  8.00000000E-01  1.50000000E+00  1.50000000E+00  8.00000000E-01  8.00000000E-01
  1.50000000E+00  1.50000000E+00  8.00000000E-01  8.00000000E-01  1.50000000E+00
  1.50000000E+00  8.00000000E-01  8.00000000E-01  1.50000000E+00  1.50000000E+00
  8.00000000E-01  8.00000000E-01  1.50000000E+00  1.50000000E+00  8.00000000E-01
  8.00000000E-01  1.50000000E+00  1.50000000E+00  8.00000000E-01  8.00000000E-01
  1.50000000E+00  1.50000000E+00  8.00000000E-01  8.00000000E-01  1.50000000E+00
  1.50000000E+00  8.00000000E-01  8.00000000E-01  1.50000000E+00  1.50000000E+00
  8.00000000E-01  8.00000000E-01  1.50000000E+00  1.50000000E+00  8.00000000E-01
  8.00000000E-01  1.50000000E+00  1.50000000E+00  8.00000000E-01  8.00000000E-01
  1.50000000E+00  1.50000000E+00  8.00000000E-01  8.00000000E-01  1.50000000E+00
  1.50000000E+00  8.00000000E-01  8.00000000E-01  1.50000000E+00  1.50000000E+00
  8.00000000E-01  8.00000000E-01  1.50000000E+00  1.50000000E+00  8.00000000E-01
  8.00000000E-01  1.50000000E+00  1.50000000E+00  8.00000000E-01  8.00000000E-01
  1.50000000E+00  1.50000000E+00  8.00000000E-01  8.00000000E-01  1.50000000E+00
  1.50000000E+00  8.00000000E-01  8.00000000E-01  1.50000000E+00  1.50000000E+00
  8.00000000E-01  8.00000000E-01  1.50000000E+00  1.50000000E+00  8.00000000E-01
  8.00000000E-01  1.50000000E+00  1.50000000E+00  8.00000000E-01  8.00000000E-01
  1.50000000E+00  1.50000000E+00  8.00000000E-01  8.00000000E-01  1.50000000E+00
  1.50000000E+00  8.00000000E-01  8.00000000E-01  1.50000000E+00  1.50000000E+00
  8.00000000E-01  8.00000000E-01  1.50000000E+00  1.50000000E+00  8.00000000E-01
  8.00000000E-01  1.50000000E+00  1.50000000E+00  8.00000000E-01  8.00000000E-01
  1.50000000E+00  1.50000000E+00  8.00000000E-01  8.00000000E-01  1.50000000E+00
  1.50000000E+00  8.00000000E-01  8.00000000E-01  1.50000000E+00  1.50000000E+00
  8.00000000E-01  8.00000000E-01  1.50000000E+00  1.50000000E+00  8.00000000E-01
  8.00000000E-01  1.50000000E+00  1.50000000E+00  8.00000000E-01  8.00000000E-01
  1.50000000E+00  1.50000000E+00  8.00000000E-01  8.00000000E-01  1.50000000E+00
  1.50000000E+00  8.00000000E-01  8.00000000E-01  1.50000000E+00  1.50000000E+00
  8.00000000E-01  8.00000000E-01  1.50000000E+00  1.50000000E+00  8.00000000E-01
  8.00000000E-01  1.50000000E+00  1.50000000E+00  8.00000000E-01  8.00000000E-01
  1.50000000E+00  1.50000000E+00  8.00000000E-01  8.00000000E-01  1.50000000E+00
  1.50000000E+00  8.00000000E-01  8.00000000E-01  1.50000000E+00  1.50000000E+00
  8.00000000E-01  8.00000000E-01  1.50000000E+00  1.50000000E+00  8.00000000E-01
  8.00000000E-01  1.50000000E+00  1.50000000E+00  8.00000000E-01  8.00000000E-01
  1.50000000E+00  1.50000000E+00  8.00000000E-01  8.00000000E-01  1.50000000E+00
  1.50000000E+00  8.00000000E-01  8.00000000E-01  1.50000000E+00  1.50000000E+00
  8.00000000E-01  8.00000000E-01  1.50000000E+00  1.50000000E+00  8.00000000E-01
  8.00000000E-01  1.50000000E+00  1.50000000E+00  8.00000000E-01  8.00000000E-01
  1.50000000E+00  1.50000000E+00  8.00000000E-01  8.00000000E-01  1.50000000E+00
  1.50000000E+00  8.00000000E-01  8.00000000E-01  1.50000000E+00  1.50000000E+00
  8.00000000E-01  8.00000000E-01  1.50000000E+00  1.50000000E+00  8.00000000E-01
  8.00000000E-01  1.50000000E+00  1.50000000E+00  8.00000000E-01  8.00000000E-01
  1.50000000E+00  1.50000000E+00  8.00000000E-01  8.00000000E-01  1.50000000E+00
  1.50000000E+00  8.00000000E-01  8.00000000E-01  1.50000000E+00  1.50000000E+00
  8.00000000E-01  8.00000000E-01  1.50000000E+00  1.50000000E+00  8.00000000E-01
  8.00000000E-01  1.50000000E+00  1.50000000E+00  8.00000000E-01  8.00000000E-01
  1.50000000E+00  1.50000000E+00  8.00000000E-01  8.00000000E-01  1.50000000E+00
  1.50000000E+00  8.00000000E-01  8.00000000E-01  1.50000000E+00  1.50000000E+00
  8.00000000E-01  8.00000000E-01  1.50000000E+00  1.50000000E+00  8.00000000E-01
  8.00000000E-01  1.50000000E+00  1.50000000E+00  8.00000000E-01  8.00000000E-01
  1.50000000E+00  1.50000000E+00  8.00000000E-01  8.00000000E-01  1.50000000E+00
  1.50000000E+00  8.00000000E-01  8.00000000E-01  1.50000000E+00  1.50000000E+00
  8.00000000E-01  8.00000000E-01  1.50000000E+00  1.50000000E+00  8.00000000E-01
  8.00000000E-01  1.50000000E+00  1.50000000E+00  8.00000000E-01  8.00000000E-01
  1.50000000E+00  1.50000000E+00  8.00000000E-01  8.00000000E-01  1.50000000E+00
  1.50000000E+00  8.00000000E-01  8.00000000E-01  1.50000000E+00  1.50000000E+00
  8.00000000E-01  8.00000000E-01  1.50000000E+00  1.50000000E+00  8.00000000E-01
  8.00000000E-01  1.50000000E+00  1.50000000E+00  8.00000000E-01  8.00000000E-01
  1.50000000E+00  1.50000000E+00  8.00000000E-01  8.00000000E-01  1.50000000E+00
  1.50000000E+00  8.00000000E-01  8.00000000E-01  1.50000000E+00  1.50000000E+00
  8.00000000E-01  8.00000000E-01  1.50000000E+00  1.50000000E+00  8.00000000E-01
  8.00000000E-01  1.50000000E+00  1.50000000E+00  8.00000000E-01  8.00000000E-01
  1.50000000E+00  1.50000000E+00  8.00000000E-01  8.00000000E-01  1.50000000E+00
  1.50000000E+00  8.00000000E-01  8.00000000E-01  1.50000000E+00  1.50000000E+00
  8.00000000E-01  8.00000000E-01  1.50000000E+00  1.50000000E+00  8.00000000E-01
  8.00000000E-01  1.50000000E+00  1.50000000E+00  8.00000000E-01  8.00000000E-01
  1.50000000E+00  1.50000000E+00  8.00000000E-01  8.00000000E-01  1.50000000E+00
  1.50000000E+00  8.00000000E-01  8.00000000E-01  1.50000000E+00  1.50000000E+00
  8.00000000E-01  8.00000000E-01  1.50000000E+00  1.50000000E+00  8.00000000E-01
  8.00000000E-01  1.50000000E+00  1.50000000E+00  8.00000000E-01  8.00000000E-01
  1.50000000E+00  1.50000000E+00  8.00000000E-01  8.00000000E-01  1.50000000E+00
  1.50000000E+00  8.00000000E-01  8.00000000E-01  1.50000000E+00  1.50000000E+00
  8.00000000E-01  8.00000000E-01  1.50000000E+00  1.50000000E+00  8.00000000E-01
  8.00000000E-01  1.50000000E+00  1.50000000E+00  8.00000000E-01  8.00000000E-01
  1.50000000E+00  1.50000000E+00  8.00000000E-01  8.00000000E-01  1.50000000E+00
  1.50000000E+00  8.00000000E-01  8.00000000E-01  1.50000000E+00  1.50000000E+00
  8.00000000E-01  8.00000000E-01  1.50000000E+00  1.50000000E+00  8.00000000E-01
  8.00000000E-01  1.50000000E+00  1.50000000E+00  8.00000000E-01  8.00000000E-01
  1.50000000E+00  1.50000000E+00  8.00000000E-01  8.00000000E-01  1.50000000E+00
  1.50000000E+00  8.00000000E-01  8.00000000E-01  1.50000000E+00  1.50000000E+00
  8.00000000E-01  8.00000000E-01  1.50000000E+00  1.50000000E+00  8.00000000E-01
  8.00000000E-01  1.50000000E+00  1.50000000E+00  8.00000000E-01  8.00000000E-01
  1.50000000E+00  1.50000000E+00  8.00000000E-01  8.00000000E-01  1.50000000E+00
  1.50000000E+00  8.00000000E-01  8.00000000E-01  1.50000000E+00  1.50000000E+00
  8.00000000E-01  8.00000000E-01  1.50000000E+00  1.50000000E+00  8.00000000E-01
  8.00000000E-01  1.50000000E+00  1.50000000E+00  8.00000000E-01  8.00000000E-01
  1.50000000E+00  1.50000000E+00  8.00000000E-01  8.00000000E-01  1.50000000E+00
  1.50000000E+00  8.00000000E-01  8.00000000E-01  1.50000000E+00  1.50000000E+00
  8.00000000E-01  8.00000000E-01  1.50000000E+00  1.50000000E+00  8.00000000E-01
  8.00000000E-01  1.50000000E+00  1.50000000E+00  8.00000000E-01  8.00000000E-01
  1.50000000E+00  1.50000000E+00  8.00000000E-01  8.00000000E-01  1.50000000E+00
  1.50000000E+00  8.00000000E-01  8.00000000E-01  1.50000000E+00  1.50000000E+00
  8.00000000E-01  8.00000000E-01  1.50000000E+00  1.50000000E+00  8.00000000E-01
  8.00000000E-01  1.50000000E+00  1.50000000E+00  8.00000000E-01  8.00000000E-01
  1.50000000E+00  1.50000000E+00  8.00000000E-01  8.00000000E-01  1.50000000E+00
  1.50000000E+00  8.00000000E-01  8.00000000E-01  1.50000000E+00  1.50000000E+00
  8.00000000E-01  8.00000000E-01  1.50000000E+00  1.50000000E+00  8.00000000E-01
  8.00000000E-01  1.50000000E+00  1.50000000E+00  8.00000000E-01  8.00000000E-01
  1.50000000E+00  1.50000000E+00  8.00000000E-01  8.00000000E-01  1.50000000E+00
  1.50000000E+00  8.00000000E-01  8.00000000E-01  1.50000000E+00  1.50000000E+00
  8.00000000E-01  8.00000000E-01  1.50000000E+00  1.50000000E+00  8.00000000E-01
  8.00000000E-01  1.50000000E+00  1.50000000E+00  8.00000000E-01  8.00000000E-01
  1.50000000E+00  1.50000000E+00  8.00000000E-01  8.00000000E-01  1.50000000E+00
  1.50000000E+00  8.00000000E-01  8.00000000E-01  1.50000000E+00  1.50000000E+00
  8.00000000E-01  8.00000000E-01  1.50000000E+00  1.50000000E+00  8.00000000E-01
  8.00000000E-01  1.50000000E+00  1.50000000E+00  8.00000000E-01  8.00000000E-01
  1.50000000E+00  1.50000000E+00  8.00000000E-01  8.00000000E-01  1.50000000E+00
  1.50000000E+00  8.00000000E-01  8.00000000E-01  1.50000000E+00  1.50000000E+00
  8.00000000E-01  8.00000000E-01  1.50000000E+00  1.50000000E+00  8.00000000E-01
  8.00000000E-01  1.50000000E+00  1.50000000E+00  8.00000000E-01  8.00000000E-01
  1.50000000E+00  1.50000000E+00  8.00000000E-01  8.00000000E-01  1.50000000E+00
  1.50000000E+00  8.00000000E-01  8.00000000E-01  1.50000000E+00  1.50000000E+00
  8.00000000E-01  8.00000000E-01  1.50000000E+00  1.50000000E+00  8.00000000E-01
  8.00000000E-01  1.50000000E+00  1.50000000E+00  8.00000000E-01  8.00000000E-01
  1.50000000E+00  1.50000000E+00  8.00000000E-01  8.00000000E-01  1.50000000E+00
  1.50000000E+00  8.00000000E-01  8.00000000E-01  1.50000000E+00  1.50000000E+00
  8.00000000E-01  8.00000000E-01  1.50000000E+00  1.50000000E+00  8.00000000E-01
  8.00000000E-01  1.50000000E+00  1.50000000E+00  8.00000000E-01  8.00000000E-01
  1.50000000E+00  1.50000000E+00  8.00000000E-01  8.00000000E-01  1.50000000E+00
  1.50000000E+00  8.00000000E-01  8.00000000E-01  1.50000000E+00  1.50000000E+00
  8.00000000E-01  8.00000000E-01  1.50000000E+00  1.50000000E+00  8.00000000E-01
  8.00000000E-01  1.50000000E+00  1.50000000E+00  8.00000000E-01  8.00000000E-01
  1.50000000E+00  1.50000000E+00  8.00000000E-01  8.00000000E-01  1.50000000E+00
  1.50000000E+00  8.00000000E-01  8.00000000E-01  1.50000000E+00  1.50000000E+00
  8.00000000E-01  8.00000000E-01  1.50000000E+00  1.50000000E+00  8.00000000E-01
  8.00000000E-01  1.50000000E+00  1.50000000E+00  8.00000000E-01  8.00000000E-01
  1.50000000E+00  1.50000000E+00  8.00000000E-01  8.00000000E-01  1.50000000E+00
  1.50000000E+00  8.00000000E-01  8.00000000E-01  1.50000000E+00  1.50000000E+00
  8.00000000E-01  8.00000000E-01  1.50000000E+00  1.50000000E+00  8.00000000E-01
  8.00000000E-01  1.50000000E+00  1.50000000E+00  8.00000000E-01  8.00000000E-01
  1.50000000E+00  1.50000000E+00  8.00000000E-01  8.00000000E-01  1.50000000E+00
  1.50000000E+00  8.00000000E-01  8.00000000E-01  1.50000000E+00  1.50000000E+00
  8.00000000E-01  8.00000000E-01  1.50000000E+00  1.50000000E+00  8.00000000E-01
  8.00000000E-01  1.50000000E+00  1.50000000E+00  8.00000000E-01  8.00000000E-01
  1.50000000E+00  1.50000000E+00  8.00000000E-01  8.00000000E-01  1.50000000E+00
  1.50000000E+00  8.00000000E-01  8.00000000E-01  1.50000000E+00  1.50000000E+00
  8.00000000E-01  8.00000000E-01  1.50000000E+00  1.50000000E+00  8.00000000E-01
  8.00000000E-01  1.50000000E+00  1.50000000E+00  8.00000000E-01  8.00000000E-01
  1.50000000E+00  1.50000000E+00  8.00000000E-01  8.00000000E-01  1.50000000E+00
  1.50000000E+00  8.00000000E-01  8.00000000E-01  1.50000000E+00  1.50000000E+00
  8.00000000E-01  8.00000000E-01  1.50000000E+00  1.50000000E+00  8.00000000E-01
  8.00000000E-01  1.50000000E+00  1.50000000E+00  8.00000000E-01  8.00000000E-01
  1.50000000E+00  1.50000000E+00  8.00000000E-01  8.00000000E-01  1.50000000E+00
  1.50000000E+00  8.00000000E-01  8.00000000E-01  1.50000000E+00  1.50000000E+00
  8.00000000E-01  8.00000000E-01  1.50000000E+00  1.50000000E+00  8.00000000E-01
  8.00000000E-01  1.50000000E+00  1.50000000E+00  8.00000000E-01  8.00000000E-01
  1.50000000E+00  1.50000000E+00  8.00000000E-01  8.00000000E-01  1.50000000E+00
  1.50000000E+00  8.00000000E-01  8.00000000E-01  1.50000000E+00  1.50000000E+00
  8.00000000E-01  8.00000000E-01  1.50000000E+00  1.50000000E+00  8.00000000E-01
  8.00000000E-01  1.50000000E+00  1.50000000E+00  8.00000000E-01  8.00000000E-01
  1.50000000E+00  1.50000000E+00  8.00000000E-01  8.00000000E-01  1.50000000E+00
  1.50000000E+00  8.00000000E-01  8.00000000E-01  1.50000000E+00  1.50000000E+00
  8.00000000E-01  8.00000000E-01  1.50000000E+00  1.50000000E+00  8.00000000E-01
  8.00000000E-01  1.50000000E+00  1.50000000E+00  8.00000000E-01  8.00000000E-01
  1.50000000E+00  1.50000000E+00  8.00000000E-01  8.00000000E-01  1.50000000E+00
  1.50000000E+00  8.00000000E-01  8.00000000E-01  1.50000000E+00  1.50000000E+00
  8.00000000E-01  8.00000000E-01  1.50000000E+00  1.50000000E+00  8.00000000E-01
  8.00000000E-01  1.50000000E+00  1.50000000E+00  8.00000000E-01  8.00000000E-01
  1.50000000E+00  1.50000000E+00  8.00000000E-01  8.00000000E-01  1.50000000E+00
  1.50000000E+00  8.00000000E-01  8.00000000E-01  1.50000000E+00  1.50000000E+00
  8.00000000E-01  8.00000000E-01  1.50000000E+00  1.50000000E+00  8.00000000E-01
  8.00000000E-01  1.50000000E+00  1.50000000E+00  8.00000000E-01  8.00000000E-01
  1.50000000E+00  1.50000000E+00  8.00000000E-01  8.00000000E-01  1.50000000E+00
  1.50000000E+00  8.00000000E-01  8.00000000E-01  1.50000000E+00  1.50000000E+00
  8.00000000E-01  8.00000000E-01  1.50000000E+00  1.50000000E+00  8.00000000E-01
  8.00000000E-01  1.50000000E+00  1.50000000E+00  8.00000000E-01  8.00000000E-01
  1.50000000E+00  1.50000000E+00  8.00000000E-01  8.00000000E-01  1.50000000E+00
  1.50000000E+00  8.00000000E-01  8.00000000E-01  1.50000000E+00  1.50000000E+00
  8.00000000E-01  8.00000000E-01  1.50000000E+00  1.50000000E+00  8.00000000E-01
  8.00000000E-01  1.50000000E+00  1.50000000E+00  8.00000000E-01  8.00000000E-01
  1.50000000E+00  1.50000000E+00  8.00000000E-01  8.00000000E-01  1.50000000E+00
  1.50000000E+00  8.00000000E-01  8.00000000E-01  1.50000000E+00  1.50000000E+00
  8.00000000E-01  8.00000000E-01  1.50000000E+00  1.50000000E+00  8.00000000E-01
  8.00000000E-01  1.50000000E+00  1.50000000E+00  8.00000000E-01  8.00000000E-01
  1.50000000E+00  1.50000000E+00  8.00000000E-01  8.00000000E-01  1.50000000E+00
  1.50000000E+00  8.00000000E-01  8.00000000E-01  1.50000000E+00  1.50000000E+00
  8.00000000E-01  8.00000000E-01  1.50000000E+00  1.50000000E+00  8.00000000E-01
  8.00000000E-01  1.50000000E+00  1.50000000E+00  8.00000000E-01  8.00000000E-01
  1.50000000E+00  1.50000000E+00  8.00000000E-01  8.00000000E-01  1.50000000E+00
  1.50000000E+00  8.00000000E-01  8.00000000E-01  1.50000000E+00  1.50000000E+00
  8.00000000E-01  8.00000000E-01  1.50000000E+00  1.50000000E+00  8.00000000E-01
  8.00000000E-01  1.50000000E+00  1.50000000E+00  8.00000000E-01  8.00000000E-01
  1.50000000E+00  1.50000000E+00  8.00000000E-01  8.00000000E-01  1.50000000E+00
  1.50000000E+00  8.00000000E-01  8.00000000E-01  1.50000000E+00  1.50000000E+00
  8.00000000E-01  8.00000000E-01  1.50000000E+00  1.50000000E+00  8.00000000E-01
  8.00000000E-01  1.50000000E+00  1.50000000E+00  8.00000000E-01  8.00000000E-01
  1.50000000E+00  1.50000000E+00  8.00000000E-01  8.00000000E-01  1.50000000E+00
  1.50000000E+00  8.00000000E-01  8.00000000E-01  1.50000000E+00  1.50000000E+00
  8.00000000E-01  8.00000000E-01  1.50000000E+00  1.50000000E+00  8.00000000E-01
  8.00000000E-01  1.50000000E+00  1.50000000E+00  8.00000000E-01  8.00000000E-01
  1.50000000E+00  1.50000000E+00  8.00000000E-01  8.00000000E-01  1.50000000E+00
  1.50000000E+00  8.00000000E-01  8.00000000E-01  1.50000000E+00  1.50000000E+00
  8.00000000E-01  8.00000000E-01  1.50000000E+00  1.50000000E+00  8.00000000E-01
  8.00000000E-01  1.50000000E+00  1.50000000E+00  8.00000000E-01  8.00000000E-01
  1.50000000E+00  1.50000000E+00  8.00000000E-01  8.00000000E-01  1.50000000E+00
  1.50000000E+00  8.00000000E-01  8.00000000E-01  1.50000000E+00  1.50000000E+00
  8.00000000E-01  8.00000000E-01  1.50000000E+00  1.50000000E+00  8.00000000E-01
  8.00000000E-01  1.50000000E+00  1.50000000E+00  8.00000000E-01  8.00000000E-01
  1.50000000E+00  1.50000000E+00  8.00000000E-01  8.00000000E-01  1.50000000E+00
  1.50000000E+00  8.00000000E-01  8.00000000E-01  1.50000000E+00  1.50000000E+00
  8.00000000E-01  8.00000000E-01  1.50000000E+00  1.50000000E+00  8.00000000E-01
  8.00000000E-01  1.50000000E+00  1.50000000E+00  8.00000000E-01  8.00000000E-01
  1.50000000E+00  1.50000000E+00  8.00000000E-01  8.00000000E-01  1.50000000E+00
  1.50000000E+00  8.00000000E-01  8.00000000E-01  1.50000000E+00  1.50000000E+00
  8.00000000E-01  8.00000000E-01  1.50000000E+00  1.50000000E+00  8.00000000E-01
  8.00000000E-01  1.50000000E+00  1.50000000E+00  8.00000000E-01  8.00000000E-01
  1.50000000E+00  1.50000000E+00  8.00000000E-01  8.00000000E-01  1.50000000E+00
  1.50000000E+00  8.00000000E-01  8.00000000E-01  1.50000000E+00  1.50000000E+00
  8.00000000E-01  8.00000000E-01  1.50000000E+00  1.50000000E+00  8.00000000E-01
  8.00000000E-01  1.50000000E+00  1.50000000E+00  8.00000000E-01  8.00000000E-01
  1.50000000E+00  1.50000000E+00  8.00000000E-01  8.00000000E-01  1.50000000E+00
  1.50000000E+00  8.00000000E-01  8.00000000E-01  1.50000000E+00  1.50000000E+00
  8.00000000E-01  8.00000000E-01  1.50000000E+00  1.50000000E+00  8.00000000E-01
  8.00000000E-01  1.50000000E+00  1.50000000E+00  8.00000000E-01  8.00000000E-01
  1.50000000E+00  1.50000000E+00  8.00000000E-01  8.00000000E-01  1.50000000E+00
  1.50000000E+00  8.00000000E-01  8.00000000E-01  1.50000000E+00  1.50000000E+00
  8.00000000E-01  8.00000000E-01  1.50000000E+00  1.50000000E+00  8.00000000E-01
  8.00000000E-01  1.50000000E+00  1.50000000E+00  8.00000000E-01  8.00000000E-01
  1.50000000E+00  1.50000000E+00  8.00000000E-01  8.00000000E-01  1.50000000E+00
  1.50000000E+00  8.00000000E-01  8.00000000E-01  1.50000000E+00  1.50000000E+00
  8.00000000E-01  8.00000000E-01  1.50000000E+00  1.50000000E+00  8.00000000E-01
  8.00000000E-01  1.50000000E+00  1.50000000E+00  8.00000000E-01  8.00000000E-01
  1.50000000E+00  1.50000000E+00  8.00000000E-01  8.00000000E-01  1.50000000E+00
  1.50000000E+00  8.00000000E-01  8.00000000E-01  1.50000000E+00  1.50000000E+00
  8.00000000E-01  8.00000000E-01  1.50000000E+00  1.50000000E+00  8.00000000E-01
  8.00000000E-01  1.50000000E+00  1.50000000E+00  8.00000000E-01  8.00000000E-01
  1.50000000E+00  1.50000000E+00  8.00000000E-01  8.00000000E-01  1.50000000E+00
  1.50000000E+00  8.00000000E-01  8.00000000E-01  1.50000000E+00  1.50000000E+00
  8.00000000E-01  8.00000000E-01  1.50000000E+00  1.50000000E+00  8.00000000E-01
  8.00000000E-01  1.50000000E+00  1.50000000E+00  8.00000000E-01  8.00000000E-01
  1.50000000E+00  1.50000000E+00  8.00000000E-01  8.00000000E-01  1.50000000E+00
  1.50000000E+00  8.00000000E-01  8.00000000E-01  1.50000000E+00  1.50000000E+00
  8.00000000E-01  8.00000000E-01  1.50000000E+00  1.50000000E+00  8.00000000E-01
  8.00000000E-01  1.50000000E+00  1.50000000E+00  8.00000000E-01  8.00000000E-01
  1.50000000E+00  1.50000000E+00  8.00000000E-01  8.00000000E-01  1.50000000E+00
  1.50000000E+00  8.00000000E-01  8.00000000E-01  1.50000000E+00  1.50000000E+00
  8.00000000E-01  8.00000000E-01  1.50000000E+00  1.50000000E+00  8.00000000E-01
  8.00000000E-01  1.50000000E+00  1.50000000E+00  8.00000000E-01  8.00000000E-01
  1.50000000E+00  1.50000000E+00  8.00000000E-01  8.00000000E-01  1.50000000E+00
  1.50000000E+00  8.00000000E-01  8.00000000E-01  1.50000000E+00  1.50000000E+00
  8.00000000E-01  8.00000000E-01  1.50000000E+00  1.50000000E+00  8.00000000E-01
  8.00000000E-01  1.50000000E+00  1.50000000E+00  8.00000000E-01  8.00000000E-01
  1.50000000E+00  1.50000000E+00  8.00000000E-01  8.00000000E-01  1.50000000E+00
  1.50000000E+00  8.00000000E-01  8.00000000E-01  1.50000000E+00  1.50000000E+00
  8.00000000E-01  8.00000000E-01  1.50000000E+00  1.50000000E+00  8.00000000E-01
  8.00000000E-01  1.50000000E+00  1.50000000E+00  8.00000000E-01  8.00000000E-01
  1.50000000E+00  1.50000000E+00  8.00000000E-01  8.00000000E-01  1.50000000E+00
  1.50000000E+00  8.00000000E-01  8.00000000E-01  1.50000000E+00  1.50000000E+00
  8.00000000E-01  8.00000000E-01  1.50000000E+00  1.50000000E+00  8.00000000E-01
  8.00000000E-01  1.50000000E+00  1.50000000E+00  8.00000000E-01  8.00000000E-01
  1.50000000E+00  1.50000000E+00  8.00000000E-01  8.00000000E-01  1.50000000E+00
  1.50000000E+00  8.00000000E-01  8.00000000E-01  1.50000000E+00  1.50000000E+00
  8.00000000E-01  8.00000000E-01  1.50000000E+00  1.50000000E+00  8.00000000E-01
  8.00000000E-01  1.50000000E+00  1.50000000E+00  8.00000000E-01  8.00000000E-01
  1.50000000E+00  1.50000000E+00  8.00000000E-01  8.00000000E-01  1.50000000E+00
  1.50000000E+00  8.00000000E-01  8.00000000E-01  1.50000000E+00  1.50000000E+00
  8.00000000E-01  8.00000000E-01  1.50000000E+00  1.50000000E+00  8.00000000E-01
  8.00000000E-01  1.50000000E+00  1.50000000E+00  8.00000000E-01  8.00000000E-01
  1.50000000E+00  1.50000000E+00  8.00000000E-01  8.00000000E-01  1.50000000E+00
  1.50000000E+00  8.00000000E-01  8.00000000E-01  1.50000000E+00  1.50000000E+00
  8.00000000E-01  8.00000000E-01  1.50000000E+00  1.50000000E+00  8.00000000E-01
  8.00000000E-01  1.50000000E+00  1.50000000E+00  8.00000000E-01  8.00000000E-01
  1.50000000E+00  1.50000000E+00  8.00000000E-01  8.00000000E-01  1.50000000E+00
  1.50000000E+00  8.00000000E-01  8.00000000E-01  1.50000000E+00  1.50000000E+00
  8.00000000E-01  8.00000000E-01  1.50000000E+00  1.50000000E+00  8.00000000E-01
  8.00000000E-01  1.50000000E+00  1.50000000E+00  8.00000000E-01  8.00000000E-01
  1.50000000E+00  1.50000000E+00  8.00000000E-01  8.00000000E-01  1.50000000E+00
  1.50000000E+00  8.00000000E-01  8.00000000E-01  1.50000000E+00  1.50000000E+00
  8.00000000E-01  8.00000000E-01  1.50000000E+00  1.50000000E+00  8.00000000E-01
  8.00000000E-01  1.50000000E+00  1.50000000E+00  8.00000000E-01  8.00000000E-01
  1.50000000E+00  1.50000000E+00  8.00000000E-01  8.00000000E-01  1.50000000E+00
  1.50000000E+00  8.00000000E-01  8.00000000E-01  1.50000000E+00  1.50000000E+00
  8.00000000E-01  8.00000000E-01  1.50000000E+00  1.50000000E+00  8.00000000E-01
  8.00000000E-01  1.50000000E+00  1.50000000E+00  8.00000000E-01  8.00000000E-01
  1.50000000E+00  1.50000000E+00  8.00000000E-01  8.00000000E-01  1.50000000E+00
  1.50000000E+00  8.00000000E-01  8.00000000E-01  1.50000000E+00  1.50000000E+00
  8.00000000E-01  8.00000000E-01  1.50000000E+00  1.50000000E+00  8.00000000E-01
  8.00000000E-01  1.50000000E+00  1.50000000E+00  8.00000000E-01  8.00000000E-01
  1.50000000E+00  1.50000000E+00  8.00000000E-01  8.00000000E-01  1.50000000E+00
  1.50000000E+00  8.00000000E-01  8.00000000E-01  1.50000000E+00  1.50000000E+00
  8.00000000E-01  8.00000000E-01  1.50000000E+00  1.50000000E+00  8.00000000E-01
  8.00000000E-01  1.50000000E+00  1.50000000E+00  8.00000000E-01  8.00000000E-01
  1.50000000E+00  1.50000000E+00  8.00000000E-01  8.00000000E-01  1.50000000E+00
  1.50000000E+00  8.00000000E-01  8.00000000E-01  1.50000000E+00  1.50000000E+00
  8.00000000E-01  8.00000000E-01  1.50000000E+00  1.50000000E+00  8.00000000E-01
  8.00000000E-01  1.50000000E+00  1.50000000E+00  8.00000000E-01  8.00000000E-01
  1.50000000E+00  1.50000000E+00  8.00000000E-01  8.00000000E-01  1.50000000E+00
  1.50000000E+00  8.00000000E-01  8.00000000E-01  1.50000000E+00  1.50000000E+00
  8.00000000E-01  8.00000000E-01  1.50000000E+00  1.50000000E+00  8.00000000E-01
  8.00000000E-01  1.50000000E+00  1.50000000E+00  8.00000000E-01  8.00000000E-01
  1.50000000E+00  1.50000000E+00  8.00000000E-01  8.00000000E-01  1.50000000E+00
  1.50000000E+00  8.00000000E-01  8.00000000E-01  1.50000000E+00  1.50000000E+00
  8.00000000E-01  8.00000000E-01  1.50000000E+00  1.50000000E+00  8.00000000E-01
  8.00000000E-01  1.50000000E+00  1.50000000E+00  8.00000000E-01  8.00000000E-01
  1.50000000E+00  1.50000000E+00  8.00000000E-01  8.00000000E-01  1.50000000E+00
  1.50000000E+00  8.00000000E-01  8.00000000E-01  1.50000000E+00  1.50000000E+00
  8.00000000E-01  8.00000000E-01  1.50000000E+00  1.50000000E+00  8.00000000E-01
  8.00000000E-01  1.50000000E+00  1.50000000E+00  8.00000000E-01  8.00000000E-01
  1.50000000E+00  1.50000000E+00  8.00000000E-01  8.00000000E-01  1.50000000E+00
  1.50000000E+00  8.00000000E-01  8.00000000E-01  1.50000000E+00  1.50000000E+00
  8.00000000E-01  8.00000000E-01  1.50000000E+00  1.50000000E+00  8.00000000E-01
  8.00000000E-01  1.50000000E+00  1.50000000E+00  8.00000000E-01  8.00000000E-01
  1.50000000E+00  1.50000000E+00  8.00000000E-01  8.00000000E-01  1.50000000E+00
  1.50000000E+00  8.00000000E-01  8.00000000E-01  1.50000000E+00  1.50000000E+00
  8.00000000E-01  8.00000000E-01  1.50000000E+00  1.50000000E+00  8.00000000E-01
  8.00000000E-01  1.50000000E+00  1.50000000E+00  8.00000000E-01  8.00000000E-01
  1.50000000E+00  1.50000000E+00  8.00000000E-01  8.00000000E-01  1.50000000E+00
  1.50000000E+00  8.00000000E-01  8.00000000E-01  1.50000000E+00  1.50000000E+00
  8.00000000E-01  8.00000000E-01  1.50000000E+00  1.50000000E+00  8.00000000E-01
  8.00000000E-01  1.50000000E+00  1.50000000E+00  8.00000000E-01  8.00000000E-01
  1.50000000E+00  1.50000000E+00  8.00000000E-01  8.00000000E-01  1.50000000E+00
  1.50000000E+00  8.00000000E-01  8.00000000E-01  1.50000000E+00  1.50000000E+00
  8.00000000E-01  8.00000000E-01  1.50000000E+00  1.50000000E+00  8.00000000E-01
  8.00000000E-01  1.50000000E+00  1.50000000E+00  8.00000000E-01  8.00000000E-01
  1.50000000E+00  1.50000000E+00  8.00000000E-01  8.00000000E-01  1.50000000E+00
  1.50000000E+00  8.00000000E-01  8.00000000E-01  1.50000000E+00  1.50000000E+00
  8.00000000E-01  8.00000000E-01  1.50000000E+00  1.50000000E+00  8.00000000E-01
  8.00000000E-01  1.50000000E+00  1.50000000E+00  8.00000000E-01  8.00000000E-01
  1.50000000E+00  1.50000000E+00  8.00000000E-01  8.00000000E-01  1.50000000E+00
  1.50000000E+00  8.00000000E-01  8.00000000E-01  1.50000000E+00  1.50000000E+00
  8.00000000E-01  8.00000000E-01  1.50000000E+00  1.50000000E+00  8.00000000E-01
  8.00000000E-01  1.50000000E+00  1.50000000E+00  8.00000000E-01  8.00000000E-01
  1.50000000E+00  1.50000000E+00  8.00000000E-01  8.00000000E-01  1.50000000E+00
  1.50000000E+00  8.00000000E-01  8.00000000E-01  1.50000000E+00  1.50000000E+00
  8.00000000E-01  8.00000000E-01  1.50000000E+00  1.50000000E+00  8.00000000E-01
  8.00000000E-01  1.50000000E+00  1.50000000E+00  8.00000000E-01  8.00000000E-01
  1.50000000E+00  1.50000000E+00  8.00000000E-01  8.00000000E-01  1.50000000E+00
  1.50000000E+00  8.00000000E-01  8.00000000E-01  1.50000000E+00  1.50000000E+00
  8.00000000E-01  8.00000000E-01  1.50000000E+00  1.50000000E+00  8.00000000E-01
  8.00000000E-01  1.50000000E+00  1.50000000E+00  8.00000000E-01  8.00000000E-01
  1.50000000E+00  1.50000000E+00  8.00000000E-01  8.00000000E-01  1.50000000E+00
  1.50000000E+00  8.00000000E-01  8.00000000E-01  1.50000000E+00  1.50000000E+00
  8.00000000E-01  8.00000000E-01  1.50000000E+00  1.50000000E+00  8.00000000E-01
  8.00000000E-01  1.50000000E+00  1.50000000E+00  8.00000000E-01  8.00000000E-01
  1.50000000E+00  1.50000000E+00  8.00000000E-01  8.00000000E-01  1.50000000E+00
  1.50000000E+00  8.00000000E-01  8.00000000E-01  1.50000000E+00  1.50000000E+00
  8.00000000E-01  8.00000000E-01  1.50000000E+00  1.50000000E+00  8.00000000E-01
  8.00000000E-01  1.50000000E+00  1.50000000E+00  8.00000000E-01  8.00000000E-01
  1.50000000E+00  1.50000000E+00  8.00000000E-01  8.00000000E-01  1.50000000E+00
  1.50000000E+00  8.00000000E-01  8.00000000E-01  1.50000000E+00  1.50000000E+00
  8.00000000E-01  8.00000000E-01  1.50000000E+00  1.50000000E+00  8.00000000E-01
  8.00000000E-01  1.50000000E+00  1.50000000E+00  8.00000000E-01  8.00000000E-01
  1.50000000E+00  1.50000000E+00  8.00000000E-01  8.00000000E-01  1.50000000E+00
  1.50000000E+00  8.00000000E-01  8.00000000E-01  1.50000000E+00  1.50000000E+00
  8.00000000E-01  8.00000000E-01  1.50000000E+00  1.50000000E+00  8.00000000E-01
  8.00000000E-01  1.50000000E+00  1.50000000E+00  8.00000000E-01  8.00000000E-01
  1.50000000E+00  1.50000000E+00  8.00000000E-01  8.00000000E-01  1.50000000E+00
  1.50000000E+00  8.00000000E-01  8.00000000E-01  1.50000000E+00  1.50000000E+00
  8.00000000E-01  8.00000000E-01  1.50000000E+00  1.50000000E+00  8.00000000E-01
  8.00000000E-01  1.50000000E+00  1.50000000E+00  8.00000000E-01  8.00000000E-01
  1.50000000E+00  1.50000000E+00  8.00000000E-01  8.00000000E-01  1.50000000E+00
  1.50000000E+00  8.00000000E-01  8.00000000E-01  1.50000000E+00  1.50000000E+00
  8.00000000E-01  8.00000000E-01  1.50000000E+00  1.50000000E+00  8.00000000E-01
  8.00000000E-01  1.50000000E+00  1.50000000E+00  8.00000000E-01  8.00000000E-01
  1.50000000E+00  1.50000000E+00  8.00000000E-01  8.00000000E-01  1.50000000E+00
  1.50000000E+00  8.00000000E-01  8.00000000E-01  1.50000000E+00  1.50000000E+00
  8.00000000E-01  8.00000000E-01  1.50000000E+00  1.50000000E+00  8.00000000E-01
  8.00000000E-01  1.50000000E+00  1.50000000E+00  8.00000000E-01  8.00000000E-01
  1.50000000E+00  1.50000000E+00  8.00000000E-01  8.00000000E-01  1.50000000E+00
  1.50000000E+00  8.00000000E-01  8.00000000E-01  1.50000000E+00  1.50000000E+00
  8.00000000E-01  8.00000000E-01  1.50000000E+00  1.50000000E+00  8.00000000E-01
  8.00000000E-01  1.50000000E+00  1.50000000E+00  8.00000000E-01  8.00000000E-01
  1.50000000E+00  1.50000000E+00  8.00000000E-01  8.00000000E-01  1.50000000E+00
  1.50000000E+00  8.00000000E-01  8.00000000E-01  1.50000000E+00  1.50000000E+00
  8.00000000E-01  8.00000000E-01  1.50000000E+00  1.50000000E+00  8.00000000E-01
  8.00000000E-01  1.50000000E+00  1.50000000E+00  8.00000000E-01  8.00000000E-01
  1.50000000E+00  1.50000000E+00  8.00000000E-01  8.00000000E-01  1.50000000E+00
  1.50000000E+00  8.00000000E-01  8.00000000E-01  1.50000000E+00  1.50000000E+00
  8.00000000E-01  8.00000000E-01  1.50000000E+00  1.50000000E+00  8.00000000E-01
  8.00000000E-01  1.50000000E+00  1.50000000E+00  8.00000000E-01  8.00000000E-01
  1.50000000E+00  1.50000000E+00  8.00000000E-01  8.00000000E-01  1.50000000E+00
  1.50000000E+00  8.00000000E-01  8.00000000E-01  1.50000000E+00  1.50000000E+00
  8.00000000E-01  8.00000000E-01  1.50000000E+00  1.50000000E+00  8.00000000E-01
  8.00000000E-01  1.50000000E+00  1.50000000E+00  8.00000000E-01  8.00000000E-01
  1.50000000E+00  1.50000000E+00  8.00000000E-01  8.00000000E-01  1.50000000E+00
  1.50000000E+00  8.00000000E-01  8.00000000E-01  1.50000000E+00  1.50000000E+00
  8.00000000E-01  8.00000000E-01  1.50000000E+00  1.50000000E+00  8.00000000E-01
  8.00000000E-01  1.50000000E+00  1.50000000E+00  8.00000000E-01  8.00000000E-01
  1.50000000E+00  1.50000000E+00  8.00000000E-01  8.00000000E-01  1.50000000E+00
  1.50000000E+00  8.00000000E-01  8.00000000E-01  1.50000000E+00  1.50000000E+00
  8.00000000E-01  8.00000000E-01  1.50000000E+00  1.50000000E+00  8.00000000E-01
  8.00000000E-01  1.50000000E+00  1.50000000E+00  8.00000000E-01  8.00000000E-01
  1.50000000E+00  1.50000000E+00  8.00000000E-01  8.00000000E-01  1.50000000E+00
  1.50000000E+00  8.00000000E-01  8.00000000E-01  1.50000000E+00  1.50000000E+00
  8.00000000E-01  8.00000000E-01  1.50000000E+00  1.50000000E+00  8.00000000E-01
  8.00000000E-01  1.50000000E+00  1.50000000E+00  8.00000000E-01  8.00000000E-01
  1.50000000E+00  1.50000000E+00  8.00000000E-01  8.00000000E-01  1.50000000E+00
  1.50000000E+00  8.00000000E-01  8.00000000E-01  1.50000000E+00  1.50000000E+00
  8.00000000E-01  8.00000000E-01  1.50000000E+00  1.50000000E+00  8.00000000E-01
  8.00000000E-01  1.50000000E+00  1.50000000E+00  8.00000000E-01  8.00000000E-01
  1.50000000E+00  1.50000000E+00  8.00000000E-01  8.00000000E-01  1.50000000E+00
  1.50000000E+00  8.00000000E-01  8.00000000E-01  1.50000000E+00  1.50000000E+00
  8.00000000E-01  8.00000000E-01  1.50000000E+00  1.50000000E+00  8.00000000E-01
  8.00000000E-01  1.50000000E+00  1.50000000E+00  8.00000000E-01  8.00000000E-01
  1.50000000E+00  1.50000000E+00  8.00000000E-01  8.00000000E-01  1.50000000E+00
  1.50000000E+00  8.00000000E-01  8.00000000E-01  1.50000000E+00  1.50000000E+00
  8.00000000E-01  8.00000000E-01  1.50000000E+00  1.50000000E+00  8.00000000E-01
  8.00000000E-01  1.50000000E+00  1.50000000E+00  8.00000000E-01  8.00000000E-01
  1.50000000E+00  1.50000000E+00  8.00000000E-01  8.00000000E-01  1.50000000E+00
  1.50000000E+00  8.00000000E-01  8.00000000E-01  1.50000000E+00  1.50000000E+00
  8.00000000E-01  8.00000000E-01  1.50000000E+00  1.50000000E+00  8.00000000E-01
  8.00000000E-01  1.50000000E+00  1.50000000E+00  8.00000000E-01  8.00000000E-01
  1.50000000E+00  1.50000000E+00  8.00000000E-01  8.00000000E-01  1.50000000E+00
  1.50000000E+00  8.00000000E-01  8.00000000E-01  1.50000000E+00  1.50000000E+00
  8.00000000E-01  8.00000000E-01  1.50000000E+00  1.50000000E+00  8.00000000E-01
  8.00000000E-01  1.50000000E+00  1.50000000E+00  8.00000000E-01  8.00000000E-01
  1.50000000E+00  1.50000000E+00  8.00000000E-01  8.00000000E-01  1.50000000E+00
  1.50000000E+00  8.00000000E-01  8.00000000E-01  1.50000000E+00  1.50000000E+00
  8.00000000E-01  8.00000000E-01  1.50000000E+00  1.50000000E+00  8.00000000E-01
  8.00000000E-01  1.50000000E+00  1.50000000E+00  8.00000000E-01  8.00000000E-01
  1.50000000E+00  1.50000000E+00  8.00000000E-01  8.00000000E-01  1.50000000E+00
  1.50000000E+00  8.00000000E-01  8.00000000E-01  1.50000000E+00  1.50000000E+00
  8.00000000E-01  8.00000000E-01  1.50000000E+00  1.50000000E+00  8.00000000E-01
  8.00000000E-01  1.50000000E+00  1.50000000E+00  8.00000000E-01  8.00000000E-01
  1.50000000E+00  1.50000000E+00  8.00000000E-01  8.00000000E-01  1.50000000E+00
  1.50000000E+00  8.00000000E-01  8.00000000E-01  1.50000000E+00  1.50000000E+00
  8.00000000E-01  8.00000000E-01  1.50000000E+00  1.50000000E+00  8.00000000E-01
  8.00000000E-01  1.50000000E+00  1.50000000E+00  8.00000000E-01  8.00000000E-01
  1.50000000E+00  1.50000000E+00  8.00000000E-01  8.00000000E-01  1.50000000E+00
  1.50000000E+00  8.00000000E-01  8.00000000E-01  1.50000000E+00  1.50000000E+00
  8.00000000E-01  8.00000000E-01  1.50000000E+00  1.50000000E+00  8.00000000E-01
  8.00000000E-01  1.50000000E+00  1.50000000E+00  8.00000000E-01  8.00000000E-01
  1.50000000E+00  1.50000000E+00  8.00000000E-01  8.00000000E-01  1.50000000E+00
  1.50000000E+00  8.00000000E-01  8.00000000E-01  1.50000000E+00  1.50000000E+00
  8.00000000E-01  8.00000000E-01  1.50000000E+00  1.50000000E+00  8.00000000E-01
  8.00000000E-01  1.50000000E+00  1.50000000E+00  8.00000000E-01  8.00000000E-01
  1.50000000E+00  1.50000000E+00  8.00000000E-01  8.00000000E-01  1.50000000E+00
  1.50000000E+00  8.00000000E-01  8.00000000E-01  1.50000000E+00  1.50000000E+00
  8.00000000E-01  8.00000000E-01  1.50000000E+00  1.50000000E+00  8.00000000E-01
  8.00000000E-01  1.50000000E+00  1.50000000E+00  8.00000000E-01  8.00000000E-01
  1.50000000E+00  1.50000000E+00  8.00000000E-01  8.00000000E-01  1.50000000E+00
  1.50000000E+00  8.00000000E-01  8.00000000E-01  1.50000000E+00  1.50000000E+00
  8.00000000E-01  8.00000000E-01  1.50000000E+00  1.50000000E+00  8.00000000E-01
  8.00000000E-01  1.50000000E+00  1.50000000E+00  8.00000000E-01  8.00000000E-01
  1.50000000E+00  1.50000000E+00  8.00000000E-01  8.00000000E-01  1.50000000E+00
  1.50000000E+00  8.00000000E-01  8.00000000E-01  1.50000000E+00  1.50000000E+00
  8.00000000E-01  8.00000000E-01  1.50000000E+00  1.50000000E+00  8.00000000E-01
  8.00000000E-01  1.50000000E+00  1.50000000E+00  8.00000000E-01  8.00000000E-01
  1.50000000E+00  1.50000000E+00  8.00000000E-01  8.00000000E-01  1.50000000E+00
  1.50000000E+00  8.00000000E-01  8.00000000E-01  1.50000000E+00  1.50000000E+00
  8.00000000E-01  8.00000000E-01  1.50000000E+00  1.50000000E+00  8.00000000E-01
  8.00000000E-01  1.50000000E+00  1.50000000E+00  8.00000000E-01  8.00000000E-01
  1.50000000E+00  1.50000000E+00  8.00000000E-01  8.00000000E-01  1.50000000E+00
  1.50000000E+00  8.00000000E-01  8.00000000E-01  1.50000000E+00  1.50000000E+00
  8.00000000E-01  8.00000000E-01  1.50000000E+00  1.50000000E+00  8.00000000E-01
  8.00000000E-01  1.50000000E+00  1.50000000E+00  8.00000000E-01  8.00000000E-01
  1.50000000E+00  1.50000000E+00  8.00000000E-01  8.00000000E-01  1.50000000E+00
  1.50000000E+00  8.00000000E-01  8.00000000E-01  1.50000000E+00  1.50000000E+00
  8.00000000E-01  8.00000000E-01  1.50000000E+00  1.50000000E+00  8.00000000E-01
  8.00000000E-01  1.50000000E+00  1.50000000E+00  8.00000000E-01  8.00000000E-01
  1.50000000E+00  1.50000000E+00  8.00000000E-01  8.00000000E-01  1.50000000E+00
  1.50000000E+00  8.00000000E-01  8.00000000E-01  1.50000000E+00  1.50000000E+00
  8.00000000E-01  8.00000000E-01  1.50000000E+00  1.50000000E+00  8.00000000E-01
  8.00000000E-01  1.50000000E+00  1.50000000E+00  8.00000000E-01  8.00000000E-01
  1.50000000E+00  1.50000000E+00  8.00000000E-01  8.00000000E-01  1.50000000E+00
  1.50000000E+00  8.00000000E-01  8.00000000E-01  1.50000000E+00  1.50000000E+00
  8.00000000E-01  8.00000000E-01  1.50000000E+00  1.50000000E+00  8.00000000E-01
  8.00000000E-01  1.50000000E+00  1.50000000E+00  8.00000000E-01  8.00000000E-01
  1.50000000E+00  1.50000000E+00  8.00000000E-01  8.00000000E-01  1.50000000E+00
  1.50000000E+00  8.00000000E-01  8.00000000E-01  1.50000000E+00  1.50000000E+00
  8.00000000E-01  8.00000000E-01  1.50000000E+00  1.50000000E+00  8.00000000E-01
  8.00000000E-01  1.50000000E+00  1.50000000E+00  8.00000000E-01  8.00000000E-01
  1.50000000E+00  1.50000000E+00  8.00000000E-01  8.00000000E-01  1.50000000E+00
  1.50000000E+00  8.00000000E-01  8.00000000E-01  1.50000000E+00  1.50000000E+00
  8.00000000E-01  8.00000000E-01  1.50000000E+00  1.50000000E+00  8.00000000E-01
  8.00000000E-01  1.50000000E+00  1.50000000E+00  8.00000000E-01  8.00000000E-01
  1.50000000E+00  1.50000000E+00  8.00000000E-01  8.00000000E-01  1.50000000E+00
  1.50000000E+00  8.00000000E-01  8.00000000E-01  1.50000000E+00  1.50000000E+00
  8.00000000E-01  8.00000000E-01  1.50000000E+00  1.50000000E+00  8.00000000E-01
  8.00000000E-01  1.50000000E+00  1.50000000E+00  8.00000000E-01  8.00000000E-01
  1.50000000E+00  1.50000000E+00  8.00000000E-01  8.00000000E-01  1.50000000E+00
  1.50000000E+00  8.00000000E-01  8.00000000E-01  1.50000000E+00  1.50000000E+00
  8.00000000E-01  8.00000000E-01  1.50000000E+00  1.50000000E+00  8.00000000E-01
  8.00000000E-01  1.50000000E+00  1.50000000E+00  8.00000000E-01  8.00000000E-01
  1.50000000E+00  1.50000000E+00  8.00000000E-01  8.00000000E-01  1.50000000E+00
  1.50000000E+00  8.00000000E-01  8.00000000E-01  1.50000000E+00  1.50000000E+00
  8.00000000E-01  8.00000000E-01  1.50000000E+00  1.50000000E+00  8.00000000E-01
  8.00000000E-01  1.50000000E+00  1.50000000E+00  8.00000000E-01  8.00000000E-01
  1.50000000E+00  1.50000000E+00  8.00000000E-01  8.00000000E-01  1.50000000E+00
  1.50000000E+00  8.00000000E-01  8.00000000E-01  1.50000000E+00  1.50000000E+00
  8.00000000E-01  8.00000000E-01  1.50000000E+00  1.50000000E+00  8.00000000E-01
  8.00000000E-01  1.50000000E+00  1.50000000E+00  8.00000000E-01  8.00000000E-01
  1.50000000E+00  1.50000000E+00  8.00000000E-01  8.00000000E-01  1.50000000E+00
  1.50000000E+00  8.00000000E-01  8.00000000E-01  1.50000000E+00  1.50000000E+00
  8.00000000E-01  8.00000000E-01  1.50000000E+00  1.50000000E+00  8.00000000E-01
  8.00000000E-01  1.50000000E+00  1.50000000E+00  8.00000000E-01  8.00000000E-01
  1.50000000E+00  1.50000000E+00  8.00000000E-01  8.00000000E-01  1.50000000E+00
  1.50000000E+00  8.00000000E-01  8.00000000E-01  1.50000000E+00  1.50000000E+00
  8.00000000E-01  8.00000000E-01  1.50000000E+00  1.50000000E+00  8.00000000E-01
  8.00000000E-01  1.50000000E+00  1.50000000E+00  8.00000000E-01  8.00000000E-01
  1.50000000E+00  1.50000000E+00  8.00000000E-01  8.00000000E-01  1.50000000E+00
  1.50000000E+00  8.00000000E-01  8.00000000E-01  1.50000000E+00  1.50000000E+00
  8.00000000E-01  8.00000000E-01  1.50000000E+00  1.50000000E+00  8.00000000E-01
  8.00000000E-01  1.50000000E+00  1.50000000E+00  8.00000000E-01  8.00000000E-01
  1.50000000E+00  1.50000000E+00  8.00000000E-01  8.00000000E-01  1.50000000E+00
  1.50000000E+00  8.00000000E-01  8.00000000E-01  1.50000000E+00  1.50000000E+00
  8.00000000E-01  8.00000000E-01  1.50000000E+00  1.50000000E+00  8.00000000E-01
  8.00000000E-01  1.50000000E+00  1.50000000E+00  8.00000000E-01  8.00000000E-01
  1.50000000E+00  1.50000000E+00  8.00000000E-01  8.00000000E-01  1.50000000E+00
  1.50000000E+00  8.00000000E-01  8.00000000E-01  1.50000000E+00  1.50000000E+00
  8.00000000E-01  8.00000000E-01  1.50000000E+00  1.50000000E+00  8.00000000E-01
  8.00000000E-01  1.50000000E+00  1.50000000E+00  8.00000000E-01  8.00000000E-01
  1.50000000E+00  1.50000000E+00  8.00000000E-01  8.00000000E-01  1.50000000E+00
  1.50000000E+00  8.00000000E-01  8.00000000E-01  1.50000000E+00  1.50000000E+00
  8.00000000E-01  8.00000000E-01  1.50000000E+00  1.50000000E+00  8.00000000E-01
  8.00000000E-01  1.50000000E+00  1.50000000E+00  8.00000000E-01  8.00000000E-01
  1.50000000E+00  1.50000000E+00  8.00000000E-01  8.00000000E-01  1.50000000E+00
  1.50000000E+00  8.00000000E-01  8.00000000E-01  1.50000000E+00  1.50000000E+00
  8.00000000E-01  8.00000000E-01  1.50000000E+00  1.50000000E+00  8.00000000E-01
  8.00000000E-01  1.50000000E+00  1.50000000E+00  8.00000000E-01  8.00000000E-01
  1.50000000E+00  1.50000000E+00  8.00000000E-01  8.00000000E-01  1.50000000E+00
  1.50000000E+00  8.00000000E-01  8.00000000E-01  1.50000000E+00  1.50000000E+00
  8.00000000E-01  8.00000000E-01  1.50000000E+00  1.50000000E+00  8.00000000E-01
  8.00000000E-01  1.50000000E+00  1.50000000E+00  8.00000000E-01  8.00000000E-01
  1.50000000E+00  1.50000000E+00  8.00000000E-01  8.00000000E-01  1.50000000E+00
  1.50000000E+00  8.00000000E-01  8.00000000E-01  1.50000000E+00  1.50000000E+00
  8.00000000E-01  8.00000000E-01  1.50000000E+00  1.50000000E+00  8.00000000E-01
  8.00000000E-01  1.50000000E+00  1.50000000E+00  8.00000000E-01  8.00000000E-01
  1.50000000E+00  1.50000000E+00  8.00000000E-01  8.00000000E-01  1.50000000E+00
  1.50000000E+00  8.00000000E-01  8.00000000E-01  1.50000000E+00  1.50000000E+00
  8.00000000E-01  8.00000000E-01  1.50000000E+00  1.50000000E+00  8.00000000E-01
  8.00000000E-01  1.50000000E+00  1.50000000E+00  8.00000000E-01  8.00000000E-01
  1.50000000E+00  1.50000000E+00  8.00000000E-01  8.00000000E-01  1.50000000E+00
  1.50000000E+00  8.00000000E-01  8.00000000E-01  1.50000000E+00  1.50000000E+00
  8.00000000E-01  8.00000000E-01  1.50000000E+00  1.50000000E+00  8.00000000E-01
  8.00000000E-01  1.50000000E+00  1.50000000E+00  8.00000000E-01  8.00000000E-01
  1.50000000E+00  1.50000000E+00  8.00000000E-01  8.00000000E-01  1.50000000E+00
  1.50000000E+00  8.00000000E-01  8.00000000E-01  1.50000000E+00  1.50000000E+00
  8.00000000E-01  8.00000000E-01  1.50000000E+00  1.50000000E+00  8.00000000E-01
  8.00000000E-01  1.50000000E+00  1.50000000E+00  8.00000000E-01  8.00000000E-01
  1.50000000E+00  1.50000000E+00  8.00000000E-01  8.00000000E-01  1.50000000E+00
  1.50000000E+00  8.00000000E-01  8.00000000E-01  1.50000000E+00  1.50000000E+00
  8.00000000E-01  8.00000000E-01  1.50000000E+00  1.50000000E+00  8.00000000E-01
  8.00000000E-01  1.50000000E+00  1.50000000E+00  8.00000000E-01  8.00000000E-01
  1.50000000E+00  1.50000000E+00  8.00000000E-01  8.00000000E-01  1.50000000E+00
  1.50000000E+00  8.00000000E-01  8.00000000E-01  1.50000000E+00  1.50000000E+00
  8.00000000E-01  8.00000000E-01  1.50000000E+00  1.50000000E+00  8.00000000E-01
  8.00000000E-01  1.50000000E+00  1.50000000E+00  8.00000000E-01  8.00000000E-01
  1.50000000E+00  1.50000000E+00  8.00000000E-01  8.00000000E-01  1.50000000E+00
  1.50000000E+00  8.00000000E-01  8.00000000E-01  1.50000000E+00  1.50000000E+00
  8.00000000E-01  8.00000000E-01  1.50000000E+00  1.50000000E+00  8.00000000E-01
  8.00000000E-01  1.50000000E+00  1.50000000E+00  8.00000000E-01  8.00000000E-01
  1.50000000E+00  1.50000000E+00  8.00000000E-01  8.00000000E-01  1.50000000E+00
  1.50000000E+00  8.00000000E-01  8.00000000E-01  1.50000000E+00  1.50000000E+00
  8.00000000E-01  8.00000000E-01  1.50000000E+00  1.50000000E+00  8.00000000E-01
  8.00000000E-01  1.50000000E+00  1.50000000E+00  8.00000000E-01  8.00000000E-01
  1.50000000E+00  1.50000000E+00  8.00000000E-01  8.00000000E-01  1.50000000E+00
  1.50000000E+00  8.00000000E-01  8.00000000E-01  1.50000000E+00  1.50000000E+00
  8.00000000E-01  8.00000000E-01  1.50000000E+00  1.50000000E+00  8.00000000E-01
  8.00000000E-01  1.50000000E+00  1.50000000E+00  8.00000000E-01  8.00000000E-01
  1.50000000E+00  1.50000000E+00  8.00000000E-01  8.00000000E-01  1.50000000E+00
  1.50000000E+00  8.00000000E-01  8.00000000E-01  1.50000000E+00  1.50000000E+00
  8.00000000E-01  8.00000000E-01  1.50000000E+00  1.50000000E+00  8.00000000E-01
  8.00000000E-01  1.50000000E+00  1.50000000E+00  8.00000000E-01  8.00000000E-01
  1.50000000E+00  1.50000000E+00  8.00000000E-01  8.00000000E-01  1.50000000E+00
  1.50000000E+00  8.00000000E-01  8.00000000E-01  1.50000000E+00  1.50000000E+00
  8.00000000E-01  8.00000000E-01  1.50000000E+00  1.50000000E+00  8.00000000E-01
  8.00000000E-01  1.50000000E+00  1.50000000E+00  8.00000000E-01  8.00000000E-01
  1.50000000E+00  1.50000000E+00  8.00000000E-01  8.00000000E-01  1.50000000E+00
  1.50000000E+00  8.00000000E-01  8.00000000E-01  1.50000000E+00  1.50000000E+00
  8.00000000E-01  8.00000000E-01  1.50000000E+00  1.50000000E+00  8.00000000E-01
  8.00000000E-01  1.50000000E+00  1.50000000E+00  8.00000000E-01  8.00000000E-01
  1.50000000E+00  1.50000000E+00  8.00000000E-01  8.00000000E-01  1.50000000E+00
  1.50000000E+00  8.00000000E-01  8.00000000E-01  1.50000000E+00  1.50000000E+00
  8.00000000E-01  8.00000000E-01  1.50000000E+00  1.50000000E+00  8.00000000E-01
  8.00000000E-01  1.50000000E+00  1.50000000E+00  8.00000000E-01  8.00000000E-01
  1.50000000E+00  1.50000000E+00  8.00000000E-01  8.00000000E-01  1.50000000E+00
  1.50000000E+00  8.00000000E-01  8.00000000E-01  1.50000000E+00  1.50000000E+00
  8.00000000E-01  8.00000000E-01  1.50000000E+00  1.50000000E+00  8.00000000E-01
  8.00000000E-01  1.50000000E+00  1.50000000E+00  8.00000000E-01  8.00000000E-01
  1.50000000E+00  1.50000000E+00  8.00000000E-01  8.00000000E-01  1.50000000E+00
  1.50000000E+00  8.00000000E-01  8.00000000E-01  1.50000000E+00  1.50000000E+00
  8.00000000E-01  8.00000000E-01  1.50000000E+00  1.50000000E+00  8.00000000E-01
  8.00000000E-01  1.50000000E+00  1.50000000E+00  8.00000000E-01  8.00000000E-01
  1.50000000E+00  1.50000000E+00  8.00000000E-01  8.00000000E-01  1.50000000E+00
  1.50000000E+00  8.00000000E-01  8.00000000E-01  1.50000000E+00  1.50000000E+00
  8.00000000E-01  8.00000000E-01  1.50000000E+00  1.50000000E+00  8.00000000E-01
  8.00000000E-01  1.50000000E+00  1.50000000E+00  8.00000000E-01  8.00000000E-01
  1.50000000E+00  1.50000000E+00  8.00000000E-01  8.00000000E-01  1.50000000E+00
  1.50000000E+00  8.00000000E-01  8.00000000E-01  1.50000000E+00  1.50000000E+00
  8.00000000E-01  8.00000000E-01  1.50000000E+00  1.50000000E+00  8.00000000E-01
  8.00000000E-01  1.50000000E+00  1.50000000E+00  8.00000000E-01  8.00000000E-01
  1.50000000E+00  1.50000000E+00  8.00000000E-01  8.00000000E-01  1.50000000E+00
  1.50000000E+00  8.00000000E-01  8.00000000E-01  1.50000000E+00  1.50000000E+00
  8.00000000E-01  8.00000000E-01  1.50000000E+00  1.50000000E+00  8.00000000E-01
  8.00000000E-01  1.50000000E+00  1.50000000E+00  8.00000000E-01  8.00000000E-01
  1.50000000E+00  1.50000000E+00  8.00000000E-01  8.00000000E-01  1.50000000E+00
  1.50000000E+00  8.00000000E-01  8.00000000E-01  1.50000000E+00  1.50000000E+00
  8.00000000E-01  8.00000000E-01  1.50000000E+00  1.50000000E+00  8.00000000E-01
  8.00000000E-01  1.50000000E+00  1.50000000E+00  8.00000000E-01  8.00000000E-01
  1.50000000E+00  1.50000000E+00  8.00000000E-01  8.00000000E-01  1.50000000E+00
  1.50000000E+00  8.00000000E-01  8.00000000E-01  1.50000000E+00  1.50000000E+00
  8.00000000E-01  8.00000000E-01  1.50000000E+00  1.50000000E+00  8.00000000E-01
  8.00000000E-01  1.50000000E+00  1.50000000E+00  8.00000000E-01  8.00000000E-01
  1.50000000E+00  1.50000000E+00  8.00000000E-01  8.00000000E-01  1.50000000E+00
  1.50000000E+00  8.00000000E-01  8.00000000E-01  1.50000000E+00  1.50000000E+00
  8.00000000E-01  8.00000000E-01  1.50000000E+00  1.50000000E+00  8.00000000E-01
  8.00000000E-01  1.50000000E+00  1.50000000E+00  8.00000000E-01  8.00000000E-01
  1.50000000E+00  1.50000000E+00  8.00000000E-01  8.00000000E-01  1.50000000E+00
  1.50000000E+00  8.00000000E-01  8.00000000E-01  1.50000000E+00  1.50000000E+00
  8.00000000E-01  8.00000000E-01  1.50000000E+00  1.50000000E+00  8.00000000E-01
  8.00000000E-01  1.50000000E+00  1.50000000E+00  8.00000000E-01  8.00000000E-01
  1.50000000E+00  1.50000000E+00  8.00000000E-01  8.00000000E-01  1.50000000E+00
  1.50000000E+00  8.00000000E-01  8.00000000E-01  1.50000000E+00  1.50000000E+00
  8.00000000E-01  8.00000000E-01  1.50000000E+00  1.50000000E+00  8.00000000E-01
  8.00000000E-01  1.50000000E+00  1.50000000E+00  8.00000000E-01  8.00000000E-01
  1.50000000E+00  1.50000000E+00  8.00000000E-01  8.00000000E-01  1.50000000E+00
  1.50000000E+00  8.00000000E-01  8.00000000E-01  1.50000000E+00  1.50000000E+00
  8.00000000E-01  8.00000000E-01  1.50000000E+00  1.50000000E+00  8.00000000E-01
  8.00000000E-01  1.50000000E+00  1.50000000E+00  8.00000000E-01  8.00000000E-01
  1.50000000E+00  1.50000000E+00  8.00000000E-01  8.00000000E-01  1.50000000E+00
  1.50000000E+00  8.00000000E-01  8.00000000E-01  1.50000000E+00  1.50000000E+00
  8.00000000E-01  8.00000000E-01  1.50000000E+00  1.50000000E+00  8.00000000E-01
  8.00000000E-01  1.50000000E+00  1.50000000E+00  8.00000000E-01  8.00000000E-01
  1.50000000E+00  1.50000000E+00  8.00000000E-01  8.00000000E-01  1.50000000E+00
  1.50000000E+00  8.00000000E-01  8.00000000E-01  1.50000000E+00  1.50000000E+00
  8.00000000E-01  8.00000000E-01  1.50000000E+00  1.50000000E+00  8.00000000E-01
  8.00000000E-01  1.50000000E+00  1.50000000E+00  8.00000000E-01  8.00000000E-01
  1.50000000E+00  1.50000000E+00  8.00000000E-01  8.00000000E-01  1.50000000E+00
  1.50000000E+00  8.00000000E-01  8.00000000E-01  1.50000000E+00  1.50000000E+00
  8.00000000E-01  8.00000000E-01  1.50000000E+00  1.50000000E+00  8.00000000E-01
  8.00000000E-01  1.50000000E+00  1.50000000E+00  8.00000000E-01  8.00000000E-01
  1.50000000E+00  1.50000000E+00  8.00000000E-01  8.00000000E-01  1.50000000E+00
  1.50000000E+00  8.00000000E-01  8.00000000E-01  1.50000000E+00  1.50000000E+00
  8.00000000E-01  8.00000000E-01  1.50000000E+00  1.50000000E+00  8.00000000E-01
  8.00000000E-01  1.50000000E+00  1.50000000E+00  8.00000000E-01  8.00000000E-01
  1.50000000E+00  1.50000000E+00  8.00000000E-01  8.00000000E-01  1.50000000E+00
  1.50000000E+00  8.00000000E-01  8.00000000E-01  1.50000000E+00  1.50000000E+00
  8.00000000E-01  8.00000000E-01  1.50000000E+00  1.50000000E+00  8.00000000E-01
  8.00000000E-01  1.50000000E+00  1.50000000E+00  8.00000000E-01  8.00000000E-01
  1.50000000E+00  1.50000000E+00  8.00000000E-01  8.00000000E-01  1.50000000E+00
  1.50000000E+00  8.00000000E-01  8.00000000E-01  1.50000000E+00  1.50000000E+00
  8.00000000E-01  8.00000000E-01  1.50000000E+00  1.50000000E+00  8.00000000E-01
  8.00000000E-01  1.50000000E+00  1.50000000E+00  8.00000000E-01  8.00000000E-01
  1.50000000E+00  1.50000000E+00  8.00000000E-01  8.00000000E-01  1.50000000E+00
  1.50000000E+00  8.00000000E-01  8.00000000E-01  1.50000000E+00  1.50000000E+00
  8.00000000E-01  8.00000000E-01  1.50000000E+00  1.50000000E+00  8.00000000E-01
  8.00000000E-01  1.50000000E+00  1.50000000E+00  8.00000000E-01  8.00000000E-01
  1.50000000E+00  1.50000000E+00  8.00000000E-01  8.00000000E-01  1.50000000E+00
  1.50000000E+00  8.00000000E-01  8.00000000E-01  1.50000000E+00  1.50000000E+00
  8.00000000E-01  8.00000000E-01  1.50000000E+00  1.50000000E+00  8.00000000E-01
  8.00000000E-01  1.50000000E+00  1.50000000E+00  8.00000000E-01  8.00000000E-01
  1.50000000E+00  1.50000000E+00  8.00000000E-01  8.00000000E-01  1.50000000E+00
  1.50000000E+00  8.00000000E-01  8.00000000E-01  1.50000000E+00  1.50000000E+00
  8.00000000E-01  8.00000000E-01  1.50000000E+00  1.50000000E+00  8.00000000E-01
  8.00000000E-01  1.50000000E+00  1.50000000E+00  8.00000000E-01  8.00000000E-01
  1.50000000E+00  1.50000000E+00  8.00000000E-01  8.00000000E-01  1.50000000E+00
  1.50000000E+00  8.00000000E-01  8.00000000E-01  1.50000000E+00  1.50000000E+00
  8.00000000E-01  8.00000000E-01  1.50000000E+00  1.50000000E+00  8.00000000E-01
  8.00000000E-01  1.50000000E+00  1.50000000E+00  8.00000000E-01  8.00000000E-01
  1.50000000E+00  1.50000000E+00  8.00000000E-01  8.00000000E-01  1.50000000E+00
  1.50000000E+00  8.00000000E-01  8.00000000E-01  1.50000000E+00  1.50000000E+00
  8.00000000E-01  8.00000000E-01  1.50000000E+00  1.50000000E+00  8.00000000E-01
  8.00000000E-01  1.50000000E+00  1.50000000E+00  8.00000000E-01  8.00000000E-01
  1.50000000E+00  1.50000000E+00  8.00000000E-01  8.00000000E-01  1.50000000E+00
  1.50000000E+00  8.00000000E-01  8.00000000E-01  1.50000000E+00  1.50000000E+00
  8.00000000E-01  8.00000000E-01  1.50000000E+00  1.50000000E+00  8.00000000E-01
  8.00000000E-01  1.50000000E+00  1.50000000E+00  8.00000000E-01  8.00000000E-01
  1.50000000E+00  1.50000000E+00  8.00000000E-01  8.00000000E-01  1.50000000E+00
  1.50000000E+00  8.00000000E-01  8.00000000E-01  1.50000000E+00  1.50000000E+00
  8.00000000E-01  8.00000000E-01  1.50000000E+00  1.50000000E+00  8.00000000E-01
  8.00000000E-01  1.50000000E+00  1.50000000E+00  8.00000000E-01  8.00000000E-01
  1.50000000E+00  1.50000000E+00  8.00000000E-01  8.00000000E-01  1.50000000E+00
  1.50000000E+00  8.00000000E-01  8.00000000E-01  1.50000000E+00  1.50000000E+00
  8.00000000E-01  8.00000000E-01  1.50000000E+00  1.50000000E+00  8.00000000E-01
  8.00000000E-01  1.50000000E+00  1.50000000E+00  8.00000000E-01  8.00000000E-01
  1.50000000E+00  1.50000000E+00  8.00000000E-01  8.00000000E-01  1.50000000E+00
  1.50000000E+00  8.00000000E-01  8.00000000E-01  1.50000000E+00  1.50000000E+00
  8.00000000E-01  8.00000000E-01  1.50000000E+00  1.50000000E+00  8.00000000E-01
  8.00000000E-01  1.50000000E+00  1.50000000E+00  8.00000000E-01  8.00000000E-01
  1.50000000E+00  1.50000000E+00  8.00000000E-01  8.00000000E-01  1.50000000E+00
  1.50000000E+00  8.00000000E-01  8.00000000E-01  1.50000000E+00  1.50000000E+00
  8.00000000E-01  8.00000000E-01  1.50000000E+00  1.50000000E+00  8.00000000E-01
  8.00000000E-01  1.50000000E+00  1.50000000E+00  8.00000000E-01  8.00000000E-01
  1.50000000E+00  1.50000000E+00  8.00000000E-01  8.00000000E-01  1.50000000E+00
  1.50000000E+00  8.00000000E-01  8.00000000E-01  1.50000000E+00  1.50000000E+00
  8.00000000E-01  8.00000000E-01  1.50000000E+00  1.50000000E+00  8.00000000E-01
  8.00000000E-01  1.50000000E+00  1.50000000E+00  8.00000000E-01  8.00000000E-01
  1.50000000E+00  1.50000000E+00  8.00000000E-01  8.00000000E-01  1.50000000E+00
  1.50000000E+00  8.00000000E-01  8.00000000E-01  1.50000000E+00  1.50000000E+00
  8.00000000E-01  8.00000000E-01  1.50000000E+00  1.50000000E+00  8.00000000E-01
  8.00000000E-01  1.50000000E+00  1.50000000E+00  8.00000000E-01  8.00000000E-01
  1.50000000E+00  1.50000000E+00  8.00000000E-01  8.00000000E-01  1.50000000E+00
  1.50000000E+00  8.00000000E-01  8.00000000E-01  1.50000000E+00  1.50000000E+00
  8.00000000E-01  8.00000000E-01  1.50000000E+00  1.50000000E+00  8.00000000E-01
  8.00000000E-01  1.50000000E+00  1.50000000E+00  8.00000000E-01  8.00000000E-01
  1.50000000E+00  1.50000000E+00  8.00000000E-01  8.00000000E-01  1.50000000E+00
  1.50000000E+00  8.00000000E-01  8.00000000E-01  1.50000000E+00  1.50000000E+00
  8.00000000E-01  8.00000000E-01  1.50000000E+00  1.50000000E+00  8.00000000E-01
  8.00000000E-01  1.50000000E+00  1.50000000E+00  8.00000000E-01  8.00000000E-01
  1.50000000E+00  1.50000000E+00  8.00000000E-01  8.00000000E-01  1.50000000E+00
  1.50000000E+00  8.00000000E-01  8.00000000E-01  1.50000000E+00  1.50000000E+00
  8.00000000E-01  8.00000000E-01  1.50000000E+00  1.50000000E+00  8.00000000E-01
  8.00000000E-01  1.50000000E+00  1.50000000E+00  8.00000000E-01  8.00000000E-01
  1.50000000E+00  1.50000000E+00  8.00000000E-01  8.00000000E-01  1.50000000E+00
  1.50000000E+00  8.00000000E-01  8.00000000E-01  1.50000000E+00  1.50000000E+00
  8.00000000E-01  8.00000000E-01  1.50000000E+00  1.50000000E+00  8.00000000E-01
  8.00000000E-01  1.50000000E+00  1.50000000E+00  8.00000000E-01  8.00000000E-01
  1.50000000E+00  1.50000000E+00  8.00000000E-01  8.00000000E-01  1.50000000E+00
  1.50000000E+00  8.00000000E-01  8.00000000E-01  1.50000000E+00  1.50000000E+00
  8.00000000E-01  8.00000000E-01  1.50000000E+00  1.50000000E+00  8.00000000E-01
  8.00000000E-01  1.50000000E+00  1.50000000E+00  8.00000000E-01  8.00000000E-01
  1.50000000E+00  1.50000000E+00  8.00000000E-01  8.00000000E-01  1.50000000E+00
  1.50000000E+00  8.00000000E-01  8.00000000E-01  1.50000000E+00  1.50000000E+00
  8.00000000E-01  8.00000000E-01  1.50000000E+00  1.50000000E+00  8.00000000E-01
  8.00000000E-01  1.50000000E+00  1.50000000E+00  8.00000000E-01  8.00000000E-01
  1.50000000E+00  1.50000000E+00  8.00000000E-01  8.00000000E-01  1.50000000E+00
  1.50000000E+00  8.00000000E-01  8.00000000E-01  1.50000000E+00  1.50000000E+00
  8.00000000E-01  8.00000000E-01  1.50000000E+00  1.50000000E+00  8.00000000E-01
  8.00000000E-01  1.50000000E+00  1.50000000E+00  8.00000000E-01  8.00000000E-01
  1.50000000E+00  1.50000000E+00  8.00000000E-01  8.00000000E-01  1.50000000E+00
  1.50000000E+00  8.00000000E-01  8.00000000E-01  1.50000000E+00  1.50000000E+00
  8.00000000E-01  8.00000000E-01  1.50000000E+00  1.50000000E+00  8.00000000E-01
  8.00000000E-01  1.50000000E+00  1.50000000E+00  8.00000000E-01  8.00000000E-01
  1.50000000E+00  1.50000000E+00  8.00000000E-01  8.00000000E-01  1.50000000E+00
  1.50000000E+00  8.00000000E-01  8.00000000E-01  1.50000000E+00  1.50000000E+00
  8.00000000E-01  8.00000000E-01  1.50000000E+00  1.50000000E+00  8.00000000E-01
  8.00000000E-01  1.50000000E+00  1.50000000E+00  8.00000000E-01  8.00000000E-01
  1.50000000E+00  1.50000000E+00  8.00000000E-01  8.00000000E-01  1.50000000E+00
  1.50000000E+00  8.00000000E-01  8.00000000E-01  1.50000000E+00  1.50000000E+00
  8.00000000E-01  8.00000000E-01  1.50000000E+00  1.50000000E+00  8.00000000E-01
  8.00000000E-01  1.50000000E+00  1.50000000E+00  8.00000000E-01  8.00000000E-01
  1.50000000E+00  1.50000000E+00  8.00000000E-01  8.00000000E-01  1.50000000E+00
  1.50000000E+00  8.00000000E-01  8.00000000E-01  1.50000000E+00  1.50000000E+00
  8.00000000E-01  8.00000000E-01  1.50000000E+00  1.50000000E+00  8.00000000E-01
  8.00000000E-01  1.50000000E+00  1.50000000E+00  8.00000000E-01  8.00000000E-01
  1.50000000E+00  1.50000000E+00  8.00000000E-01  8.00000000E-01  1.50000000E+00
  1.50000000E+00  8.00000000E-01  8.00000000E-01  1.50000000E+00  1.50000000E+00
  8.00000000E-01  8.00000000E-01  1.50000000E+00  1.50000000E+00  8.00000000E-01
  8.00000000E-01  1.50000000E+00  1.50000000E+00  8.00000000E-01  8.00000000E-01
  1.50000000E+00  1.50000000E+00  8.00000000E-01  8.00000000E-01  1.50000000E+00
  1.50000000E+00  8.00000000E-01  8.00000000E-01  1.50000000E+00  1.50000000E+00
  8.00000000E-01  8.00000000E-01  1.50000000E+00  1.50000000E+00  8.00000000E-01
  8.00000000E-01  1.50000000E+00  1.50000000E+00  8.00000000E-01  8.00000000E-01
  1.50000000E+00  1.50000000E+00  8.00000000E-01  8.00000000E-01  1.50000000E+00
  1.50000000E+00  8.00000000E-01  8.00000000E-01  1.50000000E+00  1.50000000E+00
  8.00000000E-01  8.00000000E-01  1.50000000E+00  1.50000000E+00  8.00000000E-01
  8.00000000E-01  1.50000000E+00  1.50000000E+00  8.00000000E-01  8.00000000E-01
  1.50000000E+00  1.50000000E+00  8.00000000E-01  8.00000000E-01  1.50000000E+00
  1.50000000E+00  8.00000000E-01  8.00000000E-01  1.50000000E+00  1.50000000E+00
  8.00000000E-01  8.00000000E-01  1.50000000E+00  1.50000000E+00  8.00000000E-01
  8.00000000E-01  1.50000000E+00  1.50000000E+00  8.00000000E-01  8.00000000E-01
  1.50000000E+00  1.50000000E+00  8.00000000E-01  8.00000000E-01  1.50000000E+00
  1.50000000E+00  8.00000000E-01  8.00000000E-01  1.50000000E+00  1.50000000E+00
  8.00000000E-01  8.00000000E-01  1.50000000E+00  1.50000000E+00  8.00000000E-01
  8.00000000E-01  1.50000000E+00  1.50000000E+00  8.00000000E-01  8.00000000E-01
  1.50000000E+00  1.50000000E+00  8.00000000E-01  8.00000000E-01  1.50000000E+00
  1.50000000E+00  8.00000000E-01  8.00000000E-01  1.50000000E+00  1.50000000E+00
  8.00000000E-01  8.00000000E-01  1.50000000E+00  1.50000000E+00  8.00000000E-01
  8.00000000E-01  1.50000000E+00  1.50000000E+00  8.00000000E-01  8.00000000E-01
  1.50000000E+00  1.50000000E+00  8.00000000E-01  8.00000000E-01  1.50000000E+00
  1.50000000E+00  8.00000000E-01  8.00000000E-01  1.50000000E+00  1.50000000E+00
  8.00000000E-01  8.00000000E-01  1.50000000E+00  1.50000000E+00  8.00000000E-01
  8.00000000E-01  1.50000000E+00  1.50000000E+00  8.00000000E-01  8.00000000E-01
  1.50000000E+00  1.50000000E+00  8.00000000E-01  8.00000000E-01  1.50000000E+00
  1.50000000E+00  8.00000000E-01  8.00000000E-01  1.50000000E+00  1.50000000E+00
  8.00000000E-01  8.00000000E-01  1.50000000E+00  1.50000000E+00  8.00000000E-01
  8.00000000E-01  1.50000000E+00  1.50000000E+00  8.00000000E-01  8.00000000E-01
  1.50000000E+00  1.50000000E+00  8.00000000E-01  8.00000000E-01  1.50000000E+00
  1.50000000E+00  8.00000000E-01  8.00000000E-01  1.50000000E+00  1.50000000E+00
  8.00000000E-01  8.00000000E-01  1.50000000E+00  1.50000000E+00  8.00000000E-01
  8.00000000E-01  1.50000000E+00  1.50000000E+00  8.00000000E-01  8.00000000E-01
  1.50000000E+00  1.50000000E+00  8.00000000E-01  8.00000000E-01  1.50000000E+00
  1.50000000E+00  8.00000000E-01  8.00000000E-01  1.50000000E+00  1.50000000E+00
  8.00000000E-01  8.00000000E-01  1.50000000E+00  1.50000000E+00  8.00000000E-01
  8.00000000E-01  1.50000000E+00  1.50000000E+00  8.00000000E-01  8.00000000E-01
  1.50000000E+00  1.50000000E+00  8.00000000E-01  8.00000000E-01  1.50000000E+00
  1.50000000E+00  8.00000000E-01  8.00000000E-01  1.50000000E+00  1.50000000E+00
  8.00000000E-01  8.00000000E-01  1.50000000E+00  1.50000000E+00  8.00000000E-01
  8.00000000E-01  1.50000000E+00  1.50000000E+00  8.00000000E-01  8.00000000E-01
  1.50000000E+00  1.50000000E+00  8.00000000E-01  8.00000000E-01  1.50000000E+00
  1.50000000E+00  8.00000000E-01  8.00000000E-01  1.50000000E+00  1.50000000E+00
  8.00000000E-01  8.00000000E-01  1.50000000E+00  1.50000000E+00  8.00000000E-01
  8.00000000E-01  1.50000000E+00  1.50000000E+00  8.00000000E-01  8.00000000E-01
  1.50000000E+00  1.50000000E+00  8.00000000E-01  8.00000000E-01  1.50000000E+00
  1.50000000E+00  8.00000000E-01  8.00000000E-01  1.50000000E+00  1.50000000E+00
  8.00000000E-01  8.00000000E-01  1.50000000E+00  1.50000000E+00  8.00000000E-01
  8.00000000E-01  1.50000000E+00  1.50000000E+00  8.00000000E-01  8.00000000E-01
  1.50000000E+00  1.50000000E+00  8.00000000E-01  8.00000000E-01  1.50000000E+00
  1.50000000E+00  8.00000000E-01  8.00000000E-01  1.50000000E+00  1.50000000E+00
  8.00000000E-01  8.00000000E-01  1.50000000E+00  1.50000000E+00  8.00000000E-01
  8.00000000E-01  1.50000000E+00  1.50000000E+00  8.00000000E-01  8.00000000E-01
  1.50000000E+00  1.50000000E+00  8.00000000E-01  8.00000000E-01  1.50000000E+00
  1.50000000E+00  8.00000000E-01  8.00000000E-01  1.50000000E+00  1.50000000E+00
  8.00000000E-01  8.00000000E-01  1.50000000E+00  1.50000000E+00  8.00000000E-01
  8.00000000E-01  1.50000000E+00  1.50000000E+00  8.00000000E-01  8.00000000E-01
  1.50000000E+00  1.50000000E+00  8.00000000E-01  8.00000000E-01  1.50000000E+00
  1.50000000E+00  8.00000000E-01  8.00000000E-01  1.50000000E+00  1.50000000E+00
  8.00000000E-01  8.00000000E-01  1.50000000E+00  1.50000000E+00  8.00000000E-01
  8.00000000E-01  1.50000000E+00  1.50000000E+00  8.00000000E-01  8.00000000E-01
  1.50000000E+00  1.50000000E+00  8.00000000E-01  8.00000000E-01  1.50000000E+00
  1.50000000E+00  8.00000000E-01  8.00000000E-01  1.50000000E+00  1.50000000E+00
  8.00000000E-01  8.00000000E-01  1.50000000E+00  1.50000000E+00  8.00000000E-01
  8.00000000E-01  1.50000000E+00  1.50000000E+00  8.00000000E-01  8.00000000E-01
  1.50000000E+00  1.50000000E+00  8.00000000E-01  8.00000000E-01  1.50000000E+00
  1.50000000E+00  8.00000000E-01  8.00000000E-01  1.50000000E+00  1.50000000E+00
  8.00000000E-01  8.00000000E-01  1.50000000E+00  1.50000000E+00  8.00000000E-01
  8.00000000E-01  1.50000000E+00  1.50000000E+00  8.00000000E-01  8.00000000E-01
  1.50000000E+00  1.50000000E+00  8.00000000E-01  8.00000000E-01  1.50000000E+00
  1.50000000E+00  8.00000000E-01  8.00000000E-01  1.50000000E+00  1.50000000E+00
  8.00000000E-01  8.00000000E-01  1.50000000E+00  1.50000000E+00  8.00000000E-01
  8.00000000E-01  1.50000000E+00  1.50000000E+00  8.00000000E-01  8.00000000E-01
  1.50000000E+00  1.50000000E+00  8.00000000E-01  8.00000000E-01  1.50000000E+00
  1.50000000E+00  8.00000000E-01  8.00000000E-01  1.50000000E+00  1.50000000E+00
  8.00000000E-01  8.00000000E-01  1.50000000E+00  1.50000000E+00  8.00000000E-01
  8.00000000E-01  1.50000000E+00  1.50000000E+00  8.00000000E-01  8.00000000E-01
  1.50000000E+00  1.50000000E+00  8.00000000E-01  8.00000000E-01  1.50000000E+00
  1.50000000E+00  8.00000000E-01  8.00000000E-01  1.50000000E+00  1.50000000E+00
  8.00000000E-01  8.00000000E-01  1.50000000E+00  1.50000000E+00  8.00000000E-01
  8.00000000E-01  1.50000000E+00  1.50000000E+00  8.00000000E-01  8.00000000E-01
  1.50000000E+00  1.50000000E+00  8.00000000E-01  8.00000000E-01  1.50000000E+00
  1.50000000E+00  8.00000000E-01  8.00000000E-01  1.50000000E+00  1.50000000E+00
  8.00000000E-01  8.00000000E-01  1.50000000E+00  1.50000000E+00  8.00000000E-01
  8.00000000E-01  1.50000000E+00  1.50000000E+00  8.00000000E-01  8.00000000E-01
  1.50000000E+00  1.50000000E+00  8.00000000E-01  8.00000000E-01  1.50000000E+00
  1.50000000E+00  8.00000000E-01  8.00000000E-01  1.50000000E+00  1.50000000E+00
  8.00000000E-01  8.00000000E-01  1.50000000E+00  1.50000000E+00  8.00000000E-01
  8.00000000E-01  1.50000000E+00  1.50000000E+00  8.00000000E-01  8.00000000E-01
  1.50000000E+00  1.50000000E+00  8.00000000E-01  8.00000000E-01  1.50000000E+00
  1.50000000E+00  8.00000000E-01  8.00000000E-01  1.50000000E+00  1.50000000E+00
  8.00000000E-01  8.00000000E-01  1.50000000E+00  1.50000000E+00  8.00000000E-01
  8.00000000E-01  1.50000000E+00  1.50000000E+00  8.00000000E-01  8.00000000E-01
  1.50000000E+00  1.50000000E+00  8.00000000E-01  8.00000000E-01  1.50000000E+00
  1.50000000E+00  8.00000000E-01  8.00000000E-01  1.50000000E+00  1.50000000E+00
  8.00000000E-01  8.00000000E-01  1.50000000E+00  1.50000000E+00  8.00000000E-01
  8.00000000E-01  1.50000000E+00  1.50000000E+00  8.00000000E-01  8.00000000E-01
  1.50000000E+00  1.50000000E+00  8.00000000E-01  8.00000000E-01  1.50000000E+00
  1.50000000E+00  8.00000000E-01  8.00000000E-01  1.50000000E+00  1.50000000E+00
  8.00000000E-01  8.00000000E-01  1.50000000E+00  1.50000000E+00  8.00000000E-01
  8.00000000E-01  1.50000000E+00  1.50000000E+00  8.00000000E-01  8.00000000E-01
  1.50000000E+00  1.50000000E+00  8.00000000E-01  8.00000000E-01  1.50000000E+00
  1.50000000E+00  8.00000000E-01  8.00000000E-01  1.50000000E+00  1.50000000E+00
  8.00000000E-01  8.00000000E-01  1.50000000E+00  1.50000000E+00  8.00000000E-01
  8.00000000E-01  1.50000000E+00  1.50000000E+00  8.00000000E-01  8.00000000E-01
  1.50000000E+00  1.50000000E+00  8.00000000E-01  8.00000000E-01  1.50000000E+00
  1.50000000E+00  8.00000000E-01  8.00000000E-01  1.50000000E+00  1.50000000E+00
  8.00000000E-01  8.00000000E-01  1.50000000E+00  1.50000000E+00  8.00000000E-01
  8.00000000E-01  1.50000000E+00  1.50000000E+00  8.00000000E-01  8.00000000E-01
  1.50000000E+00  1.50000000E+00  8.00000000E-01  8.00000000E-01  1.50000000E+00
  1.50000000E+00  8.00000000E-01  8.00000000E-01  1.50000000E+00  1.50000000E+00
  8.00000000E-01  8.00000000E-01  1.50000000E+00  1.50000000E+00  8.00000000E-01
  8.00000000E-01  1.50000000E+00  1.50000000E+00  8.00000000E-01  8.00000000E-01
  1.50000000E+00  1.50000000E+00  8.00000000E-01  8.00000000E-01  1.50000000E+00
  1.50000000E+00  8.00000000E-01  8.00000000E-01  1.50000000E+00  1.50000000E+00
  8.00000000E-01  8.00000000E-01  1.50000000E+00  1.50000000E+00  8.00000000E-01
  8.00000000E-01  1.50000000E+00  1.50000000E+00  8.00000000E-01  8.00000000E-01
  1.50000000E+00  1.50000000E+00  8.00000000E-01  8.00000000E-01  1.50000000E+00
  1.50000000E+00  8.00000000E-01  8.00000000E-01  1.50000000E+00  1.50000000E+00
  8.00000000E-01  8.00000000E-01  1.50000000E+00  1.50000000E+00  8.00000000E-01
  8.00000000E-01  1.50000000E+00  1.50000000E+00  8.00000000E-01  8.00000000E-01
  1.50000000E+00  1.50000000E+00  8.00000000E-01  8.00000000E-01  1.50000000E+00
  1.50000000E+00  8.00000000E-01  8.00000000E-01  1.50000000E+00  1.50000000E+00
  8.00000000E-01  8.00000000E-01  1.50000000E+00  1.50000000E+00  8.00000000E-01
  8.00000000E-01  1.50000000E+00  1.50000000E+00  8.00000000E-01  8.00000000E-01
  1.50000000E+00  1.50000000E+00  8.00000000E-01  8.00000000E-01  1.50000000E+00
  1.50000000E+00  8.00000000E-01  8.00000000E-01  1.50000000E+00  1.50000000E+00
  8.00000000E-01  8.00000000E-01  1.50000000E+00  1.50000000E+00  8.00000000E-01
  8.00000000E-01  1.50000000E+00  1.50000000E+00  8.00000000E-01  8.00000000E-01
  1.50000000E+00  1.50000000E+00  8.00000000E-01  8.00000000E-01  1.50000000E+00
  1.50000000E+00  8.00000000E-01  8.00000000E-01  1.50000000E+00  1.50000000E+00
  8.00000000E-01  8.00000000E-01  1.50000000E+00  1.50000000E+00  8.00000000E-01
  8.00000000E-01  1.50000000E+00  1.50000000E+00  8.00000000E-01  8.00000000E-01
  1.50000000E+00  1.50000000E+00  8.00000000E-01  8.00000000E-01  1.50000000E+00
  1.50000000E+00  8.00000000E-01  8.00000000E-01  1.50000000E+00  1.50000000E+00
  8.00000000E-01  8.00000000E-01  1.50000000E+00  1.50000000E+00  8.00000000E-01
  8.00000000E-01  1.50000000E+00  1.50000000E+00  8.00000000E-01  8.00000000E-01
  1.50000000E+00  1.50000000E+00  8.00000000E-01  8.00000000E-01  1.50000000E+00
  1.50000000E+00  8.00000000E-01  8.00000000E-01  1.50000000E+00  1.50000000E+00
  8.00000000E-01  8.00000000E-01  1.50000000E+00  1.50000000E+00  8.00000000E-01
  8.00000000E-01  1.50000000E+00  1.50000000E+00  8.00000000E-01  8.00000000E-01
  1.50000000E+00  1.50000000E+00  8.00000000E-01  8.00000000E-01  1.50000000E+00
  1.50000000E+00  8.00000000E-01  8.00000000E-01  1.50000000E+00  1.50000000E+00
  8.00000000E-01  8.00000000E-01  1.50000000E+00  1.50000000E+00  8.00000000E-01
  8.00000000E-01  1.50000000E+00  1.50000000E+00  8.00000000E-01  8.00000000E-01
  1.50000000E+00  1.50000000E+00  8.00000000E-01  8.00000000E-01  1.50000000E+00
  1.50000000E+00  8.00000000E-01  8.00000000E-01  1.50000000E+00  1.50000000E+00
  8.00000000E-01  8.00000000E-01  1.50000000E+00  1.50000000E+00  8.00000000E-01
  8.00000000E-01  1.50000000E+00  1.50000000E+00  8.00000000E-01  8.00000000E-01
  1.50000000E+00  1.50000000E+00  8.00000000E-01  8.00000000E-01  1.50000000E+00
  1.50000000E+00  8.00000000E-01  8.00000000E-01  1.50000000E+00  1.50000000E+00
  8.00000000E-01  8.00000000E-01  1.50000000E+00  1.50000000E+00  8.00000000E-01
  8.00000000E-01  1.50000000E+00  1.50000000E+00  8.00000000E-01  8.00000000E-01
  1.50000000E+00  1.50000000E+00  8.00000000E-01  8.00000000E-01  1.50000000E+00
  1.50000000E+00  8.00000000E-01  8.00000000E-01  1.50000000E+00  1.50000000E+00
  8.00000000E-01  8.00000000E-01  1.50000000E+00  1.50000000E+00  8.00000000E-01
  8.00000000E-01  1.50000000E+00  1.50000000E+00  8.00000000E-01  8.00000000E-01
  1.50000000E+00  1.50000000E+00  8.00000000E-01  8.00000000E-01  1.50000000E+00
  1.50000000E+00  8.00000000E-01  8.00000000E-01  1.50000000E+00  1.50000000E+00
  8.00000000E-01  8.00000000E-01  1.50000000E+00  1.50000000E+00  8.00000000E-01
  8.00000000E-01  1.50000000E+00  1.50000000E+00  8.00000000E-01  8.00000000E-01
  1.50000000E+00  1.50000000E+00  8.00000000E-01  8.00000000E-01  1.50000000E+00
  1.50000000E+00  8.00000000E-01  8.00000000E-01  1.50000000E+00  1.50000000E+00
  8.00000000E-01  8.00000000E-01  1.50000000E+00  1.50000000E+00  8.00000000E-01
  8.00000000E-01  1.50000000E+00  1.50000000E+00  8.00000000E-01  8.00000000E-01
  1.50000000E+00  1.50000000E+00  8.00000000E-01  8.00000000E-01  1.50000000E+00
  1.50000000E+00  8.00000000E-01  8.00000000E-01  1.50000000E+00  1.50000000E+00
  8.00000000E-01  8.00000000E-01  1.50000000E+00  1.50000000E+00  8.00000000E-01
  8.00000000E-01  1.50000000E+00  1.50000000E+00  8.00000000E-01  8.00000000E-01
  1.50000000E+00  1.50000000E+00  8.00000000E-01  8.00000000E-01  1.50000000E+00
  1.50000000E+00  8.00000000E-01  8.00000000E-01  1.50000000E+00  1.50000000E+00
  8.00000000E-01  8.00000000E-01  1.50000000E+00  1.50000000E+00  8.00000000E-01
  8.00000000E-01  1.50000000E+00  1.50000000E+00  8.00000000E-01  8.00000000E-01
  1.50000000E+00  1.50000000E+00  8.00000000E-01  8.00000000E-01  1.50000000E+00
  1.50000000E+00  8.00000000E-01  8.00000000E-01  1.50000000E+00  1.50000000E+00
  8.00000000E-01  8.00000000E-01  1.50000000E+00  1.50000000E+00  8.00000000E-01
  8.00000000E-01  1.50000000E+00  1.50000000E+00  8.00000000E-01  8.00000000E-01
  1.50000000E+00  1.50000000E+00  8.00000000E-01  8.00000000E-01  1.50000000E+00
  1.50000000E+00  8.00000000E-01  8.00000000E-01  1.50000000E+00  1.50000000E+00
  8.00000000E-01  8.00000000E-01  1.50000000E+00  1.50000000E+00  8.00000000E-01
  8.00000000E-01  1.50000000E+00  1.50000000E+00  8.00000000E-01  8.00000000E-01
  1.50000000E+00  1.50000000E+00  8.00000000E-01  8.00000000E-01  1.50000000E+00
  1.50000000E+00  8.00000000E-01  8.00000000E-01  1.50000000E+00  1.50000000E+00
  8.00000000E-01  8.00000000E-01  1.50000000E+00  1.50000000E+00  8.00000000E-01
  8.00000000E-01  1.50000000E+00  1.50000000E+00  8.00000000E-01  8.00000000E-01
  1.50000000E+00  1.50000000E+00  8.00000000E-01  8.00000000E-01  1.50000000E+00
  1.50000000E+00  8.00000000E-01  8.00000000E-01  1.50000000E+00  1.50000000E+00
  8.00000000E-01  8.00000000E-01  1.50000000E+00  1.50000000E+00  8.00000000E-01
  8.00000000E-01  1.50000000E+00  1.50000000E+00  8.00000000E-01  8.00000000E-01
  1.50000000E+00  1.50000000E+00  8.00000000E-01  8.00000000E-01  1.50000000E+00
  1.50000000E+00  8.00000000E-01  8.00000000E-01  1.50000000E+00  1.50000000E+00
  8.00000000E-01  8.00000000E-01  1.50000000E+00  1.50000000E+00  8.00000000E-01
  8.00000000E-01  1.50000000E+00  1.50000000E+00  8.00000000E-01  8.00000000E-01
  1.50000000E+00  1.50000000E+00  8.00000000E-01  8.00000000E-01  1.50000000E+00
  1.50000000E+00  8.00000000E-01  8.00000000E-01  1.50000000E+00  1.50000000E+00
  8.00000000E-01  8.00000000E-01  1.50000000E+00  1.50000000E+00  8.00000000E-01
  8.00000000E-01  1.50000000E+00  1.50000000E+00  8.00000000E-01  8.00000000E-01
  1.50000000E+00  1.50000000E+00  8.00000000E-01  8.00000000E-01  1.50000000E+00
  1.50000000E+00  8.00000000E-01  8.00000000E-01  1.50000000E+00  1.50000000E+00
  8.00000000E-01  8.00000000E-01  1.50000000E+00  1.50000000E+00  8.00000000E-01
  8.00000000E-01  1.50000000E+00  1.50000000E+00  8.00000000E-01  8.00000000E-01
  1.50000000E+00  1.50000000E+00  8.00000000E-01  8.00000000E-01  1.50000000E+00
  1.50000000E+00  8.00000000E-01  8.00000000E-01  1.50000000E+00  1.50000000E+00
  8.00000000E-01  8.00000000E-01  1.50000000E+00  1.50000000E+00  8.00000000E-01
  8.00000000E-01  1.50000000E+00  1.50000000E+00  8.00000000E-01  8.00000000E-01
  1.50000000E+00  1.50000000E+00  8.00000000E-01  8.00000000E-01  1.50000000E+00
  1.50000000E+00  8.00000000E-01  8.00000000E-01  1.50000000E+00  1.50000000E+00
  8.00000000E-01  8.00000000E-01  1.50000000E+00  1.50000000E+00  8.00000000E-01
  8.00000000E-01  1.50000000E+00  1.50000000E+00  8.00000000E-01  8.00000000E-01
  1.50000000E+00  1.50000000E+00  8.00000000E-01  8.00000000E-01  1.50000000E+00
  1.50000000E+00  8.00000000E-01  8.00000000E-01  1.50000000E+00  1.50000000E+00
  8.00000000E-01  8.00000000E-01  1.50000000E+00  1.50000000E+00  8.00000000E-01
  8.00000000E-01  1.50000000E+00  1.50000000E+00  8.00000000E-01  8.00000000E-01
  1.50000000E+00  1.50000000E+00  8.00000000E-01  8.00000000E-01  1.50000000E+00
  1.50000000E+00  8.00000000E-01  8.00000000E-01  1.50000000E+00  1.50000000E+00
  8.00000000E-01  8.00000000E-01  1.50000000E+00  1.50000000E+00  8.00000000E-01
  8.00000000E-01  1.50000000E+00  1.50000000E+00  8.00000000E-01  8.00000000E-01
  1.50000000E+00  1.50000000E+00  8.00000000E-01  8.00000000E-01  1.50000000E+00
  1.50000000E+00  8.00000000E-01  8.00000000E-01  1.50000000E+00  1.50000000E+00
  8.00000000E-01  8.00000000E-01  1.50000000E+00  1.50000000E+00  8.00000000E-01
  8.00000000E-01  1.50000000E+00  1.50000000E+00  8.00000000E-01  8.00000000E-01
  1.50000000E+00  1.50000000E+00  8.00000000E-01  8.00000000E-01  1.50000000E+00
  1.50000000E+00  8.00000000E-01  8.00000000E-01  1.50000000E+00  1.50000000E+00
  8.00000000E-01  8.00000000E-01  1.50000000E+00  1.50000000E+00  8.00000000E-01
  8.00000000E-01  1.50000000E+00  1.50000000E+00  8.00000000E-01  8.00000000E-01
  1.50000000E+00  1.50000000E+00  8.00000000E-01  8.00000000E-01  1.50000000E+00
  1.50000000E+00  8.00000000E-01  8.00000000E-01  1.50000000E+00  1.50000000E+00
  8.00000000E-01  8.00000000E-01  1.50000000E+00  1.50000000E+00  8.00000000E-01
  8.00000000E-01  1.50000000E+00  1.50000000E+00  8.00000000E-01  8.00000000E-01
  1.50000000E+00  1.50000000E+00  8.00000000E-01  8.00000000E-01  1.50000000E+00
  1.50000000E+00  8.00000000E-01  8.00000000E-01  1.50000000E+00  1.50000000E+00
  8.00000000E-01  8.00000000E-01  1.50000000E+00  1.50000000E+00  8.00000000E-01
  8.00000000E-01  1.50000000E+00  1.50000000E+00  8.00000000E-01  8.00000000E-01
  1.50000000E+00  1.50000000E+00  8.00000000E-01  8.00000000E-01  1.50000000E+00
  1.50000000E+00  8.00000000E-01  8.00000000E-01  1.50000000E+00  1.50000000E+00
  8.00000000E-01  8.00000000E-01  1.50000000E+00  1.50000000E+00  8.00000000E-01
  8.00000000E-01  1.50000000E+00  1.50000000E+00  8.00000000E-01  8.00000000E-01
  1.50000000E+00  1.50000000E+00  8.00000000E-01  8.00000000E-01  1.50000000E+00
  1.50000000E+00  8.00000000E-01  8.00000000E-01  1.50000000E+00  1.50000000E+00
  8.00000000E-01  8.00000000E-01  1.50000000E+00  1.50000000E+00  8.00000000E-01
  8.00000000E-01  1.50000000E+00  1.50000000E+00  8.00000000E-01  8.00000000E-01
  1.50000000E+00  1.50000000E+00  8.00000000E-01  8.00000000E-01  1.50000000E+00
  1.50000000E+00  8.00000000E-01  8.00000000E-01  1.50000000E+00  1.50000000E+00
  8.00000000E-01  8.00000000E-01  1.50000000E+00  1.50000000E+00  8.00000000E-01
  8.00000000E-01  1.50000000E+00  1.50000000E+00  8.00000000E-01  8.00000000E-01
  1.50000000E+00  1.50000000E+00  8.00000000E-01  8.00000000E-01  1.50000000E+00
  1.50000000E+00  8.00000000E-01  8.00000000E-01  1.50000000E+00  1.50000000E+00
  8.00000000E-01  8.00000000E-01  1.50000000E+00  1.50000000E+00  8.00000000E-01
  8.00000000E-01  1.50000000E+00  1.50000000E+00  8.00000000E-01  8.00000000E-01
  1.50000000E+00  1.50000000E+00  8.00000000E-01  8.00000000E-01  1.50000000E+00
  1.50000000E+00  8.00000000E-01  8.00000000E-01  1.50000000E+00  1.50000000E+00
  8.00000000E-01  8.00000000E-01  1.50000000E+00  1.50000000E+00  8.00000000E-01
  8.00000000E-01  1.50000000E+00  1.50000000E+00  8.00000000E-01  8.00000000E-01
  1.50000000E+00  1.50000000E+00  8.00000000E-01  8.00000000E-01  1.50000000E+00
  1.50000000E+00  8.00000000E-01  8.00000000E-01  1.50000000E+00  1.50000000E+00
  8.00000000E-01  8.00000000E-01  1.50000000E+00  1.50000000E+00  8.00000000E-01
  8.00000000E-01  1.50000000E+00  1.50000000E+00  8.00000000E-01  8.00000000E-01
  1.50000000E+00  1.50000000E+00  8.00000000E-01  8.00000000E-01  1.50000000E+00
  1.50000000E+00  8.00000000E-01  8.00000000E-01  1.50000000E+00  1.50000000E+00
  8.00000000E-01  8.00000000E-01  1.50000000E+00  1.50000000E+00  8.00000000E-01
  8.00000000E-01  1.50000000E+00  1.50000000E+00  8.00000000E-01  8.00000000E-01
  1.50000000E+00  1.50000000E+00  8.00000000E-01  8.00000000E-01  1.50000000E+00
  1.50000000E+00  8.00000000E-01  8.00000000E-01  1.50000000E+00  1.50000000E+00
  8.00000000E-01  8.00000000E-01  1.50000000E+00  1.50000000E+00  8.00000000E-01
  8.00000000E-01  1.50000000E+00  1.50000000E+00  8.00000000E-01  8.00000000E-01
  1.50000000E+00  1.50000000E+00  8.00000000E-01  8.00000000E-01  1.50000000E+00
  1.50000000E+00  8.00000000E-01  8.00000000E-01  1.50000000E+00  1.50000000E+00
  8.00000000E-01  8.00000000E-01  1.50000000E+00  1.50000000E+00  8.00000000E-01
  8.00000000E-01  1.50000000E+00  1.50000000E+00  8.00000000E-01  8.00000000E-01
  1.50000000E+00  1.50000000E+00  8.00000000E-01  8.00000000E-01  1.50000000E+00
  1.50000000E+00  8.00000000E-01  8.00000000E-01  1.50000000E+00  1.50000000E+00
  8.00000000E-01  8.00000000E-01  1.50000000E+00  1.50000000E+00  8.00000000E-01
  8.00000000E-01  1.50000000E+00  1.50000000E+00  8.00000000E-01  8.00000000E-01
  1.50000000E+00  1.50000000E+00  8.00000000E-01  8.00000000E-01  1.50000000E+00
  1.50000000E+00  8.00000000E-01  8.00000000E-01  1.50000000E+00  1.50000000E+00
  8.00000000E-01  8.00000000E-01  1.50000000E+00  1.50000000E+00  8.00000000E-01
  8.00000000E-01  1.50000000E+00  1.50000000E+00  8.00000000E-01  8.00000000E-01
  1.50000000E+00  1.50000000E+00  8.00000000E-01  8.00000000E-01  1.50000000E+00
  1.50000000E+00  8.00000000E-01  8.00000000E-01  1.50000000E+00  1.50000000E+00
  8.00000000E-01  8.00000000E-01  1.50000000E+00  1.50000000E+00  8.00000000E-01
  8.00000000E-01  1.50000000E+00  1.50000000E+00  8.00000000E-01  8.00000000E-01
  1.50000000E+00  1.50000000E+00  8.00000000E-01  8.00000000E-01  1.50000000E+00
  1.50000000E+00  8.00000000E-01  8.00000000E-01  1.50000000E+00  1.50000000E+00
  8.00000000E-01  8.00000000E-01  1.50000000E+00  1.50000000E+00  8.00000000E-01
  8.00000000E-01  1.50000000E+00  1.50000000E+00  8.00000000E-01  8.00000000E-01
  1.50000000E+00  1.50000000E+00  8.00000000E-01  8.00000000E-01  1.50000000E+00
  1.50000000E+00  8.00000000E-01  8.00000000E-01  1.50000000E+00  1.50000000E+00
  8.00000000E-01  8.00000000E-01  1.50000000E+00  1.50000000E+00  8.00000000E-01
  8.00000000E-01  1.50000000E+00  1.50000000E+00  8.00000000E-01  8.00000000E-01
  1.50000000E+00  1.50000000E+00  8.00000000E-01  8.00000000E-01  1.50000000E+00
  1.50000000E+00  8.00000000E-01  8.00000000E-01  1.50000000E+00  1.50000000E+00
  8.00000000E-01  8.00000000E-01  1.50000000E+00  1.50000000E+00  8.00000000E-01
  8.00000000E-01  1.50000000E+00  1.50000000E+00  8.00000000E-01  8.00000000E-01
  1.50000000E+00  1.50000000E+00  8.00000000E-01  8.00000000E-01  1.50000000E+00
  1.50000000E+00  8.00000000E-01  8.00000000E-01  1.50000000E+00  1.50000000E+00
  8.00000000E-01  8.00000000E-01  1.50000000E+00  1.50000000E+00  8.00000000E-01
  8.00000000E-01  1.50000000E+00  1.50000000E+00  8.00000000E-01  8.00000000E-01
  1.50000000E+00  1.50000000E+00  8.00000000E-01  8.00000000E-01  1.50000000E+00
  1.50000000E+00  8.00000000E-01  8.00000000E-01  1.50000000E+00  1.50000000E+00
  8.00000000E-01  8.00000000E-01  1.50000000E+00  1.50000000E+00  8.00000000E-01
  8.00000000E-01  1.50000000E+00  1.50000000E+00  8.00000000E-01  8.00000000E-01
  1.50000000E+00  1.50000000E+00  8.00000000E-01  8.00000000E-01  1.50000000E+00
  1.50000000E+00  8.00000000E-01  8.00000000E-01  1.50000000E+00  1.50000000E+00
  8.00000000E-01  8.00000000E-01  1.50000000E+00  1.50000000E+00  8.00000000E-01
  8.00000000E-01  1.50000000E+00  1.50000000E+00  8.00000000E-01  8.00000000E-01
  1.50000000E+00  1.50000000E+00  8.00000000E-01  8.00000000E-01  1.50000000E+00
  1.50000000E+00  8.00000000E-01  8.00000000E-01  1.50000000E+00  1.50000000E+00
  8.00000000E-01  8.00000000E-01  1.50000000E+00  1.50000000E+00  8.00000000E-01
  8.00000000E-01  1.50000000E+00  1.50000000E+00  8.00000000E-01  8.00000000E-01
  1.50000000E+00  1.50000000E+00  8.00000000E-01  8.00000000E-01  1.50000000E+00
  1.50000000E+00  8.00000000E-01  8.00000000E-01  1.50000000E+00  1.50000000E+00
  8.00000000E-01  8.00000000E-01  1.50000000E+00  1.50000000E+00  8.00000000E-01
  8.00000000E-01  1.50000000E+00  1.50000000E+00  8.00000000E-01  8.00000000E-01
  1.50000000E+00  1.50000000E+00  8.00000000E-01  8.00000000E-01  1.50000000E+00
  1.50000000E+00  8.00000000E-01  8.00000000E-01  1.50000000E+00  1.50000000E+00
  8.00000000E-01  8.00000000E-01  1.50000000E+00  1.50000000E+00  8.00000000E-01
  8.00000000E-01  1.50000000E+00  1.50000000E+00  8.00000000E-01  8.00000000E-01
  1.50000000E+00  1.50000000E+00  8.00000000E-01  8.00000000E-01  1.50000000E+00
  1.50000000E+00  8.00000000E-01  8.00000000E-01  1.50000000E+00  1.50000000E+00
  8.00000000E-01  8.00000000E-01  1.50000000E+00  1.50000000E+00  8.00000000E-01
  8.00000000E-01  1.50000000E+00  1.50000000E+00  8.00000000E-01  8.00000000E-01
  1.50000000E+00  1.50000000E+00  8.00000000E-01  8.00000000E-01  1.50000000E+00
  1.50000000E+00  8.00000000E-01  8.00000000E-01  1.50000000E+00  1.50000000E+00
  8.00000000E-01  8.00000000E-01  1.50000000E+00  1.50000000E+00  8.00000000E-01
  8.00000000E-01  1.50000000E+00  1.50000000E+00  8.00000000E-01  8.00000000E-01
  1.50000000E+00  1.50000000E+00  8.00000000E-01  8.00000000E-01  1.50000000E+00
  1.50000000E+00  8.00000000E-01  8.00000000E-01  1.50000000E+00  1.50000000E+00
  8.00000000E-01  8.00000000E-01  1.50000000E+00  1.50000000E+00  8.00000000E-01
  8.00000000E-01  1.50000000E+00  1.50000000E+00  8.00000000E-01  8.00000000E-01
  1.50000000E+00  1.50000000E+00  8.00000000E-01  8.00000000E-01  1.50000000E+00
  1.50000000E+00  8.00000000E-01  8.00000000E-01  1.50000000E+00  1.50000000E+00
  8.00000000E-01  8.00000000E-01  1.50000000E+00  1.50000000E+00  8.00000000E-01
  8.00000000E-01  1.50000000E+00  1.50000000E+00  8.00000000E-01  8.00000000E-01
  1.50000000E+00  1.50000000E+00  8.00000000E-01  8.00000000E-01  1.50000000E+00
  1.50000000E+00  8.00000000E-01  8.00000000E-01  1.50000000E+00  1.50000000E+00
  8.00000000E-01  8.00000000E-01  1.50000000E+00  1.50000000E+00  8.00000000E-01
  8.00000000E-01  1.50000000E+00  1.50000000E+00  8.00000000E-01  8.00000000E-01
  1.50000000E+00  1.50000000E+00  8.00000000E-01  8.00000000E-01  1.50000000E+00
  1.50000000E+00  8.00000000E-01  8.00000000E-01  1.50000000E+00  1.50000000E+00
  8.00000000E-01  8.00000000E-01  1.50000000E+00  1.50000000E+00  8.00000000E-01
  8.00000000E-01  1.50000000E+00  1.50000000E+00  8.00000000E-01  8.00000000E-01
  1.50000000E+00  1.50000000E+00  8.00000000E-01  8.00000000E-01  1.50000000E+00
  1.50000000E+00  8.00000000E-01  8.00000000E-01  1.50000000E+00  1.50000000E+00
  8.00000000E-01  8.00000000E-01  1.50000000E+00  1.50000000E+00  8.00000000E-01
  8.00000000E-01  1.50000000E+00  1.50000000E+00  8.00000000E-01  8.00000000E-01
  1.50000000E+00  1.50000000E+00  8.00000000E-01  8.00000000E-01  1.50000000E+00
  1.50000000E+00  8.00000000E-01  8.00000000E-01  1.50000000E+00  1.50000000E+00
  8.00000000E-01  8.00000000E-01  1.50000000E+00  1.50000000E+00  8.00000000E-01
  8.00000000E-01  1.50000000E+00  1.50000000E+00  8.00000000E-01  8.00000000E-01
  1.50000000E+00  1.50000000E+00  8.00000000E-01  8.00000000E-01  1.50000000E+00
  1.50000000E+00  8.00000000E-01  8.00000000E-01  1.50000000E+00  1.50000000E+00
  8.00000000E-01  8.00000000E-01  1.50000000E+00  1.50000000E+00  8.00000000E-01
  8.00000000E-01  1.50000000E+00  1.50000000E+00  8.00000000E-01  8.00000000E-01
  1.50000000E+00  1.50000000E+00  8.00000000E-01  8.00000000E-01  1.50000000E+00
  1.50000000E+00  8.00000000E-01  8.00000000E-01  1.50000000E+00  1.50000000E+00
  8.00000000E-01  8.00000000E-01  1.50000000E+00  1.50000000E+00  8.00000000E-01
  8.00000000E-01  1.50000000E+00  1.50000000E+00  8.00000000E-01  8.00000000E-01
  1.50000000E+00  1.50000000E+00  8.00000000E-01  8.00000000E-01  1.50000000E+00
  1.50000000E+00  8.00000000E-01  8.00000000E-01  1.50000000E+00  1.50000000E+00
  8.00000000E-01  8.00000000E-01  1.50000000E+00  1.50000000E+00  8.00000000E-01
  8.00000000E-01  1.50000000E+00  1.50000000E+00  8.00000000E-01  8.00000000E-01
  1.50000000E+00  1.50000000E+00  8.00000000E-01  8.00000000E-01  1.50000000E+00
  1.50000000E+00  8.00000000E-01  8.00000000E-01  1.50000000E+00  1.50000000E+00
  8.00000000E-01  8.00000000E-01  1.50000000E+00  1.50000000E+00  8.00000000E-01
  8.00000000E-01  1.50000000E+00  1.50000000E+00  8.00000000E-01  8.00000000E-01
  1.50000000E+00  1.50000000E+00  8.00000000E-01  8.00000000E-01  1.50000000E+00
  1.50000000E+00  8.00000000E-01  8.00000000E-01  1.50000000E+00  1.50000000E+00
  8.00000000E-01  8.00000000E-01  1.50000000E+00  1.50000000E+00  8.00000000E-01
  8.00000000E-01  1.50000000E+00  1.50000000E+00  8.00000000E-01  8.00000000E-01
  1.50000000E+00  1.50000000E+00  8.00000000E-01  8.00000000E-01  1.50000000E+00
  1.50000000E+00  8.00000000E-01  8.00000000E-01  1.50000000E+00  1.50000000E+00
  8.00000000E-01  8.00000000E-01  1.50000000E+00  1.50000000E+00  8.00000000E-01
  8.00000000E-01  1.50000000E+00  1.50000000E+00  8.00000000E-01  8.00000000E-01
  1.50000000E+00  1.50000000E+00  8.00000000E-01  8.00000000E-01  1.50000000E+00
  1.50000000E+00  8.00000000E-01  8.00000000E-01  1.50000000E+00  1.50000000E+00
  8.00000000E-01  8.00000000E-01  1.50000000E+00  1.50000000E+00  8.00000000E-01
  8.00000000E-01  1.50000000E+00  1.50000000E+00  8.00000000E-01  8.00000000E-01
  1.50000000E+00  1.50000000E+00  8.00000000E-01  8.00000000E-01  1.50000000E+00
  1.50000000E+00  8.00000000E-01  8.00000000E-01  1.50000000E+00  1.50000000E+00
  8.00000000E-01  8.00000000E-01  1.50000000E+00  1.50000000E+00  8.00000000E-01
  8.00000000E-01  1.50000000E+00  1.50000000E+00  8.00000000E-01  8.00000000E-01
  1.50000000E+00  1.50000000E+00  8.00000000E-01  8.00000000E-01  1.50000000E+00
  1.50000000E+00  8.00000000E-01  8.00000000E-01  1.50000000E+00  1.50000000E+00
  8.00000000E-01  8.00000000E-01  1.50000000E+00  1.50000000E+00  8.00000000E-01
  8.00000000E-01  1.50000000E+00  1.50000000E+00  8.00000000E-01  8.00000000E-01
  1.50000000E+00  1.50000000E+00  8.00000000E-01  8.00000000E-01  1.50000000E+00
  1.50000000E+00  8.00000000E-01  8.00000000E-01  1.50000000E+00  1.50000000E+00
  8.00000000E-01  8.00000000E-01  1.50000000E+00  1.50000000E+00  8.00000000E-01
  8.00000000E-01  1.50000000E+00  1.50000000E+00  8.00000000E-01  8.00000000E-01
  1.50000000E+00  1.50000000E+00  8.00000000E-01  8.00000000E-01  1.50000000E+00
  1.50000000E+00  8.00000000E-01  8.00000000E-01  1.50000000E+00  1.50000000E+00
  8.00000000E-01  8.00000000E-01  1.50000000E+00  1.50000000E+00  8.00000000E-01
  8.00000000E-01  1.50000000E+00  1.50000000E+00  8.00000000E-01  8.00000000E-01
  1.50000000E+00  1.50000000E+00  8.00000000E-01  8.00000000E-01  1.50000000E+00
  1.50000000E+00  8.00000000E-01  8.00000000E-01  1.50000000E+00  1.50000000E+00
  8.00000000E-01  8.00000000E-01  1.50000000E+00  1.50000000E+00  8.00000000E-01
  8.00000000E-01  1.50000000E+00  1.50000000E+00  8.00000000E-01  8.00000000E-01
  1.50000000E+00  1.50000000E+00  8.00000000E-01  8.00000000E-01  1.50000000E+00
  1.50000000E+00  8.00000000E-01  8.00000000E-01  1.50000000E+00  1.50000000E+00
  8.00000000E-01  8.00000000E-01  1.50000000E+00  1.50000000E+00  8.00000000E-01
  8.00000000E-01  1.50000000E+00  1.50000000E+00  8.00000000E-01  8.00000000E-01
  1.50000000E+00  1.50000000E+00  8.00000000E-01  8.00000000E-01  1.50000000E+00
  1.50000000E+00  8.00000000E-01  8.00000000E-01  1.50000000E+00  1.50000000E+00
  8.00000000E-01  8.00000000E-01  1.50000000E+00  1.50000000E+00  8.00000000E-01
  8.00000000E-01  1.50000000E+00  1.50000000E+00  8.00000000E-01  8.00000000E-01
  1.50000000E+00  1.50000000E+00  8.00000000E-01  8.00000000E-01  1.50000000E+00
  1.50000000E+00  8.00000000E-01  8.00000000E-01  1.50000000E+00  1.50000000E+00
  8.00000000E-01  8.00000000E-01  1.50000000E+00  1.50000000E+00  8.00000000E-01
  8.00000000E-01  1.50000000E+00  1.50000000E+00  8.00000000E-01  8.00000000E-01
  1.50000000E+00  1.50000000E+00  8.00000000E-01  8.00000000E-01  1.50000000E+00
  1.50000000E+00  8.00000000E-01  8.00000000E-01  1.50000000E+00  1.50000000E+00
  8.00000000E-01  8.00000000E-01  1.50000000E+00  1.50000000E+00  8.00000000E-01
  8.00000000E-01  1.50000000E+00  1.50000000E+00  8.00000000E-01  8.00000000E-01
  1.50000000E+00  1.50000000E+00  8.00000000E-01  8.00000000E-01  1.50000000E+00
  1.50000000E+00  8.00000000E-01  8.00000000E-01  1.50000000E+00  1.50000000E+00
  8.00000000E-01  8.00000000E-01  1.50000000E+00  1.50000000E+00  8.00000000E-01
  8.00000000E-01  1.50000000E+00  1.50000000E+00  8.00000000E-01  8.00000000E-01
  1.50000000E+00  1.50000000E+00  8.00000000E-01  8.00000000E-01  1.50000000E+00
  1.50000000E+00  8.00000000E-01  8.00000000E-01  1.50000000E+00  1.50000000E+00
  8.00000000E-01  8.00000000E-01  1.50000000E+00  1.50000000E+00  8.00000000E-01
  8.00000000E-01  1.50000000E+00  1.50000000E+00  8.00000000E-01  8.00000000E-01
  1.50000000E+00  1.50000000E+00  8.00000000E-01  8.00000000E-01  1.50000000E+00
  1.50000000E+00  8.00000000E-01  8.00000000E-01  1.50000000E+00  1.50000000E+00
  8.00000000E-01  8.00000000E-01  1.50000000E+00  1.50000000E+00  8.00000000E-01
  8.00000000E-01  1.50000000E+00  1.50000000E+00  8.00000000E-01  8.00000000E-01
  1.50000000E+00  1.50000000E+00  8.00000000E-01  8.00000000E-01  1.50000000E+00
  1.50000000E+00  8.00000000E-01  8.00000000E-01  1.50000000E+00  1.50000000E+00
  8.00000000E-01  8.00000000E-01  1.50000000E+00  1.50000000E+00  8.00000000E-01
  8.00000000E-01  1.50000000E+00  1.50000000E+00  8.00000000E-01  8.00000000E-01
  1.50000000E+00  1.50000000E+00  8.00000000E-01  8.00000000E-01  1.50000000E+00
  1.50000000E+00  8.00000000E-01  8.00000000E-01  1.50000000E+00  1.50000000E+00
  8.00000000E-01  8.00000000E-01  1.50000000E+00  1.50000000E+00  8.00000000E-01
  8.00000000E-01  1.50000000E+00  1.50000000E+00  8.00000000E-01  8.00000000E-01
  1.50000000E+00  1.50000000E+00  8.00000000E-01  8.00000000E-01  1.50000000E+00
  1.50000000E+00  8.00000000E-01  8.00000000E-01  1.50000000E+00  1.50000000E+00
  8.00000000E-01  8.00000000E-01  1.50000000E+00  1.50000000E+00  8.00000000E-01
  8.00000000E-01  1.50000000E+00  1.50000000E+00  8.00000000E-01  8.00000000E-01
  1.50000000E+00  1.50000000E+00  8.00000000E-01  8.00000000E-01  1.50000000E+00
  1.50000000E+00  8.00000000E-01  8.00000000E-01  1.50000000E+00  1.50000000E+00
  8.00000000E-01  8.00000000E-01  1.50000000E+00  1.50000000E+00  8.00000000E-01
  8.00000000E-01  1.50000000E+00  1.50000000E+00  8.00000000E-01  8.00000000E-01
  1.50000000E+00  1.50000000E+00  8.00000000E-01  8.00000000E-01  1.50000000E+00
  1.50000000E+00  8.00000000E-01  8.00000000E-01  1.50000000E+00  1.50000000E+00
  8.00000000E-01  8.00000000E-01  1.50000000E+00  1.50000000E+00  8.00000000E-01
  8.00000000E-01  1.50000000E+00  1.50000000E+00  8.00000000E-01  8.00000000E-01
  1.50000000E+00  1.50000000E+00  8.00000000E-01  8.00000000E-01  1.50000000E+00
  1.50000000E+00  8.00000000E-01  8.00000000E-01  1.50000000E+00  1.50000000E+00
  8.00000000E-01  8.00000000E-01  1.50000000E+00  1.50000000E+00  8.00000000E-01
  8.00000000E-01  1.50000000E+00  1.50000000E+00  8.00000000E-01  8.00000000E-01
  1.50000000E+00  1.50000000E+00  8.00000000E-01  8.00000000E-01  1.50000000E+00
  1.50000000E+00  8.00000000E-01  8.00000000E-01  1.50000000E+00  1.50000000E+00
  8.00000000E-01  8.00000000E-01  1.50000000E+00  1.50000000E+00  8.00000000E-01
  8.00000000E-01  1.50000000E+00  1.50000000E+00  8.00000000E-01  8.00000000E-01
  1.50000000E+00  1.50000000E+00  8.00000000E-01  8.00000000E-01  1.50000000E+00
  1.50000000E+00  8.00000000E-01  8.00000000E-01  1.50000000E+00  1.50000000E+00
  8.00000000E-01  8.00000000E-01  1.50000000E+00  1.50000000E+00  8.00000000E-01
  8.00000000E-01  1.50000000E+00  1.50000000E+00  8.00000000E-01  8.00000000E-01
  1.50000000E+00  1.50000000E+00  8.00000000E-01  8.00000000E-01  1.50000000E+00
  1.50000000E+00  8.00000000E-01  8.00000000E-01  1.50000000E+00  1.50000000E+00
  8.00000000E-01  8.00000000E-01  1.50000000E+00  1.50000000E+00  8.00000000E-01
  8.00000000E-01  1.50000000E+00  1.50000000E+00  8.00000000E-01  8.00000000E-01
  1.50000000E+00  1.50000000E+00  8.00000000E-01  8.00000000E-01  1.50000000E+00
  1.50000000E+00  8.00000000E-01  8.00000000E-01  1.50000000E+00  1.50000000E+00
  8.00000000E-01  8.00000000E-01  1.50000000E+00  1.50000000E+00  8.00000000E-01
  8.00000000E-01  1.50000000E+00  1.50000000E+00  8.00000000E-01  8.00000000E-01
  1.50000000E+00  1.50000000E+00  8.00000000E-01  8.00000000E-01  1.50000000E+00
  1.50000000E+00  8.00000000E-01  8.00000000E-01  1.50000000E+00  1.50000000E+00
  8.00000000E-01  8.00000000E-01  1.50000000E+00  1.50000000E+00  8.00000000E-01
  8.00000000E-01  1.50000000E+00  1.50000000E+00  8.00000000E-01  8.00000000E-01
  1.50000000E+00  1.50000000E+00  8.00000000E-01  8.00000000E-01  1.50000000E+00
  1.50000000E+00  8.00000000E-01  8.00000000E-01  1.50000000E+00  1.50000000E+00
  8.00000000E-01  8.00000000E-01  1.50000000E+00  1.50000000E+00  8.00000000E-01
  8.00000000E-01  1.50000000E+00  1.50000000E+00  8.00000000E-01  8.00000000E-01
  1.50000000E+00  1.50000000E+00  8.00000000E-01  8.00000000E-01  1.50000000E+00
  1.50000000E+00  8.00000000E-01  8.00000000E-01  1.50000000E+00  1.50000000E+00
  8.00000000E-01  8.00000000E-01  1.50000000E+00  1.50000000E+00  8.00000000E-01
  8.00000000E-01  1.50000000E+00  1.50000000E+00  8.00000000E-01  8.00000000E-01
  1.50000000E+00  1.50000000E+00  8.00000000E-01  8.00000000E-01  1.50000000E+00
  1.50000000E+00  8.00000000E-01  8.00000000E-01  1.50000000E+00  1.50000000E+00
  8.00000000E-01  8.00000000E-01  1.50000000E+00  1.50000000E+00  8.00000000E-01
  8.00000000E-01  1.50000000E+00  1.50000000E+00  8.00000000E-01  8.00000000E-01
  1.50000000E+00  1.50000000E+00  8.00000000E-01  8.00000000E-01  1.50000000E+00
  1.50000000E+00  8.00000000E-01  8.00000000E-01  1.50000000E+00  1.50000000E+00
  8.00000000E-01  8.00000000E-01  1.50000000E+00  1.50000000E+00  8.00000000E-01
  8.00000000E-01  1.50000000E+00  1.50000000E+00  8.00000000E-01  8.00000000E-01
  1.50000000E+00  1.50000000E+00  8.00000000E-01  8.00000000E-01  1.50000000E+00
  1.50000000E+00  8.00000000E-01  8.00000000E-01  1.50000000E+00  1.50000000E+00
  8.00000000E-01  8.00000000E-01  1.50000000E+00  1.50000000E+00  8.00000000E-01
  8.00000000E-01  1.50000000E+00  1.50000000E+00  8.00000000E-01  8.00000000E-01
  1.50000000E+00  1.50000000E+00  8.00000000E-01  8.00000000E-01  1.50000000E+00
  1.50000000E+00  8.00000000E-01  8.00000000E-01  1.50000000E+00  1.50000000E+00
  8.00000000E-01  8.00000000E-01  1.50000000E+00  1.50000000E+00  8.00000000E-01
  8.00000000E-01  1.50000000E+00  1.50000000E+00  8.00000000E-01  8.00000000E-01
  1.50000000E+00  1.50000000E+00  8.00000000E-01  8.00000000E-01  1.50000000E+00
  1.50000000E+00  8.00000000E-01  8.00000000E-01  1.50000000E+00  1.50000000E+00
  8.00000000E-01  8.00000000E-01  1.50000000E+00  1.50000000E+00  8.00000000E-01
  8.00000000E-01  1.50000000E+00  1.50000000E+00  8.00000000E-01  8.00000000E-01
  1.50000000E+00  1.50000000E+00  8.00000000E-01  8.00000000E-01  1.50000000E+00
  1.50000000E+00  8.00000000E-01  8.00000000E-01  1.50000000E+00  1.50000000E+00
  8.00000000E-01  8.00000000E-01  1.50000000E+00  1.50000000E+00  8.00000000E-01
  8.00000000E-01  1.50000000E+00  1.50000000E+00  8.00000000E-01  8.00000000E-01
  1.50000000E+00  1.50000000E+00  8.00000000E-01  8.00000000E-01  1.50000000E+00
  1.50000000E+00  8.00000000E-01  8.00000000E-01  1.50000000E+00  1.50000000E+00
  8.00000000E-01  8.00000000E-01  1.50000000E+00  1.50000000E+00  8.00000000E-01
  8.00000000E-01  1.50000000E+00  1.50000000E+00  8.00000000E-01  8.00000000E-01
  1.50000000E+00  1.50000000E+00  8.00000000E-01  8.00000000E-01  1.50000000E+00
  1.50000000E+00  8.00000000E-01  8.00000000E-01  1.50000000E+00  1.50000000E+00
  8.00000000E-01  8.00000000E-01  1.50000000E+00  1.50000000E+00  8.00000000E-01
  8.00000000E-01  1.50000000E+00  1.50000000E+00  8.00000000E-01  8.00000000E-01
  1.50000000E+00  1.50000000E+00  8.00000000E-01  8.00000000E-01  1.50000000E+00
  1.50000000E+00  8.00000000E-01  8.00000000E-01  1.50000000E+00  1.50000000E+00
  8.00000000E-01  8.00000000E-01  1.50000000E+00  1.50000000E+00  8.00000000E-01
  8.00000000E-01  1.50000000E+00  1.50000000E+00  8.00000000E-01  8.00000000E-01
  1.50000000E+00  1.50000000E+00  8.00000000E-01  8.00000000E-01  1.50000000E+00
  1.50000000E+00  8.00000000E-01  8.00000000E-01  1.50000000E+00  1.50000000E+00
  8.00000000E-01  8.00000000E-01  1.50000000E+00  1.50000000E+00  8.00000000E-01
  8.00000000E-01  1.50000000E+00  1.50000000E+00  8.00000000E-01  8.00000000E-01
  1.50000000E+00  1.50000000E+00  8.00000000E-01  8.00000000E-01  1.50000000E+00
  1.50000000E+00  8.00000000E-01  8.00000000E-01  1.50000000E+00  1.50000000E+00
  8.00000000E-01  8.00000000E-01  1.50000000E+00  1.50000000E+00  8.00000000E-01
  8.00000000E-01  1.50000000E+00  1.50000000E+00  8.00000000E-01  8.00000000E-01
  1.50000000E+00  1.50000000E+00  8.00000000E-01  8.00000000E-01  1.50000000E+00
  1.50000000E+00  8.00000000E-01  8.00000000E-01  1.50000000E+00  1.50000000E+00
  8.00000000E-01  8.00000000E-01  1.50000000E+00  1.50000000E+00  8.00000000E-01
  8.00000000E-01  1.50000000E+00  1.50000000E+00  8.00000000E-01  8.00000000E-01
  1.50000000E+00  1.50000000E+00  8.00000000E-01  8.00000000E-01  1.50000000E+00
  1.50000000E+00  8.00000000E-01  8.00000000E-01  1.50000000E+00  1.50000000E+00
  8.00000000E-01  8.00000000E-01  1.50000000E+00  1.50000000E+00  8.00000000E-01
  8.00000000E-01  1.50000000E+00  1.50000000E+00  8.00000000E-01  8.00000000E-01
  1.50000000E+00  1.50000000E+00  8.00000000E-01  8.00000000E-01  1.50000000E+00
  1.50000000E+00  8.00000000E-01  8.00000000E-01  1.50000000E+00  1.50000000E+00
  8.00000000E-01  8.00000000E-01  1.50000000E+00  1.50000000E+00  8.00000000E-01
  8.00000000E-01  1.50000000E+00  1.50000000E+00  8.00000000E-01  8.00000000E-01
  1.50000000E+00  1.50000000E+00  8.00000000E-01  8.00000000E-01  1.50000000E+00
  1.50000000E+00  8.00000000E-01  8.00000000E-01  1.50000000E+00  1.50000000E+00
  8.00000000E-01  8.00000000E-01  1.50000000E+00  1.50000000E+00  8.00000000E-01
  8.00000000E-01  1.50000000E+00  1.50000000E+00  8.00000000E-01  8.00000000E-01
  1.50000000E+00  1.50000000E+00  8.00000000E-01  8.00000000E-01  1.50000000E+00
  1.50000000E+00  8.00000000E-01  8.00000000E-01  1.50000000E+00  1.50000000E+00
  8.00000000E-01  8.00000000E-01  1.50000000E+00  1.50000000E+00  8.00000000E-01
  8.00000000E-01  1.50000000E+00  1.50000000E+00  8.00000000E-01  8.00000000E-01
  1.50000000E+00  1.50000000E+00  8.00000000E-01  8.00000000E-01  1.50000000E+00
  1.50000000E+00  8.00000000E-01  8.00000000E-01  1.50000000E+00  1.50000000E+00
  8.00000000E-01  8.00000000E-01  1.50000000E+00  1.50000000E+00  8.00000000E-01
  8.00000000E-01  1.50000000E+00  1.50000000E+00  8.00000000E-01  8.00000000E-01
  1.50000000E+00  1.50000000E+00  8.00000000E-01  8.00000000E-01  1.50000000E+00
  1.50000000E+00  8.00000000E-01  8.00000000E-01  1.50000000E+00  1.50000000E+00
  8.00000000E-01  8.00000000E-01  1.50000000E+00  1.50000000E+00  8.00000000E-01
  8.00000000E-01  1.50000000E+00  1.50000000E+00  8.00000000E-01  8.00000000E-01
  1.50000000E+00  1.50000000E+00  8.00000000E-01  8.00000000E-01  1.50000000E+00
  1.50000000E+00  8.00000000E-01  8.00000000E-01  1.50000000E+00  1.50000000E+00
  8.00000000E-01  8.00000000E-01  1.50000000E+00  1.50000000E+00  8.00000000E-01
  8.00000000E-01  1.50000000E+00  1.50000000E+00  8.00000000E-01  8.00000000E-01
  1.50000000E+00  1.50000000E+00  8.00000000E-01  8.00000000E-01  1.50000000E+00
  1.50000000E+00  8.00000000E-01  8.00000000E-01  1.50000000E+00  1.50000000E+00
  8.00000000E-01  8.00000000E-01  1.50000000E+00  1.50000000E+00  8.00000000E-01
  8.00000000E-01  1.50000000E+00  1.50000000E+00  8.00000000E-01  8.00000000E-01
  1.50000000E+00  1.50000000E+00  8.00000000E-01  8.00000000E-01  1.50000000E+00
  1.50000000E+00  8.00000000E-01  8.00000000E-01  1.50000000E+00  1.50000000E+00
  8.00000000E-01  8.00000000E-01  1.50000000E+00  1.50000000E+00  8.00000000E-01
  8.00000000E-01  1.50000000E+00  1.50000000E+00  8.00000000E-01  8.00000000E-01
  1.50000000E+00  1.50000000E+00  8.00000000E-01  8.00000000E-01  1.50000000E+00
  1.50000000E+00  8.00000000E-01  8.00000000E-01  1.50000000E+00  1.50000000E+00
  8.00000000E-01  8.00000000E-01  1.50000000E+00  1.50000000E+00  8.00000000E-01
  8.00000000E-01  1.50000000E+00  1.50000000E+00  8.00000000E-01  8.00000000E-01
  1.50000000E+00  1.50000000E+00  8.00000000E-01  8.00000000E-01  1.50000000E+00
  1.50000000E+00  8.00000000E-01  8.00000000E-01  1.50000000E+00  1.50000000E+00
  8.00000000E-01  8.00000000E-01  1.50000000E+00  1.50000000E+00  8.00000000E-01
  8.00000000E-01  1.50000000E+00  1.50000000E+00  8.00000000E-01  8.00000000E-01
  1.50000000E+00  1.50000000E+00  8.00000000E-01  8.00000000E-01  1.50000000E+00
  1.50000000E+00  8.00000000E-01  8.00000000E-01  1.50000000E+00  1.50000000E+00
  8.00000000E-01  8.00000000E-01  1.50000000E+00  1.50000000E+00  8.00000000E-01
  8.00000000E-01  1.50000000E+00  1.50000000E+00  8.00000000E-01  8.00000000E-01
  1.50000000E+00  1.50000000E+00  8.00000000E-01  8.00000000E-01  1.50000000E+00
  1.50000000E+00  8.00000000E-01  8.00000000E-01  1.50000000E+00  1.50000000E+00
  8.00000000E-01  8.00000000E-01  1.50000000E+00  1.50000000E+00  8.00000000E-01
  8.00000000E-01  1.50000000E+00  1.50000000E+00  8.00000000E-01  8.00000000E-01
  1.50000000E+00  1.50000000E+00  8.00000000E-01  8.00000000E-01  1.50000000E+00
  1.50000000E+00  8.00000000E-01  8.00000000E-01  1.50000000E+00  1.50000000E+00
  8.00000000E-01  8.00000000E-01  1.50000000E+00  1.50000000E+00  8.00000000E-01
  8.00000000E-01  1.50000000E+00  1.50000000E+00  8.00000000E-01  8.00000000E-01
  1.50000000E+00  1.50000000E+00  8.00000000E-01  8.00000000E-01  1.50000000E+00
  1.50000000E+00  8.00000000E-01  8.00000000E-01  1.50000000E+00  1.50000000E+00
  8.00000000E-01  8.00000000E-01  1.50000000E+00  1.50000000E+00  8.00000000E-01
  8.00000000E-01  1.50000000E+00  1.50000000E+00  8.00000000E-01  8.00000000E-01
  1.50000000E+00  1.50000000E+00  8.00000000E-01  8.00000000E-01  1.50000000E+00
  1.50000000E+00  8.00000000E-01  8.00000000E-01  1.50000000E+00  1.50000000E+00
  8.00000000E-01  8.00000000E-01  1.50000000E+00  1.50000000E+00  8.00000000E-01
  8.00000000E-01  1.50000000E+00  1.50000000E+00  8.00000000E-01  8.00000000E-01
  1.50000000E+00  1.50000000E+00  8.00000000E-01  8.00000000E-01  1.50000000E+00
  1.50000000E+00  8.00000000E-01  8.00000000E-01  1.50000000E+00  1.50000000E+00
  8.00000000E-01  8.00000000E-01  1.50000000E+00  1.50000000E+00  8.00000000E-01
  8.00000000E-01  1.50000000E+00  1.50000000E+00  8.00000000E-01  8.00000000E-01
  1.50000000E+00  1.50000000E+00  8.00000000E-01  8.00000000E-01  1.50000000E+00
  1.50000000E+00  8.00000000E-01  8.00000000E-01  1.50000000E+00  1.50000000E+00
  8.00000000E-01  8.00000000E-01  1.50000000E+00  1.50000000E+00  8.00000000E-01
  8.00000000E-01  1.50000000E+00  1.50000000E+00  8.00000000E-01  8.00000000E-01
  1.50000000E+00  1.50000000E+00  8.00000000E-01  8.00000000E-01  1.50000000E+00
  1.50000000E+00  8.00000000E-01  8.00000000E-01  1.50000000E+00  1.50000000E+00
  8.00000000E-01  8.00000000E-01  1.50000000E+00  1.50000000E+00  8.00000000E-01
  8.00000000E-01  1.50000000E+00  1.50000000E+00  8.00000000E-01  8.00000000E-01
  1.50000000E+00  1.50000000E+00  8.00000000E-01  8.00000000E-01  1.50000000E+00
  1.50000000E+00  8.00000000E-01  8.00000000E-01  1.50000000E+00  1.50000000E+00
  8.00000000E-01  8.00000000E-01  1.50000000E+00  1.50000000E+00  8.00000000E-01
  8.00000000E-01  1.50000000E+00  1.50000000E+00  8.00000000E-01  8.00000000E-01
  1.50000000E+00  1.50000000E+00  8.00000000E-01  8.00000000E-01  1.50000000E+00
  1.50000000E+00  8.00000000E-01  8.00000000E-01  1.50000000E+00  1.50000000E+00
  8.00000000E-01  8.00000000E-01  1.50000000E+00  1.50000000E+00  8.00000000E-01
  8.00000000E-01  1.50000000E+00  1.50000000E+00  8.00000000E-01  8.00000000E-01
  1.50000000E+00  1.50000000E+00  8.00000000E-01  8.00000000E-01  1.50000000E+00
  1.50000000E+00  8.00000000E-01  8.00000000E-01  1.50000000E+00  1.50000000E+00
  8.00000000E-01  8.00000000E-01  1.50000000E+00  1.50000000E+00  8.00000000E-01
  8.00000000E-01  1.50000000E+00  1.50000000E+00  8.00000000E-01  8.00000000E-01
  1.50000000E+00  1.50000000E+00  8.00000000E-01  8.00000000E-01  1.50000000E+00
  1.50000000E+00  8.00000000E-01  8.00000000E-01  1.50000000E+00  1.50000000E+00
  8.00000000E-01  8.00000000E-01  1.50000000E+00  1.50000000E+00  8.00000000E-01
  8.00000000E-01  1.50000000E+00  1.50000000E+00  8.00000000E-01  8.00000000E-01
  1.50000000E+00  1.50000000E+00  8.00000000E-01  8.00000000E-01  1.50000000E+00
  1.50000000E+00  8.00000000E-01  8.00000000E-01  1.50000000E+00  1.50000000E+00
  8.00000000E-01  8.00000000E-01  1.50000000E+00  1.50000000E+00  8.00000000E-01
  8.00000000E-01  1.50000000E+00  1.50000000E+00  8.00000000E-01  8.00000000E-01
  1.50000000E+00  1.50000000E+00  8.00000000E-01  8.00000000E-01  1.50000000E+00
  1.50000000E+00  8.00000000E-01  8.00000000E-01  1.50000000E+00  1.50000000E+00
  8.00000000E-01  8.00000000E-01  1.50000000E+00  1.50000000E+00  8.00000000E-01
  8.00000000E-01  1.50000000E+00  1.50000000E+00  8.00000000E-01  8.00000000E-01
  1.50000000E+00  1.50000000E+00  8.00000000E-01  8.00000000E-01  1.50000000E+00
  1.50000000E+00  8.00000000E-01  8.00000000E-01  1.50000000E+00  1.50000000E+00
  8.00000000E-01  8.00000000E-01  1.50000000E+00  1.50000000E+00  8.00000000E-01
  8.00000000E-01  1.50000000E+00  1.50000000E+00  8.00000000E-01  8.00000000E-01
  1.50000000E+00  1.50000000E+00  8.00000000E-01  8.00000000E-01  1.50000000E+00
  1.50000000E+00  8.00000000E-01  8.00000000E-01  1.50000000E+00  1.50000000E+00
  8.00000000E-01  8.00000000E-01  1.50000000E+00  1.50000000E+00  8.00000000E-01
  8.00000000E-01  1.50000000E+00  1.50000000E+00  8.00000000E-01  8.00000000E-01
  1.50000000E+00  1.50000000E+00  8.00000000E-01  8.00000000E-01  1.50000000E+00
  1.50000000E+00  8.00000000E-01  8.00000000E-01  1.50000000E+00  1.50000000E+00
  8.00000000E-01  8.00000000E-01  1.50000000E+00  1.50000000E+00  8.00000000E-01
  8.00000000E-01  1.50000000E+00  1.50000000E+00  8.00000000E-01  8.00000000E-01
  1.50000000E+00  1.50000000E+00  8.00000000E-01  8.00000000E-01  1.50000000E+00
  1.50000000E+00  8.00000000E-01  8.00000000E-01  1.50000000E+00  1.50000000E+00
  8.00000000E-01  8.00000000E-01  1.50000000E+00  1.50000000E+00  8.00000000E-01
  8.00000000E-01  1.50000000E+00  1.50000000E+00  8.00000000E-01  8.00000000E-01
  1.50000000E+00  1.50000000E+00  8.00000000E-01  8.00000000E-01  1.50000000E+00
  1.50000000E+00  8.00000000E-01  8.00000000E-01  1.50000000E+00  1.50000000E+00
  8.00000000E-01  8.00000000E-01  1.50000000E+00  1.50000000E+00  8.00000000E-01
  8.00000000E-01  1.50000000E+00  1.50000000E+00  8.00000000E-01  8.00000000E-01
  1.50000000E+00  1.50000000E+00  8.00000000E-01  8.00000000E-01  1.50000000E+00
  1.50000000E+00  8.00000000E-01  8.00000000E-01  1.50000000E+00  1.50000000E+00
  8.00000000E-01  8.00000000E-01  1.50000000E+00  1.50000000E+00  8.00000000E-01
  8.00000000E-01  1.50000000E+00  1.50000000E+00  8.00000000E-01  8.00000000E-01
  1.50000000E+00  1.50000000E+00  8.00000000E-01  8.00000000E-01  1.50000000E+00
  1.50000000E+00  8.00000000E-01  8.00000000E-01  1.50000000E+00  1.50000000E+00
  8.00000000E-01  8.00000000E-01  1.50000000E+00  1.50000000E+00  8.00000000E-01
  8.00000000E-01  1.50000000E+00  1.50000000E+00  8.00000000E-01  8.00000000E-01
  1.50000000E+00  1.50000000E+00  8.00000000E-01  8.00000000E-01  1.50000000E+00
  1.50000000E+00  8.00000000E-01  8.00000000E-01  1.50000000E+00  1.50000000E+00
  8.00000000E-01  8.00000000E-01  1.50000000E+00  1.50000000E+00  8.00000000E-01
  8.00000000E-01  1.50000000E+00  1.50000000E+00  8.00000000E-01  8.00000000E-01
  1.50000000E+00  1.50000000E+00  8.00000000E-01  8.00000000E-01  1.50000000E+00
  1.50000000E+00  8.00000000E-01  8.00000000E-01  1.50000000E+00  1.50000000E+00
  8.00000000E-01  8.00000000E-01  1.50000000E+00  1.50000000E+00  8.00000000E-01
  8.00000000E-01  1.50000000E+00  1.50000000E+00  8.00000000E-01  8.00000000E-01
  1.50000000E+00  1.50000000E+00  8.00000000E-01  8.00000000E-01  1.50000000E+00
  1.50000000E+00  8.00000000E-01  8.00000000E-01  1.50000000E+00  1.50000000E+00
  8.00000000E-01  8.00000000E-01  1.50000000E+00  1.50000000E+00  8.00000000E-01
  8.00000000E-01  1.50000000E+00  1.50000000E+00  8.00000000E-01  8.00000000E-01
  1.50000000E+00  1.50000000E+00  8.00000000E-01  8.00000000E-01  1.50000000E+00
  1.50000000E+00  8.00000000E-01  8.00000000E-01  1.50000000E+00  1.50000000E+00
  8.00000000E-01  8.00000000E-01  1.50000000E+00  1.50000000E+00  8.00000000E-01
  8.00000000E-01  1.50000000E+00  1.50000000E+00  8.00000000E-01  8.00000000E-01
  1.50000000E+00  1.50000000E+00  8.00000000E-01  8.00000000E-01  1.50000000E+00
  1.50000000E+00  8.00000000E-01  8.00000000E-01  1.50000000E+00  1.50000000E+00
  8.00000000E-01  8.00000000E-01  1.50000000E+00  1.50000000E+00  8.00000000E-01
  8.00000000E-01  1.50000000E+00  1.50000000E+00  8.00000000E-01  8.00000000E-01
  1.50000000E+00  1.50000000E+00  8.00000000E-01  8.00000000E-01  1.50000000E+00
  1.50000000E+00  8.00000000E-01  8.00000000E-01  1.50000000E+00  1.50000000E+00
  8.00000000E-01  8.00000000E-01  1.50000000E+00  1.50000000E+00  8.00000000E-01
  8.00000000E-01  1.50000000E+00  1.50000000E+00  8.00000000E-01  8.00000000E-01
  1.50000000E+00  1.50000000E+00  8.00000000E-01  8.00000000E-01  1.50000000E+00
  1.50000000E+00  8.00000000E-01  8.00000000E-01  1.50000000E+00  1.50000000E+00
  8.00000000E-01  8.00000000E-01  1.50000000E+00  1.50000000E+00  8.00000000E-01
  8.00000000E-01  1.50000000E+00  1.50000000E+00  8.00000000E-01  8.00000000E-01
  1.50000000E+00  1.50000000E+00  8.00000000E-01  8.00000000E-01  1.50000000E+00
  1.50000000E+00  8.00000000E-01  8.00000000E-01  1.50000000E+00  1.50000000E+00
  8.00000000E-01  8.00000000E-01  1.50000000E+00  1.50000000E+00  8.00000000E-01
  8.00000000E-01  1.50000000E+00  1.50000000E+00  8.00000000E-01  8.00000000E-01
  1.50000000E+00  1.50000000E+00  8.00000000E-01  8.00000000E-01  1.50000000E+00
  1.50000000E+00  8.00000000E-01  8.00000000E-01  1.50000000E+00  1.50000000E+00
  8.00000000E-01  8.00000000E-01  1.50000000E+00  1.50000000E+00  8.00000000E-01
  8.00000000E-01  1.50000000E+00  1.50000000E+00  8.00000000E-01  8.00000000E-01
  1.50000000E+00  1.50000000E+00  8.00000000E-01  8.00000000E-01  1.50000000E+00
  1.50000000E+00  8.00000000E-01  8.00000000E-01  1.50000000E+00  1.50000000E+00
  8.00000000E-01  8.00000000E-01  1.50000000E+00  1.50000000E+00  8.00000000E-01
  8.00000000E-01  1.50000000E+00  1.50000000E+00  8.00000000E-01  8.00000000E-01
  1.50000000E+00  1.50000000E+00  8.00000000E-01  8.00000000E-01  1.50000000E+00
  1.50000000E+00  8.00000000E-01  8.00000000E-01  1.50000000E+00  1.50000000E+00
  8.00000000E-01  8.00000000E-01  1.50000000E+00  1.50000000E+00  8.00000000E-01
  8.00000000E-01  1.50000000E+00  1.50000000E+00  8.00000000E-01  8.00000000E-01
  1.50000000E+00  1.50000000E+00  8.00000000E-01  8.00000000E-01  1.50000000E+00
  1.50000000E+00  8.00000000E-01  8.00000000E-01  1.50000000E+00  1.50000000E+00
  8.00000000E-01  8.00000000E-01  1.50000000E+00  1.50000000E+00  8.00000000E-01
  8.00000000E-01  1.50000000E+00  1.50000000E+00  8.00000000E-01  8.00000000E-01
  1.50000000E+00  1.50000000E+00  8.00000000E-01  8.00000000E-01  1.50000000E+00
  1.50000000E+00  8.00000000E-01  8.00000000E-01  1.50000000E+00  1.50000000E+00
  8.00000000E-01  8.00000000E-01  1.50000000E+00  1.50000000E+00  8.00000000E-01
  8.00000000E-01  1.50000000E+00  1.50000000E+00  8.00000000E-01  8.00000000E-01
  1.50000000E+00  1.50000000E+00  8.00000000E-01  8.00000000E-01  1.50000000E+00
  1.50000000E+00  8.00000000E-01  8.00000000E-01  1.50000000E+00  1.50000000E+00
  8.00000000E-01  8.00000000E-01  1.50000000E+00  1.50000000E+00  8.00000000E-01
  8.00000000E-01  1.50000000E+00  1.50000000E+00  8.00000000E-01  8.00000000E-01
  1.50000000E+00  1.50000000E+00  8.00000000E-01  8.00000000E-01  1.50000000E+00
  1.50000000E+00  8.00000000E-01  8.00000000E-01  1.50000000E+00  1.50000000E+00
  8.00000000E-01  8.00000000E-01  1.50000000E+00  1.50000000E+00  8.00000000E-01
  8.00000000E-01  1.50000000E+00  1.50000000E+00  8.00000000E-01  8.00000000E-01
  1.50000000E+00  1.50000000E+00  8.00000000E-01  8.00000000E-01  1.50000000E+00
  1.50000000E+00  8.00000000E-01  8.00000000E-01  1.50000000E+00  1.50000000E+00
  8.00000000E-01  8.00000000E-01  1.50000000E+00  1.50000000E+00  8.00000000E-01
  8.00000000E-01  1.50000000E+00  1.50000000E+00  8.00000000E-01  8.00000000E-01
  1.50000000E+00  1.50000000E+00  8.00000000E-01  8.00000000E-01  1.50000000E+00
  1.50000000E+00  8.00000000E-01  8.00000000E-01  1.50000000E+00  1.50000000E+00
  8.00000000E-01  8.00000000E-01  1.50000000E+00  1.50000000E+00  8.00000000E-01
  8.00000000E-01  1.50000000E+00  1.50000000E+00  8.00000000E-01  8.00000000E-01
  1.50000000E+00  1.50000000E+00  8.00000000E-01  8.00000000E-01  1.50000000E+00
  1.50000000E+00  8.00000000E-01  8.00000000E-01  1.50000000E+00  1.50000000E+00
  8.00000000E-01  8.00000000E-01  1.50000000E+00  1.50000000E+00  8.00000000E-01
  8.00000000E-01  1.50000000E+00  1.50000000E+00  8.00000000E-01  8.00000000E-01
  1.50000000E+00  1.50000000E+00  8.00000000E-01  8.00000000E-01  1.50000000E+00
  1.50000000E+00  8.00000000E-01  8.00000000E-01  1.50000000E+00  1.50000000E+00
  8.00000000E-01  8.00000000E-01  1.50000000E+00  1.50000000E+00  8.00000000E-01
  8.00000000E-01  1.50000000E+00  1.50000000E+00  8.00000000E-01  8.00000000E-01
  1.50000000E+00  1.50000000E+00  8.00000000E-01  8.00000000E-01  1.50000000E+00
  1.50000000E+00  8.00000000E-01  8.00000000E-01  1.50000000E+00  1.50000000E+00
  8.00000000E-01  8.00000000E-01  1.50000000E+00  1.50000000E+00  8.00000000E-01
  8.00000000E-01  1.50000000E+00  1.50000000E+00  8.00000000E-01  8.00000000E-01
  1.50000000E+00  1.50000000E+00  8.00000000E-01  8.00000000E-01  1.50000000E+00
  1.50000000E+00  8.00000000E-01  8.00000000E-01  1.50000000E+00  1.50000000E+00
  8.00000000E-01  8.00000000E-01  1.50000000E+00  1.50000000E+00  8.00000000E-01
  8.00000000E-01  1.50000000E+00  1.50000000E+00  8.00000000E-01  8.00000000E-01
  1.50000000E+00  1.50000000E+00  8.00000000E-01  8.00000000E-01  1.50000000E+00
  1.50000000E+00  8.00000000E-01  8.00000000E-01  1.50000000E+00  1.50000000E+00
  8.00000000E-01  8.00000000E-01  1.50000000E+00  1.50000000E+00  8.00000000E-01
  8.00000000E-01  1.50000000E+00  1.50000000E+00  8.00000000E-01  8.00000000E-01
  1.50000000E+00  1.50000000E+00  8.00000000E-01  8.00000000E-01  1.50000000E+00
  1.50000000E+00  8.00000000E-01  8.00000000E-01  1.50000000E+00  1.50000000E+00
  8.00000000E-01  8.00000000E-01  1.50000000E+00  1.50000000E+00  8.00000000E-01
  8.00000000E-01  1.50000000E+00  1.50000000E+00  8.00000000E-01  8.00000000E-01
  1.50000000E+00  1.50000000E+00  8.00000000E-01  8.00000000E-01  1.50000000E+00
  1.50000000E+00  8.00000000E-01  8.00000000E-01  1.50000000E+00  1.50000000E+00
  8.00000000E-01  8.00000000E-01  1.50000000E+00  1.50000000E+00  8.00000000E-01
  8.00000000E-01  1.50000000E+00  1.50000000E+00  8.00000000E-01  8.00000000E-01
  1.50000000E+00  1.50000000E+00  8.00000000E-01  8.00000000E-01  1.50000000E+00
  1.50000000E+00  8.00000000E-01  8.00000000E-01  1.50000000E+00  1.50000000E+00
  8.00000000E-01  8.00000000E-01  1.50000000E+00  1.50000000E+00  8.00000000E-01
  8.00000000E-01  1.50000000E+00  1.50000000E+00  8.00000000E-01  8.00000000E-01
  1.50000000E+00  1.50000000E+00  8.00000000E-01  8.00000000E-01  1.50000000E+00
  1.50000000E+00  8.00000000E-01  8.00000000E-01  1.50000000E+00  1.50000000E+00
  8.00000000E-01  8.00000000E-01  1.50000000E+00  1.50000000E+00  8.00000000E-01
  8.00000000E-01  1.50000000E+00  1.50000000E+00  8.00000000E-01  8.00000000E-01
  1.50000000E+00  1.50000000E+00  8.00000000E-01  8.00000000E-01  1.50000000E+00
  1.50000000E+00  8.00000000E-01  8.00000000E-01  1.50000000E+00  1.50000000E+00
  8.00000000E-01  8.00000000E-01  1.50000000E+00  1.50000000E+00  8.00000000E-01
  8.00000000E-01  1.50000000E+00  1.50000000E+00  8.00000000E-01  8.00000000E-01
  1.50000000E+00  1.50000000E+00  8.00000000E-01  8.00000000E-01  1.50000000E+00
  1.50000000E+00  8.00000000E-01  8.00000000E-01  1.50000000E+00  1.50000000E+00
  8.00000000E-01  8.00000000E-01  1.50000000E+00  1.50000000E+00  8.00000000E-01
  8.00000000E-01  1.50000000E+00  1.50000000E+00  8.00000000E-01  8.00000000E-01
  1.50000000E+00  1.50000000E+00  8.00000000E-01  8.00000000E-01  1.50000000E+00
  1.50000000E+00  8.00000000E-01  8.00000000E-01  1.50000000E+00  1.50000000E+00
  8.00000000E-01  8.00000000E-01  1.50000000E+00  1.50000000E+00  8.00000000E-01
  8.00000000E-01  1.50000000E+00  1.50000000E+00  8.00000000E-01  8.00000000E-01
  1.50000000E+00  1.50000000E+00  8.00000000E-01  8.00000000E-01  1.50000000E+00
  1.50000000E+00  8.00000000E-01  8.00000000E-01  1.50000000E+00  1.50000000E+00
  8.00000000E-01  8.00000000E-01  1.50000000E+00  1.50000000E+00  8.00000000E-01
  8.00000000E-01  1.50000000E+00  1.50000000E+00  8.00000000E-01  8.00000000E-01
  1.50000000E+00  1.50000000E+00  8.00000000E-01  8.00000000E-01  1.50000000E+00
  1.50000000E+00  8.00000000E-01  8.00000000E-01  1.50000000E+00  1.50000000E+00
  8.00000000E-01  8.00000000E-01  1.50000000E+00  1.50000000E+00  8.00000000E-01
  8.00000000E-01  1.50000000E+00  1.50000000E+00  8.00000000E-01  8.00000000E-01
  1.50000000E+00  1.50000000E+00  8.00000000E-01  8.00000000E-01  1.50000000E+00
  1.50000000E+00  8.00000000E-01  8.00000000E-01  1.50000000E+00  1.50000000E+00
  8.00000000E-01  8.00000000E-01  1.50000000E+00  1.50000000E+00  8.00000000E-01
  8.00000000E-01  1.50000000E+00  1.50000000E+00  8.00000000E-01  8.00000000E-01
  1.50000000E+00  1.50000000E+00  8.00000000E-01  8.00000000E-01  1.50000000E+00
  1.50000000E+00  8.00000000E-01  8.00000000E-01  1.50000000E+00  1.50000000E+00
  8.00000000E-01  8.00000000E-01  1.50000000E+00  1.50000000E+00  8.00000000E-01
  8.00000000E-01  1.50000000E+00  1.50000000E+00  8.00000000E-01  8.00000000E-01
  1.50000000E+00  1.50000000E+00  8.00000000E-01  8.00000000E-01  1.50000000E+00
  1.50000000E+00  8.00000000E-01  8.00000000E-01  1.50000000E+00  1.50000000E+00
  8.00000000E-01  8.00000000E-01  1.50000000E+00  1.50000000E+00  8.00000000E-01
  8.00000000E-01  1.50000000E+00  1.50000000E+00  8.00000000E-01  8.00000000E-01
  1.50000000E+00  1.50000000E+00  8.00000000E-01  8.00000000E-01  1.50000000E+00
  1.50000000E+00  8.00000000E-01  8.00000000E-01  1.50000000E+00  1.50000000E+00
  8.00000000E-01  8.00000000E-01  1.50000000E+00  1.50000000E+00  8.00000000E-01
  8.00000000E-01  1.50000000E+00  1.50000000E+00  8.00000000E-01  8.00000000E-01
  1.50000000E+00  1.50000000E+00  8.00000000E-01  8.00000000E-01  1.50000000E+00
  1.50000000E+00  8.00000000E-01  8.00000000E-01  1.50000000E+00  1.50000000E+00
  8.00000000E-01  8.00000000E-01  1.50000000E+00  1.50000000E+00  8.00000000E-01
  8.00000000E-01  1.50000000E+00  1.50000000E+00  8.00000000E-01  8.00000000E-01
  1.50000000E+00  1.50000000E+00  8.00000000E-01  8.00000000E-01  1.50000000E+00
  1.50000000E+00  8.00000000E-01  8.00000000E-01  1.50000000E+00  1.50000000E+00
  8.00000000E-01  8.00000000E-01  1.50000000E+00  1.50000000E+00  8.00000000E-01
  8.00000000E-01  1.50000000E+00  1.50000000E+00  8.00000000E-01  8.00000000E-01
  1.50000000E+00  1.50000000E+00  8.00000000E-01  8.00000000E-01  1.50000000E+00
  1.50000000E+00  8.00000000E-01  8.00000000E-01  1.50000000E+00  1.50000000E+00
  8.00000000E-01  8.00000000E-01  1.50000000E+00  1.50000000E+00  8.00000000E-01
  8.00000000E-01  1.50000000E+00  1.50000000E+00  8.00000000E-01  8.00000000E-01
  1.50000000E+00  1.50000000E+00  8.00000000E-01  8.00000000E-01  1.50000000E+00
  1.50000000E+00  8.00000000E-01  8.00000000E-01  1.50000000E+00  1.50000000E+00
  8.00000000E-01  8.00000000E-01  1.50000000E+00  1.50000000E+00  8.00000000E-01
  8.00000000E-01  1.50000000E+00  1.50000000E+00  8.00000000E-01  8.00000000E-01
  1.50000000E+00  1.50000000E+00  8.00000000E-01  8.00000000E-01  1.50000000E+00
  1.50000000E+00  8.00000000E-01  8.00000000E-01  1.50000000E+00  1.50000000E+00
  8.00000000E-01  8.00000000E-01  1.50000000E+00  1.50000000E+00  8.00000000E-01
  8.00000000E-01  1.50000000E+00  1.50000000E+00  8.00000000E-01  8.00000000E-01
  1.50000000E+00  1.50000000E+00  8.00000000E-01  8.00000000E-01  1.50000000E+00
  1.50000000E+00  8.00000000E-01  8.00000000E-01  1.50000000E+00  1.50000000E+00
  8.00000000E-01  8.00000000E-01  1.50000000E+00  1.50000000E+00  8.00000000E-01
  8.00000000E-01  1.50000000E+00  1.50000000E+00  8.00000000E-01  8.00000000E-01
  1.50000000E+00  1.50000000E+00  8.00000000E-01  8.00000000E-01  1.50000000E+00
  1.50000000E+00  8.00000000E-01  8.00000000E-01  1.50000000E+00  1.50000000E+00
  8.00000000E-01  8.00000000E-01  1.50000000E+00  1.50000000E+00  8.00000000E-01
  8.00000000E-01  1.50000000E+00  1.50000000E+00  8.00000000E-01  8.00000000E-01
  1.50000000E+00  1.50000000E+00  8.00000000E-01  8.00000000E-01  1.50000000E+00
  1.50000000E+00  8.00000000E-01  8.00000000E-01  1.50000000E+00  1.50000000E+00
  8.00000000E-01  8.00000000E-01  1.50000000E+00  1.50000000E+00  8.00000000E-01
  8.00000000E-01  1.50000000E+00  1.50000000E+00  8.00000000E-01  8.00000000E-01
  1.50000000E+00  1.50000000E+00  8.00000000E-01  8.00000000E-01  1.50000000E+00
  1.50000000E+00  8.00000000E-01  8.00000000E-01  1.50000000E+00  1.50000000E+00
  8.00000000E-01  8.00000000E-01  1.50000000E+00  1.50000000E+00  8.00000000E-01
  8.00000000E-01  1.50000000E+00  1.50000000E+00  8.00000000E-01  8.00000000E-01
  1.50000000E+00  1.50000000E+00  8.00000000E-01  8.00000000E-01  1.50000000E+00
  1.50000000E+00  8.00000000E-01  8.00000000E-01  1.50000000E+00  1.50000000E+00
  8.00000000E-01  8.00000000E-01  1.50000000E+00  1.50000000E+00  8.00000000E-01
  8.00000000E-01  1.50000000E+00  1.50000000E+00  8.00000000E-01  8.00000000E-01
  1.50000000E+00  1.50000000E+00  8.00000000E-01  8.00000000E-01  1.50000000E+00
  1.50000000E+00  8.00000000E-01  8.00000000E-01  1.50000000E+00  1.50000000E+00
  8.00000000E-01  8.00000000E-01  1.50000000E+00  1.50000000E+00  8.00000000E-01
  8.00000000E-01  1.50000000E+00  1.50000000E+00  8.00000000E-01  8.00000000E-01
  1.50000000E+00  1.50000000E+00  8.00000000E-01  8.00000000E-01  1.50000000E+00
  1.50000000E+00  8.00000000E-01  8.00000000E-01  1.50000000E+00  1.50000000E+00
  8.00000000E-01  8.00000000E-01  1.50000000E+00  1.50000000E+00  8.00000000E-01
  8.00000000E-01  1.50000000E+00  1.50000000E+00  8.00000000E-01  8.00000000E-01
  1.50000000E+00  1.50000000E+00  8.00000000E-01  8.00000000E-01  1.50000000E+00
  1.50000000E+00  8.00000000E-01  8.00000000E-01  1.50000000E+00  1.50000000E+00
  8.00000000E-01  8.00000000E-01  1.50000000E+00  1.50000000E+00  8.00000000E-01
  8.00000000E-01  1.50000000E+00  1.50000000E+00  8.00000000E-01  8.00000000E-01
  1.50000000E+00  1.50000000E+00  8.00000000E-01  8.00000000E-01  1.50000000E+00
  1.50000000E+00  8.00000000E-01  8.00000000E-01  1.50000000E+00  1.50000000E+00
  8.00000000E-01  8.00000000E-01  1.50000000E+00  1.50000000E+00  8.00000000E-01
  8.00000000E-01  1.50000000E+00  1.50000000E+00  8.00000000E-01  8.00000000E-01
  1.50000000E+00  1.50000000E+00  8.00000000E-01  8.00000000E-01  1.50000000E+00
  1.50000000E+00  8.00000000E-01  8.00000000E-01  1.50000000E+00  1.50000000E+00
  8.00000000E-01  8.00000000E-01  1.50000000E+00  1.50000000E+00  8.00000000E-01
  8.00000000E-01  1.50000000E+00  1.50000000E+00  8.00000000E-01  8.00000000E-01
  1.50000000E+00  1.50000000E+00  8.00000000E-01  8.00000000E-01  1.50000000E+00
  1.50000000E+00  8.00000000E-01  8.00000000E-01  1.50000000E+00  1.50000000E+00
  8.00000000E-01  8.00000000E-01  1.50000000E+00  1.50000000E+00  8.00000000E-01
  8.00000000E-01  1.50000000E+00  1.50000000E+00  8.00000000E-01  8.00000000E-01
  1.50000000E+00  1.50000000E+00  8.00000000E-01  8.00000000E-01  1.50000000E+00
  1.50000000E+00  8.00000000E-01  8.00000000E-01  1.50000000E+00  1.50000000E+00
  8.00000000E-01  8.00000000E-01  1.50000000E+00  1.50000000E+00  8.00000000E-01
  8.00000000E-01  1.50000000E+00  1.50000000E+00  8.00000000E-01  8.00000000E-01
  1.50000000E+00  1.50000000E+00  8.00000000E-01  8.00000000E-01  1.50000000E+00
  1.50000000E+00  8.00000000E-01  8.00000000E-01  1.50000000E+00  1.50000000E+00
  8.00000000E-01  8.00000000E-01  1.50000000E+00  1.50000000E+00  8.00000000E-01
  8.00000000E-01  1.50000000E+00  1.50000000E+00  8.00000000E-01  8.00000000E-01
  1.50000000E+00  1.50000000E+00  8.00000000E-01  8.00000000E-01  1.50000000E+00
  1.50000000E+00  8.00000000E-01  8.00000000E-01  1.50000000E+00  1.50000000E+00
  8.00000000E-01  8.00000000E-01  1.50000000E+00  1.50000000E+00  8.00000000E-01
  8.00000000E-01  1.50000000E+00  1.50000000E+00  8.00000000E-01  8.00000000E-01
  1.50000000E+00  1.50000000E+00  8.00000000E-01  8.00000000E-01  1.50000000E+00
  1.50000000E+00  8.00000000E-01  8.00000000E-01  1.50000000E+00  1.50000000E+00
  8.00000000E-01  8.00000000E-01  1.50000000E+00  1.50000000E+00  8.00000000E-01
  8.00000000E-01  1.50000000E+00  1.50000000E+00  8.00000000E-01  8.00000000E-01
  1.50000000E+00  1.50000000E+00  8.00000000E-01  8.00000000E-01  1.50000000E+00
  1.50000000E+00  8.00000000E-01  8.00000000E-01  1.50000000E+00  1.50000000E+00
  8.00000000E-01  8.00000000E-01  1.50000000E+00  1.50000000E+00  8.00000000E-01
  8.00000000E-01  1.50000000E+00  1.50000000E+00  8.00000000E-01  8.00000000E-01
  1.50000000E+00  1.50000000E+00  8.00000000E-01  8.00000000E-01  1.50000000E+00
  1.50000000E+00  8.00000000E-01  8.00000000E-01  1.50000000E+00  1.50000000E+00
  8.00000000E-01  8.00000000E-01  1.50000000E+00  1.50000000E+00  8.00000000E-01
  8.00000000E-01  1.50000000E+00  1.50000000E+00  8.00000000E-01  8.00000000E-01
  1.50000000E+00  1.50000000E+00  8.00000000E-01  8.00000000E-01  1.50000000E+00
  1.50000000E+00  8.00000000E-01  8.00000000E-01  1.50000000E+00  1.50000000E+00
  8.00000000E-01  8.00000000E-01  1.50000000E+00  1.50000000E+00  8.00000000E-01
  8.00000000E-01  1.50000000E+00  1.50000000E+00  8.00000000E-01  8.00000000E-01
  1.50000000E+00  1.50000000E+00  8.00000000E-01  8.00000000E-01  1.50000000E+00
  1.50000000E+00  8.00000000E-01  8.00000000E-01  1.50000000E+00  1.50000000E+00
  8.00000000E-01  8.00000000E-01  1.50000000E+00  1.50000000E+00  8.00000000E-01
  8.00000000E-01  1.50000000E+00  1.50000000E+00  8.00000000E-01  8.00000000E-01
  1.50000000E+00  1.50000000E+00  8.00000000E-01  8.00000000E-01  1.50000000E+00
  1.50000000E+00  8.00000000E-01  8.00000000E-01  1.50000000E+00  1.50000000E+00
  8.00000000E-01  8.00000000E-01  1.50000000E+00  1.50000000E+00  8.00000000E-01
  8.00000000E-01  1.50000000E+00  1.50000000E+00  8.00000000E-01  8.00000000E-01
  1.50000000E+00  1.50000000E+00  8.00000000E-01  8.00000000E-01  1.50000000E+00
  1.50000000E+00  8.00000000E-01  8.00000000E-01  1.50000000E+00  1.50000000E+00
  8.00000000E-01  8.00000000E-01  1.50000000E+00  1.50000000E+00  8.00000000E-01
  8.00000000E-01  1.50000000E+00  1.50000000E+00  8.00000000E-01  8.00000000E-01
  1.50000000E+00  1.50000000E+00  8.00000000E-01  8.00000000E-01  1.50000000E+00
  1.50000000E+00  8.00000000E-01  8.00000000E-01  1.50000000E+00  1.50000000E+00
  8.00000000E-01  8.00000000E-01  1.50000000E+00  1.50000000E+00  8.00000000E-01
  8.00000000E-01  1.50000000E+00  1.50000000E+00  8.00000000E-01  8.00000000E-01
  1.50000000E+00  1.50000000E+00  8.00000000E-01  8.00000000E-01  1.50000000E+00
  1.50000000E+00  8.00000000E-01  8.00000000E-01  1.50000000E+00  1.50000000E+00
  8.00000000E-01  8.00000000E-01  1.50000000E+00  1.50000000E+00  8.00000000E-01
  8.00000000E-01  1.50000000E+00  1.50000000E+00  8.00000000E-01  8.00000000E-01
  1.50000000E+00  1.50000000E+00  8.00000000E-01  8.00000000E-01  1.50000000E+00
  1.50000000E+00  8.00000000E-01  8.00000000E-01  1.50000000E+00  1.50000000E+00
  8.00000000E-01  8.00000000E-01  1.50000000E+00  1.50000000E+00  8.00000000E-01
  8.00000000E-01  1.50000000E+00  1.50000000E+00  8.00000000E-01  8.00000000E-01
  1.50000000E+00  1.50000000E+00  8.00000000E-01  8.00000000E-01  1.50000000E+00
  1.50000000E+00  8.00000000E-01  8.00000000E-01  1.50000000E+00  1.50000000E+00
  8.00000000E-01  8.00000000E-01  1.50000000E+00  1.50000000E+00  8.00000000E-01
  8.00000000E-01  1.50000000E+00  1.50000000E+00  8.00000000E-01  8.00000000E-01
  1.50000000E+00  1.50000000E+00  8.00000000E-01  8.00000000E-01  1.50000000E+00
  1.50000000E+00  8.00000000E-01  8.00000000E-01  1.50000000E+00  1.50000000E+00
  8.00000000E-01  8.00000000E-01  1.50000000E+00  1.50000000E+00  8.00000000E-01
  8.00000000E-01  1.50000000E+00  1.50000000E+00  8.00000000E-01  8.00000000E-01
  1.50000000E+00  1.50000000E+00  8.00000000E-01  8.00000000E-01  1.50000000E+00
  1.50000000E+00  8.00000000E-01  8.00000000E-01  1.50000000E+00  1.50000000E+00
  8.00000000E-01  8.00000000E-01  1.50000000E+00  1.50000000E+00  8.00000000E-01
  8.00000000E-01  1.50000000E+00  1.50000000E+00  8.00000000E-01  8.00000000E-01
  1.50000000E+00  1.50000000E+00  8.00000000E-01  8.00000000E-01  1.50000000E+00
  1.50000000E+00  8.00000000E-01  8.00000000E-01  1.50000000E+00  1.50000000E+00
  8.00000000E-01  8.00000000E-01  1.50000000E+00  1.50000000E+00  8.00000000E-01
  8.00000000E-01  1.50000000E+00  1.50000000E+00  8.00000000E-01  8.00000000E-01
  1.50000000E+00  1.50000000E+00  8.00000000E-01  8.00000000E-01  1.50000000E+00
  1.50000000E+00  8.00000000E-01  8.00000000E-01  1.50000000E+00  1.50000000E+00
  8.00000000E-01  8.00000000E-01  1.50000000E+00  1.50000000E+00  8.00000000E-01
  8.00000000E-01  1.50000000E+00  1.50000000E+00  8.00000000E-01  8.00000000E-01
  1.50000000E+00  1.50000000E+00  8.00000000E-01  8.00000000E-01  1.50000000E+00
  1.50000000E+00  8.00000000E-01  8.00000000E-01  1.50000000E+00  1.50000000E+00
  8.00000000E-01  8.00000000E-01  1.50000000E+00  1.50000000E+00  8.00000000E-01
  8.00000000E-01  1.50000000E+00  1.50000000E+00  8.00000000E-01  8.00000000E-01
  1.50000000E+00  1.50000000E+00  8.00000000E-01  8.00000000E-01  1.50000000E+00
  1.50000000E+00  8.00000000E-01  8.00000000E-01  1.50000000E+00  1.50000000E+00
  8.00000000E-01  8.00000000E-01  1.50000000E+00  1.50000000E+00  8.00000000E-01
  8.00000000E-01  1.50000000E+00  1.50000000E+00  8.00000000E-01  8.00000000E-01
  1.50000000E+00  1.50000000E+00  8.00000000E-01  8.00000000E-01  1.50000000E+00
  1.50000000E+00  8.00000000E-01  8.00000000E-01  1.50000000E+00  1.50000000E+00
  8.00000000E-01  8.00000000E-01  1.50000000E+00  1.50000000E+00  8.00000000E-01
  8.00000000E-01  1.50000000E+00  1.50000000E+00  8.00000000E-01  8.00000000E-01
  1.50000000E+00  1.50000000E+00  8.00000000E-01  8.00000000E-01  1.50000000E+00
  1.50000000E+00  8.00000000E-01  8.00000000E-01  1.50000000E+00  1.50000000E+00
  8.00000000E-01  8.00000000E-01  1.50000000E+00  1.50000000E+00  8.00000000E-01
  8.00000000E-01  1.50000000E+00  1.50000000E+00  8.00000000E-01  8.00000000E-01
  1.50000000E+00  1.50000000E+00  8.00000000E-01  8.00000000E-01  1.50000000E+00
  1.50000000E+00  8.00000000E-01  8.00000000E-01  1.50000000E+00  1.50000000E+00
  8.00000000E-01  8.00000000E-01  1.50000000E+00  1.50000000E+00  8.00000000E-01
  8.00000000E-01  1.50000000E+00  1.50000000E+00  8.00000000E-01  8.00000000E-01
  1.50000000E+00  1.50000000E+00  8.00000000E-01  8.00000000E-01  1.50000000E+00
  1.50000000E+00  8.00000000E-01  8.00000000E-01  1.50000000E+00  1.50000000E+00
  8.00000000E-01  8.00000000E-01  1.50000000E+00  1.50000000E+00  8.00000000E-01
  8.00000000E-01  1.50000000E+00  1.50000000E+00  8.00000000E-01  8.00000000E-01
  1.50000000E+00  1.50000000E+00  8.00000000E-01  8.00000000E-01  1.50000000E+00
  1.50000000E+00  8.00000000E-01  8.00000000E-01  1.50000000E+00  1.50000000E+00
  8.00000000E-01  8.00000000E-01  1.50000000E+00  1.50000000E+00  8.00000000E-01
  8.00000000E-01  1.50000000E+00  1.50000000E+00  8.00000000E-01  8.00000000E-01
  1.50000000E+00  1.50000000E+00  8.00000000E-01  8.00000000E-01  1.50000000E+00
  1.50000000E+00  8.00000000E-01  8.00000000E-01  1.50000000E+00  1.50000000E+00
  8.00000000E-01  8.00000000E-01  1.50000000E+00  1.50000000E+00  8.00000000E-01
  8.00000000E-01  1.50000000E+00  1.50000000E+00  8.00000000E-01  8.00000000E-01
  1.50000000E+00  1.50000000E+00  8.00000000E-01  8.00000000E-01  1.50000000E+00
  1.50000000E+00  8.00000000E-01  8.00000000E-01  1.50000000E+00  1.50000000E+00
  8.00000000E-01  8.00000000E-01  1.50000000E+00  1.50000000E+00  8.00000000E-01
  8.00000000E-01  1.50000000E+00  1.50000000E+00  8.00000000E-01  8.00000000E-01
  1.50000000E+00  1.50000000E+00  8.00000000E-01  8.00000000E-01  1.50000000E+00
  1.50000000E+00  8.00000000E-01  8.00000000E-01  1.50000000E+00  1.50000000E+00
  8.00000000E-01  8.00000000E-01  1.50000000E+00  1.50000000E+00  8.00000000E-01
  8.00000000E-01  1.50000000E+00  1.50000000E+00  8.00000000E-01  8.00000000E-01
  1.50000000E+00  1.50000000E+00  8.00000000E-01  8.00000000E-01  1.50000000E+00
  1.50000000E+00  8.00000000E-01  8.00000000E-01  1.50000000E+00  1.50000000E+00
  8.00000000E-01  8.00000000E-01  1.50000000E+00  1.50000000E+00  8.00000000E-01
  8.00000000E-01  1.50000000E+00  1.50000000E+00  8.00000000E-01  8.00000000E-01
  1.50000000E+00  1.50000000E+00  8.00000000E-01  8.00000000E-01  1.50000000E+00
  1.50000000E+00  8.00000000E-01  8.00000000E-01  1.50000000E+00  1.50000000E+00
  8.00000000E-01  8.00000000E-01  1.50000000E+00  1.50000000E+00  8.00000000E-01
  8.00000000E-01  1.50000000E+00  1.50000000E+00  8.00000000E-01  8.00000000E-01
  1.50000000E+00  1.50000000E+00  8.00000000E-01  8.00000000E-01  1.50000000E+00
  1.50000000E+00  8.00000000E-01  8.00000000E-01  1.50000000E+00  1.50000000E+00
  8.00000000E-01  8.00000000E-01  1.50000000E+00  1.50000000E+00  8.00000000E-01
  8.00000000E-01  1.50000000E+00  1.50000000E+00  8.00000000E-01  8.00000000E-01
  1.50000000E+00  1.50000000E+00  8.00000000E-01  8.00000000E-01  1.50000000E+00
  1.50000000E+00  8.00000000E-01  8.00000000E-01  1.50000000E+00  1.50000000E+00
  8.00000000E-01  8.00000000E-01  1.50000000E+00  1.50000000E+00  8.00000000E-01
  8.00000000E-01  1.50000000E+00  1.50000000E+00  8.00000000E-01  8.00000000E-01
  1.50000000E+00  1.50000000E+00  8.00000000E-01  8.00000000E-01  1.50000000E+00
  1.50000000E+00  8.00000000E-01  8.00000000E-01  1.50000000E+00  1.50000000E+00
  8.00000000E-01  8.00000000E-01  1.50000000E+00  1.50000000E+00  8.00000000E-01
  8.00000000E-01  1.50000000E+00  1.50000000E+00  8.00000000E-01  8.00000000E-01
  1.50000000E+00  1.50000000E+00  8.00000000E-01  8.00000000E-01  1.50000000E+00
  1.50000000E+00  8.00000000E-01  8.00000000E-01  1.50000000E+00  1.50000000E+00
  8.00000000E-01  8.00000000E-01  1.50000000E+00  1.50000000E+00  8.00000000E-01
  8.00000000E-01  1.50000000E+00  1.50000000E+00  8.00000000E-01  8.00000000E-01
  1.50000000E+00  1.50000000E+00  8.00000000E-01  8.00000000E-01  1.50000000E+00
  1.50000000E+00  8.00000000E-01  8.00000000E-01  1.50000000E+00  1.50000000E+00
  8.00000000E-01  8.00000000E-01  1.50000000E+00  1.50000000E+00  8.00000000E-01
  8.00000000E-01  1.50000000E+00  1.50000000E+00  8.00000000E-01  8.00000000E-01
  1.50000000E+00  1.50000000E+00  8.00000000E-01  8.00000000E-01  1.50000000E+00
  1.50000000E+00  8.00000000E-01  8.00000000E-01  1.50000000E+00  1.50000000E+00
  8.00000000E-01  8.00000000E-01  1.50000000E+00  1.50000000E+00  8.00000000E-01
  8.00000000E-01  1.50000000E+00  1.50000000E+00  8.00000000E-01  8.00000000E-01
  1.50000000E+00  1.50000000E+00  8.00000000E-01  8.00000000E-01  1.50000000E+00
  1.50000000E+00  8.00000000E-01  8.00000000E-01  1.50000000E+00  1.50000000E+00
  8.00000000E-01  8.00000000E-01  1.50000000E+00  1.50000000E+00  8.00000000E-01
  8.00000000E-01  1.50000000E+00  1.50000000E+00  8.00000000E-01  8.00000000E-01
  1.50000000E+00  1.50000000E+00  8.00000000E-01  8.00000000E-01  1.50000000E+00
  1.50000000E+00  8.00000000E-01  8.00000000E-01  1.50000000E+00  1.50000000E+00
  8.00000000E-01  8.00000000E-01  1.50000000E+00  1.50000000E+00  8.00000000E-01
  8.00000000E-01  1.50000000E+00  1.50000000E+00  8.00000000E-01  8.00000000E-01
  1.50000000E+00  1.50000000E+00  8.00000000E-01  8.00000000E-01  1.50000000E+00
  1.50000000E+00  8.00000000E-01  8.00000000E-01  1.50000000E+00  1.50000000E+00
  8.00000000E-01  8.00000000E-01  1.50000000E+00  1.50000000E+00  8.00000000E-01
  8.00000000E-01  1.50000000E+00  1.50000000E+00  8.00000000E-01  8.00000000E-01
  1.50000000E+00  1.50000000E+00  8.00000000E-01  8.00000000E-01  1.50000000E+00
  1.50000000E+00  8.00000000E-01  8.00000000E-01  1.50000000E+00  1.50000000E+00
  8.00000000E-01  8.00000000E-01  1.50000000E+00  1.50000000E+00  8.00000000E-01
  8.00000000E-01  1.50000000E+00  1.50000000E+00  8.00000000E-01  8.00000000E-01
  1.50000000E+00  1.50000000E+00  8.00000000E-01  8.00000000E-01  1.50000000E+00
  1.50000000E+00  8.00000000E-01  8.00000000E-01  1.50000000E+00  1.50000000E+00
  8.00000000E-01  8.00000000E-01  1.50000000E+00  1.50000000E+00  8.00000000E-01
  8.00000000E-01  1.50000000E+00  1.50000000E+00  8.00000000E-01  8.00000000E-01
  1.50000000E+00  1.50000000E+00  8.00000000E-01  8.00000000E-01  1.50000000E+00
  1.50000000E+00  8.00000000E-01  8.00000000E-01  1.50000000E+00  1.50000000E+00
  8.00000000E-01  8.00000000E-01  1.50000000E+00  1.50000000E+00  8.00000000E-01
  8.00000000E-01  1.50000000E+00  1.50000000E+00  8.00000000E-01  8.00000000E-01
  1.50000000E+00  1.50000000E+00  8.00000000E-01  8.00000000E-01  1.50000000E+00
  1.50000000E+00  8.00000000E-01  8.00000000E-01  1.50000000E+00  1.50000000E+00
  8.00000000E-01  8.00000000E-01  1.50000000E+00  1.50000000E+00  8.00000000E-01
  8.00000000E-01  1.50000000E+00  1.50000000E+00  8.00000000E-01  8.00000000E-01
  1.50000000E+00  1.50000000E+00  8.00000000E-01  8.00000000E-01  1.50000000E+00
  1.50000000E+00  8.00000000E-01  8.00000000E-01  1.50000000E+00  1.50000000E+00
  8.00000000E-01  8.00000000E-01  1.50000000E+00  1.50000000E+00  8.00000000E-01
  8.00000000E-01  1.50000000E+00  1.50000000E+00  8.00000000E-01  8.00000000E-01
  1.50000000E+00  1.50000000E+00  8.00000000E-01  8.00000000E-01  1.50000000E+00
  1.50000000E+00  8.00000000E-01  8.00000000E-01  1.50000000E+00  1.50000000E+00
  8.00000000E-01  8.00000000E-01  1.50000000E+00  1.50000000E+00  8.00000000E-01
  8.00000000E-01  1.50000000E+00  1.50000000E+00  8.00000000E-01  8.00000000E-01
  1.50000000E+00  1.50000000E+00  8.00000000E-01  8.00000000E-01  1.50000000E+00
  1.50000000E+00  8.00000000E-01  8.00000000E-01  1.50000000E+00  1.50000000E+00
  8.00000000E-01  8.00000000E-01  1.50000000E+00  1.50000000E+00  8.00000000E-01
  8.00000000E-01  1.50000000E+00  1.50000000E+00  8.00000000E-01  8.00000000E-01
  1.50000000E+00  1.50000000E+00  8.00000000E-01  8.00000000E-01  1.50000000E+00
  1.50000000E+00  8.00000000E-01  8.00000000E-01  1.50000000E+00  1.50000000E+00
  8.00000000E-01  8.00000000E-01  1.50000000E+00  1.50000000E+00  8.00000000E-01
  8.00000000E-01  1.50000000E+00  1.50000000E+00  8.00000000E-01  8.00000000E-01
  1.50000000E+00  1.50000000E+00  8.00000000E-01  8.00000000E-01  1.50000000E+00
  1.50000000E+00  8.00000000E-01  8.00000000E-01  1.50000000E+00  1.50000000E+00
  8.00000000E-01  8.00000000E-01  1.50000000E+00  1.50000000E+00  8.00000000E-01
  8.00000000E-01  1.50000000E+00  1.50000000E+00  8.00000000E-01  8.00000000E-01
  1.50000000E+00  1.50000000E+00  8.00000000E-01  8.00000000E-01  1.50000000E+00
  1.50000000E+00  8.00000000E-01  8.00000000E-01  1.50000000E+00  1.50000000E+00
  8.00000000E-01  8.00000000E-01  1.50000000E+00  1.50000000E+00  8.00000000E-01
  8.00000000E-01  1.50000000E+00  1.50000000E+00  8.00000000E-01  8.00000000E-01
  1.50000000E+00  1.50000000E+00  8.00000000E-01  8.00000000E-01  1.50000000E+00
  1.50000000E+00  8.00000000E-01  8.00000000E-01  1.50000000E+00  1.50000000E+00
  8.00000000E-01  8.00000000E-01  1.50000000E+00  1.50000000E+00  8.00000000E-01
  8.00000000E-01  1.50000000E+00  1.50000000E+00  8.00000000E-01  8.00000000E-01
  1.50000000E+00  1.50000000E+00  8.00000000E-01  8.00000000E-01  1.50000000E+00
  1.50000000E+00  8.00000000E-01  8.00000000E-01  1.50000000E+00  1.50000000E+00
  8.00000000E-01  8.00000000E-01  1.50000000E+00  1.50000000E+00  8.00000000E-01
  8.00000000E-01  1.50000000E+00  1.50000000E+00  8.00000000E-01  8.00000000E-01
  1.50000000E+00  1.50000000E+00  8.00000000E-01  8.00000000E-01  1.50000000E+00
  1.50000000E+00  8.00000000E-01  8.00000000E-01  1.50000000E+00  1.50000000E+00
  8.00000000E-01  8.00000000E-01  1.50000000E+00  1.50000000E+00  8.00000000E-01
  8.00000000E-01  1.50000000E+00  1.50000000E+00  8.00000000E-01  8.00000000E-01
  1.50000000E+00  1.50000000E+00  8.00000000E-01  8.00000000E-01  1.50000000E+00
  1.50000000E+00  8.00000000E-01  8.00000000E-01  1.50000000E+00  1.50000000E+00
  8.00000000E-01  8.00000000E-01  1.50000000E+00  1.50000000E+00  8.00000000E-01
  8.00000000E-01  1.50000000E+00  1.50000000E+00  8.00000000E-01  8.00000000E-01
  1.50000000E+00  1.50000000E+00  8.00000000E-01  8.00000000E-01  1.50000000E+00
  1.50000000E+00  8.00000000E-01  8.00000000E-01  1.50000000E+00  1.50000000E+00
  8.00000000E-01  8.00000000E-01  1.50000000E+00  1.50000000E+00  8.00000000E-01
  8.00000000E-01  1.50000000E+00  1.50000000E+00  8.00000000E-01  8.00000000E-01
  1.50000000E+00  1.50000000E+00  8.00000000E-01  8.00000000E-01  1.50000000E+00
  1.50000000E+00  8.00000000E-01  8.00000000E-01  1.50000000E+00  1.50000000E+00
  8.00000000E-01  8.00000000E-01  1.50000000E+00  1.50000000E+00  8.00000000E-01
  8.00000000E-01  1.50000000E+00  1.50000000E+00  8.00000000E-01  8.00000000E-01
  1.50000000E+00  1.50000000E+00  8.00000000E-01  8.00000000E-01  1.50000000E+00
  1.50000000E+00  8.00000000E-01  8.00000000E-01  1.50000000E+00  1.50000000E+00
  8.00000000E-01  8.00000000E-01  1.50000000E+00  1.50000000E+00  8.00000000E-01
  8.00000000E-01  1.50000000E+00  1.50000000E+00  8.00000000E-01  8.00000000E-01
  1.50000000E+00  1.50000000E+00  8.00000000E-01  8.00000000E-01  1.50000000E+00
  1.50000000E+00  8.00000000E-01  8.00000000E-01  1.50000000E+00  1.50000000E+00
  8.00000000E-01  8.00000000E-01  1.50000000E+00  1.50000000E+00  8.00000000E-01
  8.00000000E-01  1.50000000E+00  1.50000000E+00  8.00000000E-01  8.00000000E-01
  1.50000000E+00  1.50000000E+00  8.00000000E-01  8.00000000E-01  1.50000000E+00
  1.50000000E+00  8.00000000E-01  8.00000000E-01  1.50000000E+00  1.50000000E+00
  8.00000000E-01  8.00000000E-01  1.50000000E+00  1.50000000E+00  8.00000000E-01
  8.00000000E-01  1.50000000E+00  1.50000000E+00  8.00000000E-01  8.00000000E-01
  1.50000000E+00  1.50000000E+00  8.00000000E-01  8.00000000E-01  1.50000000E+00
  1.50000000E+00  8.00000000E-01  8.00000000E-01  1.50000000E+00  1.50000000E+00
  8.00000000E-01  8.00000000E-01  1.50000000E+00  1.50000000E+00  8.00000000E-01
  8.00000000E-01  1.50000000E+00  1.50000000E+00  8.00000000E-01  8.00000000E-01
  1.50000000E+00  1.50000000E+00  8.00000000E-01  8.00000000E-01  1.50000000E+00
  1.50000000E+00  8.00000000E-01  8.00000000E-01  1.50000000E+00  1.50000000E+00
  8.00000000E-01  8.00000000E-01  1.50000000E+00  1.50000000E+00  8.00000000E-01
  8.00000000E-01  1.50000000E+00  1.50000000E+00  8.00000000E-01  8.00000000E-01
  1.50000000E+00  1.50000000E+00  8.00000000E-01  8.00000000E-01  1.50000000E+00
  1.50000000E+00  8.00000000E-01  8.00000000E-01  1.50000000E+00  1.50000000E+00
  8.00000000E-01  8.00000000E-01  1.50000000E+00  1.50000000E+00  8.00000000E-01
  8.00000000E-01  1.50000000E+00  1.50000000E+00  8.00000000E-01  8.00000000E-01
  1.50000000E+00  1.50000000E+00  8.00000000E-01  8.00000000E-01  1.50000000E+00
  1.50000000E+00  8.00000000E-01  8.00000000E-01  1.50000000E+00  1.50000000E+00
  8.00000000E-01  8.00000000E-01  1.50000000E+00  1.50000000E+00  8.00000000E-01
  8.00000000E-01  1.50000000E+00  1.50000000E+00  8.00000000E-01  8.00000000E-01
  1.50000000E+00  1.50000000E+00  8.00000000E-01  8.00000000E-01  1.50000000E+00
  1.50000000E+00  8.00000000E-01  8.00000000E-01  1.50000000E+00  1.50000000E+00
  8.00000000E-01  8.00000000E-01  1.50000000E+00  1.50000000E+00  8.00000000E-01
  8.00000000E-01  1.50000000E+00  1.50000000E+00  8.00000000E-01  8.00000000E-01
  1.50000000E+00  1.50000000E+00  8.00000000E-01  8.00000000E-01  1.50000000E+00
  1.50000000E+00  8.00000000E-01  8.00000000E-01  1.50000000E+00  1.50000000E+00
  8.00000000E-01  8.00000000E-01  1.50000000E+00  1.50000000E+00  8.00000000E-01
  8.00000000E-01  1.50000000E+00  1.50000000E+00  8.00000000E-01  8.00000000E-01
  1.50000000E+00  1.50000000E+00  8.00000000E-01  8.00000000E-01  1.50000000E+00
  1.50000000E+00  8.00000000E-01  8.00000000E-01  1.50000000E+00  1.50000000E+00
  8.00000000E-01  8.00000000E-01  1.50000000E+00  1.50000000E+00  8.00000000E-01
  8.00000000E-01  1.50000000E+00  1.50000000E+00  8.00000000E-01  8.00000000E-01
  1.50000000E+00  1.50000000E+00  8.00000000E-01  8.00000000E-01  1.50000000E+00
  1.50000000E+00  8.00000000E-01  8.00000000E-01  1.50000000E+00  1.50000000E+00
  8.00000000E-01  8.00000000E-01  1.50000000E+00  1.50000000E+00  8.00000000E-01
  8.00000000E-01  1.50000000E+00  1.50000000E+00  8.00000000E-01  8.00000000E-01
  1.50000000E+00  1.50000000E+00  8.00000000E-01  8.00000000E-01  1.50000000E+00
  1.50000000E+00  8.00000000E-01  8.00000000E-01  1.50000000E+00  1.50000000E+00
  8.00000000E-01  8.00000000E-01  1.50000000E+00  1.50000000E+00  8.00000000E-01
  8.00000000E-01  1.50000000E+00  1.50000000E+00  8.00000000E-01  8.00000000E-01
  1.50000000E+00  1.50000000E+00  8.00000000E-01  8.00000000E-01  1.50000000E+00
  1.50000000E+00  8.00000000E-01  8.00000000E-01  1.50000000E+00  1.50000000E+00
  8.00000000E-01  8.00000000E-01  1.50000000E+00  1.50000000E+00  8.00000000E-01
  8.00000000E-01  1.50000000E+00  1.50000000E+00  8.00000000E-01  8.00000000E-01
  1.50000000E+00  1.50000000E+00  8.00000000E-01  8.00000000E-01  1.50000000E+00
  1.50000000E+00  8.00000000E-01  8.00000000E-01  1.50000000E+00  1.50000000E+00
  8.00000000E-01  8.00000000E-01  1.50000000E+00  1.50000000E+00  8.00000000E-01
  8.00000000E-01  1.50000000E+00  1.50000000E+00  8.00000000E-01  8.00000000E-01
  1.50000000E+00  1.50000000E+00  8.00000000E-01  8.00000000E-01  1.50000000E+00
  1.50000000E+00  8.00000000E-01  8.00000000E-01  1.50000000E+00  1.50000000E+00
  8.00000000E-01  8.00000000E-01  1.50000000E+00  1.50000000E+00  8.00000000E-01
  8.00000000E-01  1.50000000E+00  1.50000000E+00  8.00000000E-01  8.00000000E-01
  1.50000000E+00  1.50000000E+00  8.00000000E-01  8.00000000E-01  1.50000000E+00
  1.50000000E+00  8.00000000E-01  8.00000000E-01  1.50000000E+00  1.50000000E+00
  8.00000000E-01  8.00000000E-01  1.50000000E+00  1.50000000E+00  8.00000000E-01
  8.00000000E-01  1.50000000E+00  1.50000000E+00  8.00000000E-01  8.00000000E-01
  1.50000000E+00  1.50000000E+00  8.00000000E-01  8.00000000E-01  1.50000000E+00
  1.50000000E+00  8.00000000E-01  8.00000000E-01  1.50000000E+00  1.50000000E+00
  8.00000000E-01  8.00000000E-01  1.50000000E+00  1.50000000E+00  8.00000000E-01
  8.00000000E-01  1.50000000E+00  1.50000000E+00  8.00000000E-01  8.00000000E-01
  1.50000000E+00  1.50000000E+00  8.00000000E-01  8.00000000E-01  1.50000000E+00
  1.50000000E+00  8.00000000E-01  8.00000000E-01  1.50000000E+00  1.50000000E+00
  8.00000000E-01  8.00000000E-01  1.50000000E+00  1.50000000E+00  8.00000000E-01
  8.00000000E-01  1.50000000E+00  1.50000000E+00  8.00000000E-01  8.00000000E-01
  1.50000000E+00  1.50000000E+00  8.00000000E-01  8.00000000E-01  1.50000000E+00
  1.50000000E+00  8.00000000E-01  8.00000000E-01  1.50000000E+00  1.50000000E+00
  8.00000000E-01  8.00000000E-01  1.50000000E+00  1.50000000E+00  8.00000000E-01
  8.00000000E-01  1.50000000E+00  1.50000000E+00  8.00000000E-01  8.00000000E-01
  1.50000000E+00  1.50000000E+00  8.00000000E-01  8.00000000E-01  1.50000000E+00
  1.50000000E+00  8.00000000E-01  8.00000000E-01  1.50000000E+00  1.50000000E+00
  8.00000000E-01  8.00000000E-01  1.50000000E+00  1.50000000E+00  8.00000000E-01
  8.00000000E-01  1.50000000E+00  1.50000000E+00  8.00000000E-01  8.00000000E-01
  1.50000000E+00  1.50000000E+00  8.00000000E-01  8.00000000E-01  1.50000000E+00
  1.50000000E+00  8.00000000E-01  8.00000000E-01  1.50000000E+00  1.50000000E+00
  8.00000000E-01  8.00000000E-01  1.50000000E+00  1.50000000E+00  8.00000000E-01
  8.00000000E-01  1.50000000E+00  1.50000000E+00  8.00000000E-01  8.00000000E-01
  1.50000000E+00  1.50000000E+00  8.00000000E-01  8.00000000E-01  1.50000000E+00
  1.50000000E+00  8.00000000E-01  8.00000000E-01  1.50000000E+00  1.50000000E+00
  8.00000000E-01  8.00000000E-01  1.50000000E+00  1.50000000E+00  8.00000000E-01
  8.00000000E-01  1.50000000E+00  1.50000000E+00  8.00000000E-01  8.00000000E-01
  1.50000000E+00  1.50000000E+00  8.00000000E-01  8.00000000E-01  1.50000000E+00
  1.50000000E+00  8.00000000E-01  8.00000000E-01  1.50000000E+00  1.50000000E+00
  8.00000000E-01  8.00000000E-01  1.50000000E+00  1.50000000E+00  8.00000000E-01
  8.00000000E-01  1.50000000E+00  1.50000000E+00  8.00000000E-01  8.00000000E-01
  1.50000000E+00  1.50000000E+00  8.00000000E-01  8.00000000E-01  1.50000000E+00
  1.50000000E+00  8.00000000E-01  8.00000000E-01  1.50000000E+00  1.50000000E+00
  8.00000000E-01  8.00000000E-01  1.50000000E+00  1.50000000E+00  8.00000000E-01
  8.00000000E-01  1.50000000E+00  1.50000000E+00  8.00000000E-01  8.00000000E-01
  1.50000000E+00  1.50000000E+00  8.00000000E-01  8.00000000E-01  1.50000000E+00
  1.50000000E+00  8.00000000E-01  8.00000000E-01  1.50000000E+00  1.50000000E+00
  8.00000000E-01  8.00000000E-01  1.50000000E+00  1.50000000E+00  8.00000000E-01
  8.00000000E-01  1.50000000E+00  1.50000000E+00  8.00000000E-01  8.00000000E-01
  1.50000000E+00  1.50000000E+00  8.00000000E-01  8.00000000E-01  1.50000000E+00
  1.50000000E+00  8.00000000E-01  8.00000000E-01  1.50000000E+00  1.50000000E+00
  8.00000000E-01  8.00000000E-01  1.50000000E+00  1.50000000E+00  8.00000000E-01
  8.00000000E-01  1.50000000E+00  1.50000000E+00  8.00000000E-01  8.00000000E-01
  1.50000000E+00  1.50000000E+00  8.00000000E-01  8.00000000E-01  1.50000000E+00
  1.50000000E+00  8.00000000E-01  8.00000000E-01  1.50000000E+00  1.50000000E+00
  8.00000000E-01  8.00000000E-01  1.50000000E+00  1.50000000E+00  8.00000000E-01
  8.00000000E-01  1.50000000E+00  1.50000000E+00  8.00000000E-01  8.00000000E-01
  1.50000000E+00  1.50000000E+00  8.00000000E-01  8.00000000E-01  1.50000000E+00
  1.50000000E+00  8.00000000E-01  8.00000000E-01  1.50000000E+00  1.50000000E+00
  8.00000000E-01  8.00000000E-01  1.50000000E+00  1.50000000E+00  8.00000000E-01
  8.00000000E-01  1.50000000E+00  1.50000000E+00  8.00000000E-01  8.00000000E-01
  1.50000000E+00  1.50000000E+00  8.00000000E-01  8.00000000E-01  1.50000000E+00
  1.50000000E+00  8.00000000E-01  8.00000000E-01  1.50000000E+00  1.50000000E+00
  8.00000000E-01  8.00000000E-01  1.50000000E+00  1.50000000E+00  8.00000000E-01
  8.00000000E-01  1.50000000E+00  1.50000000E+00  8.00000000E-01  8.00000000E-01
  1.50000000E+00  1.50000000E+00  8.00000000E-01  8.00000000E-01  1.50000000E+00
  1.50000000E+00  8.00000000E-01  8.00000000E-01  1.50000000E+00  1.50000000E+00
  8.00000000E-01  8.00000000E-01  1.50000000E+00  1.50000000E+00  8.00000000E-01
  8.00000000E-01  1.50000000E+00  1.50000000E+00  8.00000000E-01  8.00000000E-01
  1.50000000E+00  1.50000000E+00  8.00000000E-01  8.00000000E-01  1.50000000E+00
  1.50000000E+00  8.00000000E-01  8.00000000E-01  1.50000000E+00  1.50000000E+00
  8.00000000E-01  8.00000000E-01  1.50000000E+00  1.50000000E+00  8.00000000E-01
  8.00000000E-01  1.50000000E+00  1.50000000E+00  8.00000000E-01  8.00000000E-01
  1.50000000E+00  1.50000000E+00  8.00000000E-01  8.00000000E-01  1.50000000E+00
  1.50000000E+00  8.00000000E-01  8.00000000E-01  1.50000000E+00  1.50000000E+00
  8.00000000E-01  8.00000000E-01  1.50000000E+00  1.50000000E+00  8.00000000E-01
  8.00000000E-01  1.50000000E+00  1.50000000E+00  8.00000000E-01  8.00000000E-01
  1.50000000E+00  1.50000000E+00  8.00000000E-01  8.00000000E-01  1.50000000E+00
  1.50000000E+00  8.00000000E-01  8.00000000E-01  1.50000000E+00  1.50000000E+00
  8.00000000E-01  8.00000000E-01  1.50000000E+00  1.50000000E+00  8.00000000E-01
  8.00000000E-01  1.50000000E+00  1.50000000E+00  8.00000000E-01  8.00000000E-01
  1.50000000E+00  1.50000000E+00  8.00000000E-01  8.00000000E-01  1.50000000E+00
  1.50000000E+00  8.00000000E-01  8.00000000E-01  1.50000000E+00  1.50000000E+00
  8.00000000E-01  8.00000000E-01  1.50000000E+00  1.50000000E+00  8.00000000E-01
  8.00000000E-01  1.50000000E+00  1.50000000E+00  8.00000000E-01  8.00000000E-01
  1.50000000E+00  1.50000000E+00  8.00000000E-01  8.00000000E-01  1.50000000E+00
  1.50000000E+00  8.00000000E-01  8.00000000E-01  1.50000000E+00  1.50000000E+00
  8.00000000E-01  8.00000000E-01  1.50000000E+00  1.50000000E+00  8.00000000E-01
  8.00000000E-01  1.50000000E+00  1.50000000E+00  8.00000000E-01  8.00000000E-01
  1.50000000E+00  1.50000000E+00  8.00000000E-01  8.00000000E-01  1.50000000E+00
  1.50000000E+00  8.00000000E-01  8.00000000E-01  1.50000000E+00  1.50000000E+00
  8.00000000E-01  8.00000000E-01  1.50000000E+00  1.50000000E+00  8.00000000E-01
  8.00000000E-01  1.50000000E+00  1.50000000E+00  8.00000000E-01  8.00000000E-01
  1.50000000E+00  1.50000000E+00  8.00000000E-01  8.00000000E-01  1.50000000E+00
  1.50000000E+00  8.00000000E-01  8.00000000E-01  1.50000000E+00  1.50000000E+00
  8.00000000E-01  8.00000000E-01  1.50000000E+00  1.50000000E+00  8.00000000E-01
  8.00000000E-01  1.50000000E+00  1.50000000E+00  8.00000000E-01  8.00000000E-01
  1.50000000E+00  1.50000000E+00  8.00000000E-01  8.00000000E-01  1.50000000E+00
  1.50000000E+00  8.00000000E-01  8.00000000E-01  1.50000000E+00  1.50000000E+00
  8.00000000E-01  8.00000000E-01  1.50000000E+00  1.50000000E+00  8.00000000E-01
  8.00000000E-01  1.50000000E+00  1.50000000E+00  8.00000000E-01  8.00000000E-01
  1.50000000E+00  1.50000000E+00  8.00000000E-01  8.00000000E-01  1.50000000E+00
  1.50000000E+00  8.00000000E-01  8.00000000E-01  1.50000000E+00  1.50000000E+00
  8.00000000E-01  8.00000000E-01  1.50000000E+00  1.50000000E+00  8.00000000E-01
  8.00000000E-01  1.50000000E+00  1.50000000E+00  8.00000000E-01  8.00000000E-01
  1.50000000E+00  1.50000000E+00  8.00000000E-01  8.00000000E-01  1.50000000E+00
  1.50000000E+00  8.00000000E-01  8.00000000E-01  1.50000000E+00  1.50000000E+00
  8.00000000E-01  8.00000000E-01  1.50000000E+00  1.50000000E+00  8.00000000E-01
  8.00000000E-01  1.50000000E+00  1.50000000E+00  8.00000000E-01  8.00000000E-01
  1.50000000E+00  1.50000000E+00  8.00000000E-01  8.00000000E-01  1.50000000E+00
  1.50000000E+00  8.00000000E-01  8.00000000E-01  1.50000000E+00  1.50000000E+00
  8.00000000E-01  8.00000000E-01  1.50000000E+00  1.50000000E+00  8.00000000E-01
  8.00000000E-01  1.50000000E+00  1.50000000E+00  8.00000000E-01  8.00000000E-01
  1.50000000E+00  1.50000000E+00  8.00000000E-01  8.00000000E-01  1.50000000E+00
  1.50000000E+00  8.00000000E-01  8.00000000E-01  1.50000000E+00  1.50000000E+00
  8.00000000E-01  8.00000000E-01  1.50000000E+00  1.50000000E+00  8.00000000E-01
  8.00000000E-01  1.50000000E+00  1.50000000E+00  8.00000000E-01  8.00000000E-01
  1.50000000E+00  1.50000000E+00  8.00000000E-01  8.00000000E-01  1.50000000E+00
  1.50000000E+00  8.00000000E-01  8.00000000E-01  1.50000000E+00  1.50000000E+00
  8.00000000E-01  8.00000000E-01  1.50000000E+00  1.50000000E+00  8.00000000E-01
  8.00000000E-01  1.50000000E+00  1.50000000E+00  8.00000000E-01  8.00000000E-01
  1.50000000E+00  1.50000000E+00  8.00000000E-01  8.00000000E-01  1.50000000E+00
  1.50000000E+00  8.00000000E-01  8.00000000E-01  1.50000000E+00  1.50000000E+00
  8.00000000E-01  8.00000000E-01  1.50000000E+00  1.50000000E+00  8.00000000E-01
  8.00000000E-01  1.50000000E+00  1.50000000E+00  8.00000000E-01  8.00000000E-01
  1.50000000E+00  1.50000000E+00  8.00000000E-01  8.00000000E-01  1.50000000E+00
  1.50000000E+00  8.00000000E-01  8.00000000E-01  1.50000000E+00  1.50000000E+00
  8.00000000E-01  8.00000000E-01  1.50000000E+00  1.50000000E+00  8.00000000E-01
  8.00000000E-01  1.50000000E+00  1.50000000E+00  8.00000000E-01  8.00000000E-01
  1.50000000E+00  1.50000000E+00  8.00000000E-01  8.00000000E-01  1.50000000E+00
  1.50000000E+00  8.00000000E-01  8.00000000E-01  1.50000000E+00  1.50000000E+00
  8.00000000E-01  8.00000000E-01  1.50000000E+00  1.50000000E+00  8.00000000E-01
  8.00000000E-01  1.50000000E+00  1.50000000E+00  8.00000000E-01  8.00000000E-01
  1.50000000E+00  1.50000000E+00  8.00000000E-01  8.00000000E-01  1.50000000E+00
  1.50000000E+00  8.00000000E-01  8.00000000E-01  1.50000000E+00  1.50000000E+00
  8.00000000E-01  8.00000000E-01  1.50000000E+00  1.50000000E+00  8.00000000E-01
  8.00000000E-01  1.50000000E+00  1.50000000E+00  8.00000000E-01  8.00000000E-01
  1.50000000E+00  1.50000000E+00  8.00000000E-01  8.00000000E-01  1.50000000E+00
  1.50000000E+00  8.00000000E-01  8.00000000E-01  1.50000000E+00  1.50000000E+00
  8.00000000E-01  8.00000000E-01  1.50000000E+00  1.50000000E+00  8.00000000E-01
  8.00000000E-01  1.50000000E+00  1.50000000E+00  8.00000000E-01  8.00000000E-01
  1.50000000E+00  1.50000000E+00  8.00000000E-01  8.00000000E-01  1.50000000E+00
  1.50000000E+00  8.00000000E-01  8.00000000E-01  1.50000000E+00  1.50000000E+00
  8.00000000E-01  8.00000000E-01  1.50000000E+00  1.50000000E+00  8.00000000E-01
  8.00000000E-01  1.50000000E+00  1.50000000E+00  8.00000000E-01  8.00000000E-01
  1.50000000E+00  1.50000000E+00  8.00000000E-01  8.00000000E-01  1.50000000E+00
  1.50000000E+00  8.00000000E-01  8.00000000E-01  1.50000000E+00  1.50000000E+00
  8.00000000E-01  8.00000000E-01  1.50000000E+00  1.50000000E+00  8.00000000E-01
  8.00000000E-01  1.50000000E+00  1.50000000E+00  8.00000000E-01  8.00000000E-01
  1.50000000E+00  1.50000000E+00  8.00000000E-01  8.00000000E-01  1.50000000E+00
  1.50000000E+00  8.00000000E-01  8.00000000E-01  1.50000000E+00  1.50000000E+00
  8.00000000E-01  8.00000000E-01  1.50000000E+00  1.50000000E+00  8.00000000E-01
  8.00000000E-01  1.50000000E+00  1.50000000E+00  8.00000000E-01  8.00000000E-01
  1.50000000E+00  1.50000000E+00  8.00000000E-01  8.00000000E-01  1.50000000E+00
  1.50000000E+00  8.00000000E-01  8.00000000E-01  1.50000000E+00  1.50000000E+00
  8.00000000E-01  8.00000000E-01  1.50000000E+00  1.50000000E+00  8.00000000E-01
  8.00000000E-01  1.50000000E+00  1.50000000E+00  8.00000000E-01  8.00000000E-01
  1.50000000E+00  1.50000000E+00  8.00000000E-01  8.00000000E-01  1.50000000E+00
  1.50000000E+00  8.00000000E-01  8.00000000E-01  1.50000000E+00  1.50000000E+00
  8.00000000E-01  8.00000000E-01  1.50000000E+00  1.50000000E+00  8.00000000E-01
  8.00000000E-01  1.50000000E+00  1.50000000E+00  8.00000000E-01  8.00000000E-01
  1.50000000E+00  1.50000000E+00  8.00000000E-01  8.00000000E-01  1.50000000E+00
  1.50000000E+00  8.00000000E-01  8.00000000E-01  1.50000000E+00  1.50000000E+00
  8.00000000E-01  8.00000000E-01  1.50000000E+00  1.50000000E+00  8.00000000E-01
  8.00000000E-01  1.50000000E+00  1.50000000E+00  8.00000000E-01  8.00000000E-01
  1.50000000E+00  1.50000000E+00  8.00000000E-01  8.00000000E-01  1.50000000E+00
  1.50000000E+00  8.00000000E-01  8.00000000E-01  1.50000000E+00  1.50000000E+00
  8.00000000E-01  8.00000000E-01  1.50000000E+00  1.50000000E+00  8.00000000E-01
  8.00000000E-01  1.50000000E+00  1.50000000E+00  8.00000000E-01  8.00000000E-01
  1.50000000E+00  1.50000000E+00  8.00000000E-01  8.00000000E-01  1.50000000E+00
  1.50000000E+00  8.00000000E-01  8.00000000E-01  1.50000000E+00  1.50000000E+00
  8.00000000E-01  8.00000000E-01  1.50000000E+00  1.50000000E+00  8.00000000E-01
  8.00000000E-01  1.50000000E+00  1.50000000E+00  8.00000000E-01  8.00000000E-01
  1.50000000E+00  1.50000000E+00  8.00000000E-01  8.00000000E-01  1.50000000E+00
  1.50000000E+00  8.00000000E-01  8.00000000E-01  1.50000000E+00  1.50000000E+00
  8.00000000E-01  8.00000000E-01  1.50000000E+00  1.50000000E+00  8.00000000E-01
  8.00000000E-01  1.50000000E+00  1.50000000E+00  8.00000000E-01  8.00000000E-01
  1.50000000E+00  1.50000000E+00  8.00000000E-01  8.00000000E-01  1.50000000E+00
  1.50000000E+00  8.00000000E-01  8.00000000E-01  1.50000000E+00  1.50000000E+00
  8.00000000E-01  8.00000000E-01  1.50000000E+00  1.50000000E+00  8.00000000E-01
  8.00000000E-01  1.50000000E+00  1.50000000E+00  8.00000000E-01  8.00000000E-01
  1.50000000E+00  1.50000000E+00  8.00000000E-01  8.00000000E-01  1.50000000E+00
  1.50000000E+00  8.00000000E-01  8.00000000E-01  1.50000000E+00  1.50000000E+00
  8.00000000E-01  8.00000000E-01  1.50000000E+00  1.50000000E+00  8.00000000E-01
  8.00000000E-01  1.50000000E+00  1.50000000E+00  8.00000000E-01  8.00000000E-01
  1.50000000E+00  1.50000000E+00  8.00000000E-01  8.00000000E-01  1.50000000E+00
  1.50000000E+00  8.00000000E-01  8.00000000E-01  1.50000000E+00  1.50000000E+00
  8.00000000E-01  8.00000000E-01  1.50000000E+00  1.50000000E+00  8.00000000E-01
  8.00000000E-01  1.50000000E+00  1.50000000E+00  8.00000000E-01  8.00000000E-01
  1.50000000E+00  1.50000000E+00  8.00000000E-01  8.00000000E-01  1.50000000E+00
  1.50000000E+00  8.00000000E-01  8.00000000E-01  1.50000000E+00  1.50000000E+00
  8.00000000E-01  8.00000000E-01  1.50000000E+00  1.50000000E+00  8.00000000E-01
  8.00000000E-01  1.50000000E+00  1.50000000E+00  8.00000000E-01  8.00000000E-01
  1.50000000E+00  1.50000000E+00  8.00000000E-01  8.00000000E-01  1.50000000E+00
  1.50000000E+00  8.00000000E-01  8.00000000E-01  1.50000000E+00  1.50000000E+00
  8.00000000E-01  8.00000000E-01  1.50000000E+00  1.50000000E+00  8.00000000E-01
  8.00000000E-01  1.50000000E+00  1.50000000E+00  8.00000000E-01  8.00000000E-01
  1.50000000E+00  1.50000000E+00  8.00000000E-01  8.00000000E-01  1.50000000E+00
  1.50000000E+00  8.00000000E-01  8.00000000E-01  1.50000000E+00  1.50000000E+00
  8.00000000E-01  8.00000000E-01  1.50000000E+00  1.50000000E+00  8.00000000E-01
  8.00000000E-01  1.50000000E+00  1.50000000E+00  8.00000000E-01  8.00000000E-01
  1.50000000E+00  1.50000000E+00  8.00000000E-01  8.00000000E-01  1.50000000E+00
  1.50000000E+00  8.00000000E-01  8.00000000E-01  1.50000000E+00  1.50000000E+00
  8.00000000E-01  8.00000000E-01  1.50000000E+00  1.50000000E+00  8.00000000E-01
  8.00000000E-01  1.50000000E+00  1.50000000E+00  8.00000000E-01  8.00000000E-01
  1.50000000E+00  1.50000000E+00  8.00000000E-01  8.00000000E-01  1.50000000E+00
  1.50000000E+00  8.00000000E-01  8.00000000E-01  1.50000000E+00  1.50000000E+00
  8.00000000E-01  8.00000000E-01  1.50000000E+00  1.50000000E+00  8.00000000E-01
  8.00000000E-01  1.50000000E+00  1.50000000E+00  8.00000000E-01  8.00000000E-01
  1.50000000E+00  1.50000000E+00  8.00000000E-01  8.00000000E-01  1.50000000E+00
  1.50000000E+00  8.00000000E-01  8.00000000E-01  1.50000000E+00  1.50000000E+00
  8.00000000E-01  8.00000000E-01  1.50000000E+00  1.50000000E+00  8.00000000E-01
  8.00000000E-01  1.50000000E+00  1.50000000E+00  8.00000000E-01  8.00000000E-01
  1.50000000E+00  1.50000000E+00  8.00000000E-01  8.00000000E-01  1.50000000E+00
  1.50000000E+00  8.00000000E-01  8.00000000E-01  1.50000000E+00  1.50000000E+00
  8.00000000E-01  8.00000000E-01  1.50000000E+00  1.50000000E+00  8.00000000E-01
  8.00000000E-01  1.50000000E+00  1.50000000E+00  8.00000000E-01  8.00000000E-01
  1.50000000E+00  1.50000000E+00  8.00000000E-01  8.00000000E-01  1.50000000E+00
  1.50000000E+00  8.00000000E-01  8.00000000E-01  1.50000000E+00  1.50000000E+00
  8.00000000E-01  8.00000000E-01  1.50000000E+00  1.50000000E+00  8.00000000E-01
  8.00000000E-01  1.50000000E+00  1.50000000E+00  8.00000000E-01  8.00000000E-01
  1.50000000E+00  1.50000000E+00  8.00000000E-01  8.00000000E-01  1.50000000E+00
  1.50000000E+00  8.00000000E-01  8.00000000E-01  1.50000000E+00  1.50000000E+00
  8.00000000E-01  8.00000000E-01  1.50000000E+00  1.50000000E+00  8.00000000E-01
  8.00000000E-01  1.50000000E+00  1.50000000E+00  8.00000000E-01  8.00000000E-01
  1.50000000E+00  1.50000000E+00  8.00000000E-01  8.00000000E-01  1.50000000E+00
  1.50000000E+00  8.00000000E-01  8.00000000E-01  1.50000000E+00  1.50000000E+00
  8.00000000E-01  8.00000000E-01  1.50000000E+00  1.50000000E+00  8.00000000E-01
  8.00000000E-01  1.50000000E+00  1.50000000E+00  8.00000000E-01  8.00000000E-01
  1.50000000E+00  1.50000000E+00  8.00000000E-01  8.00000000E-01  1.50000000E+00
  1.50000000E+00  8.00000000E-01  8.00000000E-01  1.50000000E+00  1.50000000E+00
  8.00000000E-01  8.00000000E-01  1.50000000E+00  1.50000000E+00  8.00000000E-01
  8.00000000E-01  1.50000000E+00  1.50000000E+00  8.00000000E-01  8.00000000E-01
  1.50000000E+00  1.50000000E+00  8.00000000E-01  8.00000000E-01  1.50000000E+00
  1.50000000E+00  8.00000000E-01  8.00000000E-01  1.50000000E+00  1.50000000E+00
  8.00000000E-01  8.00000000E-01  1.50000000E+00  1.50000000E+00  8.00000000E-01
  8.00000000E-01  1.50000000E+00  1.50000000E+00  8.00000000E-01  8.00000000E-01
  1.50000000E+00  1.50000000E+00  8.00000000E-01  8.00000000E-01  1.50000000E+00
  1.50000000E+00  8.00000000E-01  8.00000000E-01  1.50000000E+00  1.50000000E+00
  8.00000000E-01  8.00000000E-01  1.50000000E+00  1.50000000E+00  8.00000000E-01
  8.00000000E-01  1.50000000E+00  1.50000000E+00  8.00000000E-01  8.00000000E-01
  1.50000000E+00  1.50000000E+00  8.00000000E-01  8.00000000E-01  1.50000000E+00
  1.50000000E+00  8.00000000E-01  8.00000000E-01  1.50000000E+00  1.50000000E+00
  8.00000000E-01  8.00000000E-01  1.50000000E+00  1.50000000E+00  8.00000000E-01
  8.00000000E-01  1.50000000E+00  1.50000000E+00  8.00000000E-01  8.00000000E-01
  1.50000000E+00  1.50000000E+00  8.00000000E-01  8.00000000E-01  1.50000000E+00
  1.50000000E+00  8.00000000E-01  8.00000000E-01  1.50000000E+00  1.50000000E+00
  8.00000000E-01  8.00000000E-01  1.50000000E+00  1.50000000E+00  8.00000000E-01
  8.00000000E-01  1.50000000E+00  1.50000000E+00  8.00000000E-01  8.00000000E-01
  1.50000000E+00  1.50000000E+00  8.00000000E-01  8.00000000E-01  1.50000000E+00
  1.50000000E+00  8.00000000E-01  8.00000000E-01  1.50000000E+00  1.50000000E+00
  8.00000000E-01  8.00000000E-01  1.50000000E+00  1.50000000E+00  8.00000000E-01
  8.00000000E-01  1.50000000E+00  1.50000000E+00  8.00000000E-01  8.00000000E-01
  1.50000000E+00  1.50000000E+00  8.00000000E-01  8.00000000E-01  1.50000000E+00
  1.50000000E+00  8.00000000E-01  8.00000000E-01  1.50000000E+00  1.50000000E+00
  8.00000000E-01  8.00000000E-01  1.50000000E+00  1.50000000E+00  8.00000000E-01
  8.00000000E-01  1.50000000E+00  1.50000000E+00  8.00000000E-01  8.00000000E-01
  1.50000000E+00  1.50000000E+00  8.00000000E-01  8.00000000E-01  1.50000000E+00
  1.50000000E+00  8.00000000E-01  8.00000000E-01  1.50000000E+00  1.50000000E+00
  8.00000000E-01  8.00000000E-01  1.50000000E+00  1.50000000E+00  8.00000000E-01
  8.00000000E-01  1.50000000E+00  1.50000000E+00  8.00000000E-01  8.00000000E-01
  1.50000000E+00  1.50000000E+00  8.00000000E-01  8.00000000E-01  1.50000000E+00
  1.50000000E+00  8.00000000E-01  8.00000000E-01  1.50000000E+00  1.50000000E+00
  8.00000000E-01  8.00000000E-01  1.50000000E+00  1.50000000E+00  8.00000000E-01
  8.00000000E-01  1.50000000E+00  1.50000000E+00  8.00000000E-01  8.00000000E-01
  1.50000000E+00  1.50000000E+00  8.00000000E-01  8.00000000E-01  1.50000000E+00
  1.50000000E+00  8.00000000E-01  8.00000000E-01  1.50000000E+00  1.50000000E+00
  8.00000000E-01  8.00000000E-01  1.50000000E+00  1.50000000E+00  8.00000000E-01
  8.00000000E-01  1.50000000E+00  1.50000000E+00  8.00000000E-01  8.00000000E-01
  1.50000000E+00  1.50000000E+00  8.00000000E-01  8.00000000E-01  1.50000000E+00
  1.50000000E+00  8.00000000E-01  8.00000000E-01  1.50000000E+00  1.50000000E+00
  8.00000000E-01  8.00000000E-01  1.50000000E+00  1.50000000E+00  8.00000000E-01
  8.00000000E-01  1.50000000E+00  1.50000000E+00  8.00000000E-01  8.00000000E-01
  1.50000000E+00  1.50000000E+00  8.00000000E-01  8.00000000E-01  1.50000000E+00
  1.50000000E+00  8.00000000E-01  8.00000000E-01  1.50000000E+00  1.50000000E+00
  8.00000000E-01  8.00000000E-01  1.50000000E+00  1.50000000E+00  8.00000000E-01
  8.00000000E-01  1.50000000E+00  1.50000000E+00  8.00000000E-01  8.00000000E-01
  1.50000000E+00  1.50000000E+00  8.00000000E-01  8.00000000E-01  1.50000000E+00
  1.50000000E+00  8.00000000E-01  8.00000000E-01  1.50000000E+00  1.50000000E+00
  8.00000000E-01  8.00000000E-01  1.50000000E+00  1.50000000E+00  8.00000000E-01
  8.00000000E-01  1.50000000E+00  1.50000000E+00  8.00000000E-01  8.00000000E-01
  1.50000000E+00  1.50000000E+00  8.00000000E-01  8.00000000E-01  1.50000000E+00
  1.50000000E+00  8.00000000E-01  8.00000000E-01  1.50000000E+00  1.50000000E+00
  8.00000000E-01  8.00000000E-01  1.50000000E+00  1.50000000E+00  8.00000000E-01
  8.00000000E-01  1.50000000E+00  1.50000000E+00  8.00000000E-01  8.00000000E-01
  1.50000000E+00  1.50000000E+00  8.00000000E-01  8.00000000E-01  1.50000000E+00
  1.50000000E+00  8.00000000E-01  8.00000000E-01  1.50000000E+00  1.50000000E+00
  8.00000000E-01  8.00000000E-01  1.50000000E+00  1.50000000E+00  8.00000000E-01
  8.00000000E-01  1.50000000E+00  1.50000000E+00  8.00000000E-01  8.00000000E-01
  1.50000000E+00  1.50000000E+00  8.00000000E-01  8.00000000E-01  1.50000000E+00
  1.50000000E+00  8.00000000E-01  8.00000000E-01  1.50000000E+00  1.50000000E+00
  8.00000000E-01  8.00000000E-01  1.50000000E+00  1.50000000E+00  8.00000000E-01
  8.00000000E-01  1.50000000E+00  1.50000000E+00  8.00000000E-01  8.00000000E-01
  1.50000000E+00  1.50000000E+00  8.00000000E-01  8.00000000E-01  1.50000000E+00
  1.50000000E+00  8.00000000E-01  8.00000000E-01  1.50000000E+00  1.50000000E+00
  8.00000000E-01  8.00000000E-01  1.50000000E+00  1.50000000E+00  8.00000000E-01
  8.00000000E-01  1.50000000E+00  1.50000000E+00  8.00000000E-01  8.00000000E-01
  1.50000000E+00  1.50000000E+00  8.00000000E-01  8.00000000E-01  1.50000000E+00
  1.50000000E+00  8.00000000E-01  8.00000000E-01  1.50000000E+00  1.50000000E+00
  8.00000000E-01  8.00000000E-01  1.50000000E+00  1.50000000E+00  8.00000000E-01
  8.00000000E-01  1.50000000E+00  1.50000000E+00  8.00000000E-01  8.00000000E-01
  1.50000000E+00  1.50000000E+00  8.00000000E-01  8.00000000E-01  1.50000000E+00
  1.50000000E+00  8.00000000E-01  8.00000000E-01  1.50000000E+00  1.50000000E+00
  8.00000000E-01  8.00000000E-01  1.50000000E+00  1.50000000E+00  8.00000000E-01
  8.00000000E-01  1.50000000E+00  1.50000000E+00  8.00000000E-01  8.00000000E-01
  1.50000000E+00  1.50000000E+00  8.00000000E-01  8.00000000E-01  1.50000000E+00
  1.50000000E+00  8.00000000E-01  8.00000000E-01  1.50000000E+00  1.50000000E+00
  8.00000000E-01  8.00000000E-01  1.50000000E+00  1.50000000E+00  8.00000000E-01
  8.00000000E-01  1.50000000E+00  1.50000000E+00  8.00000000E-01  8.00000000E-01
  1.50000000E+00  1.50000000E+00  8.00000000E-01  8.00000000E-01  1.50000000E+00
  1.50000000E+00  8.00000000E-01  8.00000000E-01  1.50000000E+00  1.50000000E+00
  8.00000000E-01  8.00000000E-01  1.50000000E+00  1.50000000E+00  8.00000000E-01
  8.00000000E-01  1.50000000E+00  1.50000000E+00  8.00000000E-01  8.00000000E-01
  1.50000000E+00  1.50000000E+00  8.00000000E-01  8.00000000E-01  1.50000000E+00
  1.50000000E+00  8.00000000E-01  8.00000000E-01  1.50000000E+00  1.50000000E+00
  8.00000000E-01  8.00000000E-01  1.50000000E+00  1.50000000E+00  8.00000000E-01
  8.00000000E-01  1.50000000E+00  1.50000000E+00  8.00000000E-01  8.00000000E-01
  1.50000000E+00  1.50000000E+00  8.00000000E-01  8.00000000E-01  1.50000000E+00
  1.50000000E+00  8.00000000E-01  8.00000000E-01  1.50000000E+00  1.50000000E+00
  8.00000000E-01  8.00000000E-01  1.50000000E+00  1.50000000E+00  8.00000000E-01
  8.00000000E-01  1.50000000E+00  1.50000000E+00  8.00000000E-01  8.00000000E-01
  1.50000000E+00  1.50000000E+00  8.00000000E-01  8.00000000E-01  1.50000000E+00
  1.50000000E+00  8.00000000E-01  8.00000000E-01  1.50000000E+00  1.50000000E+00
  8.00000000E-01  8.00000000E-01  1.50000000E+00  1.50000000E+00  8.00000000E-01
  8.00000000E-01  1.50000000E+00  1.50000000E+00  8.00000000E-01  8.00000000E-01
  1.50000000E+00  1.50000000E+00  8.00000000E-01  8.00000000E-01  1.50000000E+00
  1.50000000E+00  8.00000000E-01  8.00000000E-01  1.50000000E+00  1.50000000E+00
  8.00000000E-01  8.00000000E-01  1.50000000E+00  1.50000000E+00  8.00000000E-01
  8.00000000E-01  1.50000000E+00  1.50000000E+00  8.00000000E-01  8.00000000E-01
  1.50000000E+00  1.50000000E+00  8.00000000E-01  8.00000000E-01  1.50000000E+00
  1.50000000E+00  8.00000000E-01  8.00000000E-01  1.50000000E+00  1.50000000E+00
  8.00000000E-01  8.00000000E-01  1.50000000E+00  1.50000000E+00  8.00000000E-01
  8.00000000E-01  1.50000000E+00  1.50000000E+00  8.00000000E-01  8.00000000E-01
  1.50000000E+00  1.50000000E+00  8.00000000E-01  8.00000000E-01  1.50000000E+00
  1.50000000E+00  8.00000000E-01  8.00000000E-01  1.50000000E+00  1.50000000E+00
  8.00000000E-01  8.00000000E-01  1.50000000E+00  1.50000000E+00  8.00000000E-01
  8.00000000E-01  1.50000000E+00  1.50000000E+00  8.00000000E-01  8.00000000E-01
  1.50000000E+00  1.50000000E+00  8.00000000E-01  8.00000000E-01  1.50000000E+00
  1.50000000E+00  8.00000000E-01  8.00000000E-01  1.50000000E+00  1.50000000E+00
  8.00000000E-01  8.00000000E-01  1.50000000E+00  1.50000000E+00  8.00000000E-01
  8.00000000E-01  1.50000000E+00  1.50000000E+00  8.00000000E-01  8.00000000E-01
  1.50000000E+00  1.50000000E+00  8.00000000E-01  8.00000000E-01  1.50000000E+00
  1.50000000E+00  8.00000000E-01  8.00000000E-01  1.50000000E+00  1.50000000E+00
  8.00000000E-01  8.00000000E-01  1.50000000E+00  1.50000000E+00  8.00000000E-01
  8.00000000E-01  1.50000000E+00  1.50000000E+00  8.00000000E-01  8.00000000E-01
  1.50000000E+00  1.50000000E+00  8.00000000E-01  8.00000000E-01  1.50000000E+00
  1.50000000E+00  8.00000000E-01  8.00000000E-01  1.50000000E+00  1.50000000E+00
  8.00000000E-01  8.00000000E-01  1.50000000E+00  1.50000000E+00  8.00000000E-01
  8.00000000E-01  1.50000000E+00  1.50000000E+00  8.00000000E-01  8.00000000E-01
  1.50000000E+00  1.50000000E+00  8.00000000E-01  8.00000000E-01  1.50000000E+00
  1.50000000E+00  8.00000000E-01  8.00000000E-01  1.50000000E+00  1.50000000E+00
  8.00000000E-01  8.00000000E-01  1.50000000E+00  1.50000000E+00  8.00000000E-01
  8.00000000E-01  1.50000000E+00  1.50000000E+00  8.00000000E-01  8.00000000E-01
  1.50000000E+00  1.50000000E+00  8.00000000E-01  8.00000000E-01  1.50000000E+00
  1.50000000E+00  8.00000000E-01  8.00000000E-01  1.50000000E+00  1.50000000E+00
  8.00000000E-01  8.00000000E-01  1.50000000E+00  1.50000000E+00  8.00000000E-01
  8.00000000E-01  1.50000000E+00  1.50000000E+00  8.00000000E-01  8.00000000E-01
  1.50000000E+00  1.50000000E+00  8.00000000E-01  8.00000000E-01  1.50000000E+00
  1.50000000E+00  8.00000000E-01  8.00000000E-01  1.50000000E+00  1.50000000E+00
  8.00000000E-01  8.00000000E-01  1.50000000E+00  1.50000000E+00  8.00000000E-01
  8.00000000E-01  1.50000000E+00  1.50000000E+00  8.00000000E-01  8.00000000E-01
  1.50000000E+00  1.50000000E+00  8.00000000E-01  8.00000000E-01  1.50000000E+00
  1.50000000E+00  8.00000000E-01  8.00000000E-01  1.50000000E+00  1.50000000E+00
  8.00000000E-01  8.00000000E-01  1.50000000E+00  1.50000000E+00  8.00000000E-01
  8.00000000E-01  1.50000000E+00  1.50000000E+00  8.00000000E-01  8.00000000E-01
  1.50000000E+00  1.50000000E+00  8.00000000E-01  8.00000000E-01  1.50000000E+00
  1.50000000E+00  8.00000000E-01  8.00000000E-01  1.50000000E+00  1.50000000E+00
  8.00000000E-01  8.00000000E-01  1.50000000E+00  1.50000000E+00  8.00000000E-01
  8.00000000E-01  1.50000000E+00  1.50000000E+00  8.00000000E-01  8.00000000E-01
  1.50000000E+00  1.50000000E+00  8.00000000E-01  8.00000000E-01  1.50000000E+00
  1.50000000E+00  8.00000000E-01  8.00000000E-01  1.50000000E+00  1.50000000E+00
  8.00000000E-01  8.00000000E-01  1.50000000E+00  1.50000000E+00  8.00000000E-01
  8.00000000E-01  1.50000000E+00  1.50000000E+00  8.00000000E-01  8.00000000E-01
  1.50000000E+00  1.50000000E+00  8.00000000E-01  8.00000000E-01  1.50000000E+00
  1.50000000E+00  8.00000000E-01  8.00000000E-01  1.50000000E+00  1.50000000E+00
  8.00000000E-01  8.00000000E-01  1.50000000E+00  1.50000000E+00  8.00000000E-01
  8.00000000E-01  1.50000000E+00  1.50000000E+00  8.00000000E-01  8.00000000E-01
  1.50000000E+00  1.50000000E+00  8.00000000E-01  8.00000000E-01  1.50000000E+00
  1.50000000E+00  8.00000000E-01  8.00000000E-01  1.50000000E+00  1.50000000E+00
  8.00000000E-01  8.00000000E-01  1.50000000E+00  1.50000000E+00  8.00000000E-01
  8.00000000E-01  1.50000000E+00  1.50000000E+00  8.00000000E-01  8.00000000E-01
  1.50000000E+00  1.50000000E+00  8.00000000E-01  8.00000000E-01  1.50000000E+00
  1.50000000E+00  8.00000000E-01  8.00000000E-01  1.50000000E+00  1.50000000E+00
  8.00000000E-01  8.00000000E-01  1.50000000E+00  1.50000000E+00  8.00000000E-01
  8.00000000E-01  1.50000000E+00  1.50000000E+00  8.00000000E-01  8.00000000E-01
  1.50000000E+00  1.50000000E+00  8.00000000E-01  8.00000000E-01  1.50000000E+00
  1.50000000E+00  8.00000000E-01  8.00000000E-01  1.50000000E+00  1.50000000E+00
  8.00000000E-01  8.00000000E-01  1.50000000E+00  1.50000000E+00  8.00000000E-01
  8.00000000E-01  1.50000000E+00  1.50000000E+00  8.00000000E-01  8.00000000E-01
  1.50000000E+00  1.50000000E+00  8.00000000E-01  8.00000000E-01  1.50000000E+00
  1.50000000E+00  8.00000000E-01  8.00000000E-01  1.50000000E+00  1.50000000E+00
  8.00000000E-01  8.00000000E-01  1.50000000E+00  1.50000000E+00  8.00000000E-01
  8.00000000E-01  1.50000000E+00  1.50000000E+00  8.00000000E-01  8.00000000E-01
  1.50000000E+00  1.50000000E+00  8.00000000E-01  8.00000000E-01  1.50000000E+00
  1.50000000E+00  8.00000000E-01  8.00000000E-01  1.50000000E+00  1.50000000E+00
  8.00000000E-01  8.00000000E-01  1.50000000E+00  1.50000000E+00  8.00000000E-01
  8.00000000E-01  1.50000000E+00  1.50000000E+00  8.00000000E-01  8.00000000E-01
  1.50000000E+00  1.50000000E+00  8.00000000E-01  8.00000000E-01  1.50000000E+00
  1.50000000E+00  8.00000000E-01  8.00000000E-01  1.50000000E+00  1.50000000E+00
  8.00000000E-01  8.00000000E-01  1.50000000E+00  1.50000000E+00  8.00000000E-01
  8.00000000E-01  1.50000000E+00  1.50000000E+00  8.00000000E-01  8.00000000E-01
  1.50000000E+00  1.50000000E+00  8.00000000E-01  8.00000000E-01  1.50000000E+00
  1.50000000E+00  8.00000000E-01  8.00000000E-01  1.50000000E+00  1.50000000E+00
  8.00000000E-01  8.00000000E-01  1.50000000E+00  1.50000000E+00  8.00000000E-01
  8.00000000E-01  1.50000000E+00  1.50000000E+00  8.00000000E-01  8.00000000E-01
  1.50000000E+00  1.50000000E+00  8.00000000E-01  8.00000000E-01  1.50000000E+00
  1.50000000E+00  8.00000000E-01  8.00000000E-01  1.50000000E+00  1.50000000E+00
  8.00000000E-01  8.00000000E-01  1.50000000E+00  1.50000000E+00  8.00000000E-01
  8.00000000E-01  1.50000000E+00  1.50000000E+00  8.00000000E-01  8.00000000E-01
  1.50000000E+00  1.50000000E+00  8.00000000E-01  8.00000000E-01  1.50000000E+00
  1.50000000E+00  8.00000000E-01  8.00000000E-01  1.50000000E+00  1.50000000E+00
  8.00000000E-01  8.00000000E-01  1.50000000E+00  1.50000000E+00  8.00000000E-01
  8.00000000E-01  1.50000000E+00  1.50000000E+00  8.00000000E-01  8.00000000E-01
  1.50000000E+00  1.50000000E+00  8.00000000E-01  8.00000000E-01  1.50000000E+00
  1.50000000E+00  8.00000000E-01  8.00000000E-01  1.50000000E+00  1.50000000E+00
  8.00000000E-01  8.00000000E-01  1.50000000E+00  1.50000000E+00  8.00000000E-01
  8.00000000E-01  1.50000000E+00  1.50000000E+00  8.00000000E-01  8.00000000E-01
  1.50000000E+00  1.50000000E+00  8.00000000E-01  8.00000000E-01  1.50000000E+00
  1.50000000E+00  8.00000000E-01  8.00000000E-01  1.50000000E+00  1.50000000E+00
  8.00000000E-01  8.00000000E-01  1.50000000E+00  1.50000000E+00  8.00000000E-01
  8.00000000E-01  1.50000000E+00  1.50000000E+00  8.00000000E-01  8.00000000E-01
  1.50000000E+00  1.50000000E+00  8.00000000E-01  8.00000000E-01  1.50000000E+00
  1.50000000E+00  8.00000000E-01  8.00000000E-01  1.50000000E+00  1.50000000E+00
  8.00000000E-01  8.00000000E-01  1.50000000E+00  1.50000000E+00  8.00000000E-01
  8.00000000E-01  1.50000000E+00  1.50000000E+00  8.00000000E-01  8.00000000E-01
  1.50000000E+00  1.50000000E+00  8.00000000E-01  8.00000000E-01  1.50000000E+00
  1.50000000E+00  8.00000000E-01  8.00000000E-01  1.50000000E+00  1.50000000E+00
  8.00000000E-01  8.00000000E-01  1.50000000E+00  1.50000000E+00  8.00000000E-01
  8.00000000E-01  1.50000000E+00  1.50000000E+00  8.00000000E-01  8.00000000E-01
  1.50000000E+00  1.50000000E+00  8.00000000E-01  8.00000000E-01  1.50000000E+00
  1.50000000E+00  8.00000000E-01  8.00000000E-01  1.50000000E+00  1.50000000E+00
  8.00000000E-01  8.00000000E-01  1.50000000E+00  1.50000000E+00  8.00000000E-01
  8.00000000E-01  1.50000000E+00  1.50000000E+00  8.00000000E-01  8.00000000E-01
  1.50000000E+00  1.50000000E+00  8.00000000E-01  8.00000000E-01  1.50000000E+00
  1.50000000E+00  8.00000000E-01  8.00000000E-01  1.50000000E+00  1.50000000E+00
  8.00000000E-01  8.00000000E-01  1.50000000E+00  1.50000000E+00  8.00000000E-01
  8.00000000E-01  1.50000000E+00  1.50000000E+00  8.00000000E-01  8.00000000E-01
  1.50000000E+00  1.50000000E+00  8.00000000E-01  8.00000000E-01  1.50000000E+00
  1.50000000E+00  8.00000000E-01  8.00000000E-01  1.50000000E+00  1.50000000E+00
  8.00000000E-01  8.00000000E-01  1.50000000E+00  1.50000000E+00  8.00000000E-01
  8.00000000E-01  1.50000000E+00  1.50000000E+00  8.00000000E-01  8.00000000E-01
  1.50000000E+00  1.50000000E+00  8.00000000E-01  8.00000000E-01  1.50000000E+00
  1.50000000E+00  8.00000000E-01  8.00000000E-01  1.50000000E+00  1.50000000E+00
  8.00000000E-01  8.00000000E-01  1.50000000E+00  1.50000000E+00  8.00000000E-01
  8.00000000E-01  1.50000000E+00  1.50000000E+00  8.00000000E-01  8.00000000E-01
  1.50000000E+00  1.50000000E+00  8.00000000E-01  8.00000000E-01  1.50000000E+00
  1.50000000E+00  8.00000000E-01  8.00000000E-01  1.50000000E+00  1.50000000E+00
  8.00000000E-01  8.00000000E-01  1.50000000E+00  1.50000000E+00  8.00000000E-01
  8.00000000E-01  1.50000000E+00  1.50000000E+00  8.00000000E-01  8.00000000E-01
  1.50000000E+00  1.50000000E+00  8.00000000E-01  8.00000000E-01  1.50000000E+00
  1.50000000E+00  8.00000000E-01  8.00000000E-01  1.50000000E+00  1.50000000E+00
  8.00000000E-01  8.00000000E-01  1.50000000E+00  1.50000000E+00  8.00000000E-01
  8.00000000E-01  1.50000000E+00  1.50000000E+00  8.00000000E-01  8.00000000E-01
  1.50000000E+00  1.50000000E+00  8.00000000E-01  8.00000000E-01  1.50000000E+00
  1.50000000E+00  8.00000000E-01  8.00000000E-01  1.50000000E+00  1.50000000E+00
  8.00000000E-01  8.00000000E-01  1.50000000E+00  1.50000000E+00  8.00000000E-01
  8.00000000E-01  1.50000000E+00  1.50000000E+00  8.00000000E-01  8.00000000E-01
  1.50000000E+00  1.50000000E+00  8.00000000E-01  8.00000000E-01  1.50000000E+00
  1.50000000E+00  8.00000000E-01  8.00000000E-01  1.50000000E+00  1.50000000E+00
  8.00000000E-01  8.00000000E-01  1.50000000E+00  1.50000000E+00  8.00000000E-01
  8.00000000E-01  1.50000000E+00  1.50000000E+00  8.00000000E-01  8.00000000E-01
  1.50000000E+00  1.50000000E+00  8.00000000E-01  8.00000000E-01  1.50000000E+00
  1.50000000E+00  8.00000000E-01  8.00000000E-01  1.50000000E+00  1.50000000E+00
  8.00000000E-01  8.00000000E-01  1.50000000E+00  1.50000000E+00  8.00000000E-01
  8.00000000E-01  1.50000000E+00  1.50000000E+00  8.00000000E-01  8.00000000E-01
  1.50000000E+00  1.50000000E+00  8.00000000E-01  8.00000000E-01  1.50000000E+00
  1.50000000E+00  8.00000000E-01  8.00000000E-01  1.50000000E+00  1.50000000E+00
  8.00000000E-01  8.00000000E-01  1.50000000E+00  1.50000000E+00  8.00000000E-01
  8.00000000E-01  1.50000000E+00  1.50000000E+00  8.00000000E-01  8.00000000E-01
  1.50000000E+00  1.50000000E+00  8.00000000E-01  8.00000000E-01  1.50000000E+00
  1.50000000E+00  8.00000000E-01  8.00000000E-01  1.50000000E+00  1.50000000E+00
  8.00000000E-01  8.00000000E-01  1.50000000E+00  1.50000000E+00  8.00000000E-01
  8.00000000E-01  1.50000000E+00  1.50000000E+00  8.00000000E-01  8.00000000E-01
  1.50000000E+00  1.50000000E+00  8.00000000E-01  8.00000000E-01  1.50000000E+00
  1.50000000E+00  8.00000000E-01  8.00000000E-01  1.50000000E+00  1.50000000E+00
  8.00000000E-01  8.00000000E-01  1.50000000E+00  1.50000000E+00  8.00000000E-01
  8.00000000E-01  1.50000000E+00  1.50000000E+00  8.00000000E-01  8.00000000E-01
  1.50000000E+00  1.50000000E+00  8.00000000E-01  8.00000000E-01  1.50000000E+00
  1.50000000E+00  8.00000000E-01  8.00000000E-01  1.50000000E+00  1.50000000E+00
  8.00000000E-01  8.00000000E-01  1.50000000E+00  1.50000000E+00  8.00000000E-01
  8.00000000E-01  1.50000000E+00  1.50000000E+00  8.00000000E-01  8.00000000E-01
  1.50000000E+00  1.50000000E+00  8.00000000E-01  8.00000000E-01  1.50000000E+00
  1.50000000E+00  8.00000000E-01  8.00000000E-01  1.50000000E+00  1.50000000E+00
  8.00000000E-01  8.00000000E-01  1.50000000E+00  1.50000000E+00  8.00000000E-01
  8.00000000E-01  1.50000000E+00  1.50000000E+00  8.00000000E-01  8.00000000E-01
  1.50000000E+00  1.50000000E+00  8.00000000E-01  8.00000000E-01  1.50000000E+00
  1.50000000E+00  8.00000000E-01  8.00000000E-01  1.50000000E+00  1.50000000E+00
  8.00000000E-01  8.00000000E-01  1.50000000E+00  1.50000000E+00  8.00000000E-01
  8.00000000E-01  1.50000000E+00  1.50000000E+00  8.00000000E-01  8.00000000E-01
  1.50000000E+00  1.50000000E+00  8.00000000E-01  8.00000000E-01  1.50000000E+00
  1.50000000E+00  8.00000000E-01  8.00000000E-01  1.50000000E+00  1.50000000E+00
  8.00000000E-01  8.00000000E-01  1.50000000E+00  1.50000000E+00  8.00000000E-01
  8.00000000E-01  1.50000000E+00  1.50000000E+00  8.00000000E-01  8.00000000E-01
  1.50000000E+00  1.50000000E+00  8.00000000E-01  8.00000000E-01  1.50000000E+00
  1.50000000E+00  8.00000000E-01  8.00000000E-01  1.50000000E+00  1.50000000E+00
  8.00000000E-01  8.00000000E-01  1.50000000E+00  1.50000000E+00  8.00000000E-01
  8.00000000E-01  1.50000000E+00  1.50000000E+00  8.00000000E-01  8.00000000E-01
  1.50000000E+00  1.50000000E+00  8.00000000E-01  8.00000000E-01  1.50000000E+00
  1.50000000E+00  8.00000000E-01  8.00000000E-01  1.50000000E+00  1.50000000E+00
  8.00000000E-01  8.00000000E-01  1.50000000E+00  1.50000000E+00  8.00000000E-01
  8.00000000E-01  1.50000000E+00  1.50000000E+00  8.00000000E-01  8.00000000E-01
  1.50000000E+00  1.50000000E+00  8.00000000E-01  8.00000000E-01  1.50000000E+00
  1.50000000E+00  8.00000000E-01  8.00000000E-01  1.50000000E+00  1.50000000E+00
  8.00000000E-01  8.00000000E-01  1.50000000E+00  1.50000000E+00  8.00000000E-01
  8.00000000E-01  1.50000000E+00  1.50000000E+00  8.00000000E-01  8.00000000E-01
  1.50000000E+00  1.50000000E+00  8.00000000E-01  8.00000000E-01  1.50000000E+00
  1.50000000E+00  8.00000000E-01  8.00000000E-01  1.50000000E+00  1.50000000E+00
  8.00000000E-01  8.00000000E-01  1.50000000E+00  1.50000000E+00  8.00000000E-01
  8.00000000E-01  1.50000000E+00  1.50000000E+00  8.00000000E-01  8.00000000E-01
  1.50000000E+00  1.50000000E+00  8.00000000E-01  8.00000000E-01  1.50000000E+00
  1.50000000E+00  8.00000000E-01  8.00000000E-01  1.50000000E+00  1.50000000E+00
  8.00000000E-01  8.00000000E-01  1.50000000E+00  1.50000000E+00  8.00000000E-01
  8.00000000E-01  1.50000000E+00  1.50000000E+00  8.00000000E-01  8.00000000E-01
  1.50000000E+00  1.50000000E+00  8.00000000E-01  8.00000000E-01  1.50000000E+00
  1.50000000E+00  8.00000000E-01  8.00000000E-01  1.50000000E+00  1.50000000E+00
  8.00000000E-01  8.00000000E-01  1.50000000E+00  1.50000000E+00  8.00000000E-01
  8.00000000E-01  1.50000000E+00  1.50000000E+00  8.00000000E-01  8.00000000E-01
  1.50000000E+00  1.50000000E+00  8.00000000E-01  8.00000000E-01  1.50000000E+00
  1.50000000E+00  8.00000000E-01  8.00000000E-01  1.50000000E+00  1.50000000E+00
  8.00000000E-01  8.00000000E-01  1.50000000E+00  1.50000000E+00  8.00000000E-01
  8.00000000E-01  1.50000000E+00  1.50000000E+00  8.00000000E-01  8.00000000E-01
  1.50000000E+00  1.50000000E+00  8.00000000E-01  8.00000000E-01  1.50000000E+00
  1.50000000E+00  8.00000000E-01  8.00000000E-01  1.50000000E+00  1.50000000E+00
  8.00000000E-01  8.00000000E-01  1.50000000E+00  1.50000000E+00  8.00000000E-01
  8.00000000E-01  1.50000000E+00  1.50000000E+00  8.00000000E-01  8.00000000E-01
  1.50000000E+00  1.50000000E+00  8.00000000E-01  8.00000000E-01  1.50000000E+00
  1.50000000E+00  8.00000000E-01  8.00000000E-01  1.50000000E+00  1.50000000E+00
  8.00000000E-01  8.00000000E-01  1.50000000E+00  1.50000000E+00  8.00000000E-01
  8.00000000E-01  1.50000000E+00  1.50000000E+00  8.00000000E-01  8.00000000E-01
  1.50000000E+00  1.50000000E+00  8.00000000E-01  8.00000000E-01  1.50000000E+00
  1.50000000E+00  8.00000000E-01  8.00000000E-01  1.50000000E+00  1.50000000E+00
  8.00000000E-01  8.00000000E-01  1.50000000E+00  1.50000000E+00  8.00000000E-01
  8.00000000E-01  1.50000000E+00  1.50000000E+00  8.00000000E-01  8.00000000E-01
  1.50000000E+00  1.50000000E+00  8.00000000E-01  8.00000000E-01  1.50000000E+00
  1.50000000E+00  8.00000000E-01  8.00000000E-01  1.50000000E+00  1.50000000E+00
  8.00000000E-01  8.00000000E-01  1.50000000E+00  1.50000000E+00  8.00000000E-01
  8.00000000E-01  1.50000000E+00  1.50000000E+00  8.00000000E-01  8.00000000E-01
  1.50000000E+00  1.50000000E+00  8.00000000E-01  8.00000000E-01  1.50000000E+00
  1.50000000E+00  8.00000000E-01  8.00000000E-01  1.50000000E+00  1.50000000E+00
  8.00000000E-01  8.00000000E-01  1.50000000E+00  1.50000000E+00  8.00000000E-01
  8.00000000E-01  1.50000000E+00  1.50000000E+00  8.00000000E-01  8.00000000E-01
  1.50000000E+00  1.50000000E+00  8.00000000E-01  8.00000000E-01  1.50000000E+00
  1.50000000E+00  8.00000000E-01  8.00000000E-01  1.50000000E+00  1.50000000E+00
  8.00000000E-01  8.00000000E-01  1.50000000E+00  1.50000000E+00  8.00000000E-01
  8.00000000E-01  1.50000000E+00  1.50000000E+00  8.00000000E-01  8.00000000E-01
  1.50000000E+00  1.50000000E+00  8.00000000E-01  8.00000000E-01  1.50000000E+00
  1.50000000E+00  8.00000000E-01  8.00000000E-01  1.50000000E+00  1.50000000E+00
  8.00000000E-01  8.00000000E-01  1.50000000E+00  1.50000000E+00  8.00000000E-01
  8.00000000E-01  1.50000000E+00  1.50000000E+00  8.00000000E-01  8.00000000E-01
  1.50000000E+00  1.50000000E+00  8.00000000E-01  8.00000000E-01  1.50000000E+00
  1.50000000E+00  8.00000000E-01  8.00000000E-01  1.50000000E+00  1.50000000E+00
  8.00000000E-01  8.00000000E-01  1.50000000E+00  1.50000000E+00  8.00000000E-01
  8.00000000E-01  1.50000000E+00  1.50000000E+00  8.00000000E-01  8.00000000E-01
  1.50000000E+00  1.50000000E+00  8.00000000E-01  8.00000000E-01  1.50000000E+00
  1.50000000E+00  8.00000000E-01  8.00000000E-01  1.50000000E+00  1.50000000E+00
  8.00000000E-01  8.00000000E-01  1.50000000E+00  1.50000000E+00  8.00000000E-01
  8.00000000E-01  1.50000000E+00  1.50000000E+00  8.00000000E-01  8.00000000E-01
  1.50000000E+00  1.50000000E+00  8.00000000E-01  8.00000000E-01  1.50000000E+00
  1.50000000E+00  8.00000000E-01  8.00000000E-01  1.50000000E+00  1.50000000E+00
  8.00000000E-01  8.00000000E-01  1.50000000E+00  1.50000000E+00  8.00000000E-01
  8.00000000E-01  1.50000000E+00  1.50000000E+00  8.00000000E-01  8.00000000E-01
  1.50000000E+00  1.50000000E+00  8.00000000E-01  8.00000000E-01  1.50000000E+00
  1.50000000E+00  8.00000000E-01  8.00000000E-01  1.50000000E+00  1.50000000E+00
  8.00000000E-01  8.00000000E-01  1.50000000E+00  1.50000000E+00  8.00000000E-01
  8.00000000E-01  1.50000000E+00  1.50000000E+00  8.00000000E-01  8.00000000E-01
  1.50000000E+00  1.50000000E+00  8.00000000E-01  8.00000000E-01  1.50000000E+00
  1.50000000E+00  8.00000000E-01  8.00000000E-01  1.50000000E+00  1.50000000E+00
  8.00000000E-01  8.00000000E-01  1.50000000E+00  1.50000000E+00  8.00000000E-01
  8.00000000E-01  1.50000000E+00  1.50000000E+00  8.00000000E-01  8.00000000E-01
  1.50000000E+00  1.50000000E+00  8.00000000E-01  8.00000000E-01  1.50000000E+00
  1.50000000E+00  8.00000000E-01  8.00000000E-01  1.50000000E+00  1.50000000E+00
  8.00000000E-01  8.00000000E-01  1.50000000E+00  1.50000000E+00  8.00000000E-01
  8.00000000E-01  1.50000000E+00  1.50000000E+00  8.00000000E-01  8.00000000E-01
  1.50000000E+00  1.50000000E+00  8.00000000E-01  8.00000000E-01  1.50000000E+00
  1.50000000E+00  8.00000000E-01  8.00000000E-01  1.50000000E+00  1.50000000E+00
  8.00000000E-01  8.00000000E-01  1.50000000E+00  1.50000000E+00  8.00000000E-01
  8.00000000E-01  1.50000000E+00  1.50000000E+00  8.00000000E-01  8.00000000E-01
  1.50000000E+00  1.50000000E+00  8.00000000E-01  8.00000000E-01  1.50000000E+00
  1.50000000E+00  8.00000000E-01  8.00000000E-01  1.50000000E+00  1.50000000E+00
  8.00000000E-01  8.00000000E-01  1.50000000E+00  1.50000000E+00  8.00000000E-01
  8.00000000E-01  1.50000000E+00  1.50000000E+00  8.00000000E-01  8.00000000E-01
  1.50000000E+00  1.50000000E+00  8.00000000E-01  8.00000000E-01  1.50000000E+00
  1.50000000E+00  8.00000000E-01  8.00000000E-01  1.50000000E+00  1.50000000E+00
  8.00000000E-01  8.00000000E-01  1.50000000E+00  1.50000000E+00  8.00000000E-01
  8.00000000E-01  1.50000000E+00  1.50000000E+00  8.00000000E-01  8.00000000E-01
  1.50000000E+00  1.50000000E+00  8.00000000E-01  8.00000000E-01  1.50000000E+00
  1.50000000E+00  8.00000000E-01  8.00000000E-01  1.50000000E+00  1.50000000E+00
  8.00000000E-01  8.00000000E-01  1.50000000E+00  1.50000000E+00  8.00000000E-01
  8.00000000E-01  1.50000000E+00  1.50000000E+00  8.00000000E-01  8.00000000E-01
  1.50000000E+00  1.50000000E+00  8.00000000E-01  8.00000000E-01  1.50000000E+00
  1.50000000E+00  8.00000000E-01  8.00000000E-01  1.50000000E+00  1.50000000E+00
  8.00000000E-01  8.00000000E-01  1.50000000E+00  1.50000000E+00  8.00000000E-01
  8.00000000E-01  1.50000000E+00  1.50000000E+00  8.00000000E-01  8.00000000E-01
  1.50000000E+00  1.50000000E+00  8.00000000E-01  8.00000000E-01  1.50000000E+00
  1.50000000E+00  8.00000000E-01  8.00000000E-01  1.50000000E+00  1.50000000E+00
  8.00000000E-01  8.00000000E-01  1.50000000E+00  1.50000000E+00  8.00000000E-01
  8.00000000E-01  1.50000000E+00  1.50000000E+00  8.00000000E-01  8.00000000E-01
  1.50000000E+00  1.50000000E+00  8.00000000E-01  8.00000000E-01  1.50000000E+00
  1.50000000E+00  8.00000000E-01  8.00000000E-01  1.50000000E+00  1.50000000E+00
  8.00000000E-01  8.00000000E-01  1.50000000E+00  1.50000000E+00  8.00000000E-01
  8.00000000E-01  1.50000000E+00  1.50000000E+00  8.00000000E-01  8.00000000E-01
  1.50000000E+00  1.50000000E+00  8.00000000E-01  8.00000000E-01  1.50000000E+00
  1.50000000E+00  8.00000000E-01  8.00000000E-01  1.50000000E+00  1.50000000E+00
  8.00000000E-01  8.00000000E-01  1.50000000E+00  1.50000000E+00  8.00000000E-01
  8.00000000E-01  1.50000000E+00  1.50000000E+00  8.00000000E-01  8.00000000E-01
  1.50000000E+00  1.50000000E+00  8.00000000E-01  8.00000000E-01  1.50000000E+00
  1.50000000E+00  8.00000000E-01  8.00000000E-01  1.50000000E+00  1.50000000E+00
  8.00000000E-01  8.00000000E-01  1.50000000E+00  1.50000000E+00  8.00000000E-01
  8.00000000E-01  1.50000000E+00  1.50000000E+00  8.00000000E-01  8.00000000E-01
  1.50000000E+00  1.50000000E+00  8.00000000E-01  8.00000000E-01  1.50000000E+00
  1.50000000E+00  8.00000000E-01  8.00000000E-01  1.50000000E+00  1.50000000E+00
  8.00000000E-01  8.00000000E-01  1.50000000E+00  1.50000000E+00  8.00000000E-01
  8.00000000E-01  1.50000000E+00  1.50000000E+00  8.00000000E-01  8.00000000E-01
  1.50000000E+00  1.50000000E+00  8.00000000E-01  8.00000000E-01  1.50000000E+00
  1.50000000E+00  8.00000000E-01  8.00000000E-01  1.50000000E+00  1.50000000E+00
  8.00000000E-01  8.00000000E-01  1.50000000E+00  1.50000000E+00  8.00000000E-01
  8.00000000E-01  1.50000000E+00  1.50000000E+00  8.00000000E-01  8.00000000E-01
  1.50000000E+00  1.50000000E+00  8.00000000E-01  8.00000000E-01  1.50000000E+00
  1.50000000E+00  8.00000000E-01  8.00000000E-01  1.50000000E+00  1.50000000E+00
  8.00000000E-01  8.00000000E-01  1.50000000E+00  1.50000000E+00  8.00000000E-01
  8.00000000E-01  1.50000000E+00  1.50000000E+00  8.00000000E-01  8.00000000E-01
  1.50000000E+00  1.50000000E+00  8.00000000E-01  8.00000000E-01  1.50000000E+00
  1.50000000E+00  8.00000000E-01  8.00000000E-01  1.50000000E+00  1.50000000E+00
  8.00000000E-01  8.00000000E-01  1.50000000E+00  1.50000000E+00  8.00000000E-01
  8.00000000E-01  1.50000000E+00  1.50000000E+00  8.00000000E-01  8.00000000E-01
  1.50000000E+00  1.50000000E+00  8.00000000E-01  8.00000000E-01  1.50000000E+00
  1.50000000E+00  8.00000000E-01  8.00000000E-01  1.50000000E+00  1.50000000E+00
  8.00000000E-01  8.00000000E-01  1.50000000E+00  1.50000000E+00  8.00000000E-01
  8.00000000E-01  1.50000000E+00  1.50000000E+00  8.00000000E-01  8.00000000E-01
  1.50000000E+00  1.50000000E+00  8.00000000E-01  8.00000000E-01  1.50000000E+00
  1.50000000E+00  8.00000000E-01  8.00000000E-01  1.50000000E+00  1.50000000E+00
  8.00000000E-01  8.00000000E-01  1.50000000E+00  1.50000000E+00  8.00000000E-01
  8.00000000E-01  1.50000000E+00  1.50000000E+00  8.00000000E-01  8.00000000E-01
  1.50000000E+00  1.50000000E+00  8.00000000E-01  8.00000000E-01  1.50000000E+00
  1.50000000E+00  8.00000000E-01  8.00000000E-01  1.50000000E+00  1.50000000E+00
  8.00000000E-01  8.00000000E-01  1.50000000E+00  1.50000000E+00  8.00000000E-01
  8.00000000E-01  1.50000000E+00  1.50000000E+00  8.00000000E-01  8.00000000E-01
  1.50000000E+00  1.50000000E+00  8.00000000E-01  8.00000000E-01  1.50000000E+00
  1.50000000E+00  8.00000000E-01  8.00000000E-01  1.50000000E+00  1.50000000E+00
  8.00000000E-01  8.00000000E-01  1.50000000E+00  1.50000000E+00  8.00000000E-01
  8.00000000E-01  1.50000000E+00  1.50000000E+00  8.00000000E-01  8.00000000E-01
  1.50000000E+00  1.50000000E+00  8.00000000E-01  8.00000000E-01  1.50000000E+00
  1.50000000E+00  8.00000000E-01  8.00000000E-01  1.50000000E+00  1.50000000E+00
  8.00000000E-01  8.00000000E-01  1.50000000E+00  1.50000000E+00  8.00000000E-01
  8.00000000E-01  1.50000000E+00  1.50000000E+00  8.00000000E-01  8.00000000E-01
  1.50000000E+00  1.50000000E+00  8.00000000E-01  8.00000000E-01  1.50000000E+00
  1.50000000E+00  8.00000000E-01  8.00000000E-01  1.50000000E+00  1.50000000E+00
  8.00000000E-01  8.00000000E-01  1.50000000E+00  1.50000000E+00  8.00000000E-01
  8.00000000E-01  1.50000000E+00  1.50000000E+00  8.00000000E-01  8.00000000E-01
  1.50000000E+00  1.50000000E+00  8.00000000E-01  8.00000000E-01  1.50000000E+00
  1.50000000E+00  8.00000000E-01  8.00000000E-01  1.50000000E+00  1.50000000E+00
  8.00000000E-01  8.00000000E-01  1.50000000E+00  1.50000000E+00  8.00000000E-01
  8.00000000E-01  1.50000000E+00  1.50000000E+00  8.00000000E-01  8.00000000E-01
  1.50000000E+00  1.50000000E+00  8.00000000E-01  8.00000000E-01  1.50000000E+00
  1.50000000E+00  8.00000000E-01  8.00000000E-01  1.50000000E+00  1.50000000E+00
  8.00000000E-01  8.00000000E-01  1.50000000E+00  1.50000000E+00  8.00000000E-01
  8.00000000E-01  1.50000000E+00  1.50000000E+00  8.00000000E-01  8.00000000E-01
  1.50000000E+00  1.50000000E+00  8.00000000E-01  8.00000000E-01  1.50000000E+00
  1.50000000E+00  8.00000000E-01  8.00000000E-01  1.50000000E+00  1.50000000E+00
  8.00000000E-01  8.00000000E-01  1.50000000E+00  1.50000000E+00  8.00000000E-01
  8.00000000E-01  1.50000000E+00  1.50000000E+00  8.00000000E-01  8.00000000E-01
  1.50000000E+00  1.50000000E+00  8.00000000E-01  8.00000000E-01  1.50000000E+00
  1.50000000E+00  8.00000000E-01  8.00000000E-01  1.50000000E+00  1.50000000E+00
  8.00000000E-01  8.00000000E-01  1.50000000E+00  1.50000000E+00  8.00000000E-01
  8.00000000E-01  1.50000000E+00  1.50000000E+00  8.00000000E-01  8.00000000E-01
  1.50000000E+00  1.50000000E+00  8.00000000E-01  8.00000000E-01  1.50000000E+00
  1.50000000E+00  8.00000000E-01  8.00000000E-01  1.50000000E+00  1.50000000E+00
  8.00000000E-01  8.00000000E-01  1.50000000E+00  1.50000000E+00  8.00000000E-01
  8.00000000E-01  1.50000000E+00  1.50000000E+00  8.00000000E-01  8.00000000E-01
  1.50000000E+00  1.50000000E+00  8.00000000E-01  8.00000000E-01  1.50000000E+00
  1.50000000E+00  8.00000000E-01  8.00000000E-01  1.50000000E+00  1.50000000E+00
  8.00000000E-01  8.00000000E-01  1.50000000E+00  1.50000000E+00  8.00000000E-01
  8.00000000E-01  1.50000000E+00  1.50000000E+00  8.00000000E-01  8.00000000E-01
  1.50000000E+00  1.50000000E+00  8.00000000E-01  8.00000000E-01  1.50000000E+00
  1.50000000E+00  8.00000000E-01  8.00000000E-01  1.50000000E+00  1.50000000E+00
  8.00000000E-01  8.00000000E-01  1.50000000E+00  1.50000000E+00  8.00000000E-01
  8.00000000E-01  1.50000000E+00  1.50000000E+00  8.00000000E-01  8.00000000E-01
  1.50000000E+00  1.50000000E+00  8.00000000E-01  8.00000000E-01  1.50000000E+00
  1.50000000E+00  8.00000000E-01  8.00000000E-01  1.50000000E+00  1.50000000E+00
  8.00000000E-01  8.00000000E-01  1.50000000E+00  1.50000000E+00  8.00000000E-01
  8.00000000E-01  1.50000000E+00  1.50000000E+00  8.00000000E-01  8.00000000E-01
  1.50000000E+00  1.50000000E+00  8.00000000E-01  8.00000000E-01  1.50000000E+00
  1.50000000E+00  8.00000000E-01  8.00000000E-01  1.50000000E+00  1.50000000E+00
  8.00000000E-01  8.00000000E-01  1.50000000E+00  1.50000000E+00  8.00000000E-01
  8.00000000E-01  1.50000000E+00  1.50000000E+00  8.00000000E-01  8.00000000E-01
  1.50000000E+00  1.50000000E+00  8.00000000E-01  8.00000000E-01  1.50000000E+00
  1.50000000E+00  8.00000000E-01  8.00000000E-01  1.50000000E+00  1.50000000E+00
  8.00000000E-01  8.00000000E-01  1.50000000E+00  1.50000000E+00  8.00000000E-01
  8.00000000E-01  1.50000000E+00  1.50000000E+00  8.00000000E-01  8.00000000E-01
  1.50000000E+00  1.50000000E+00  8.00000000E-01  8.00000000E-01  1.50000000E+00
  1.50000000E+00  8.00000000E-01  8.00000000E-01  1.50000000E+00  1.50000000E+00
  8.00000000E-01  8.00000000E-01  1.50000000E+00  1.50000000E+00  8.00000000E-01
  8.00000000E-01  1.50000000E+00  1.50000000E+00  8.00000000E-01  8.00000000E-01
  1.50000000E+00  1.50000000E+00  8.00000000E-01  8.00000000E-01  1.50000000E+00
  1.50000000E+00  8.00000000E-01  8.00000000E-01  1.50000000E+00  1.50000000E+00
  8.00000000E-01  8.00000000E-01  1.50000000E+00  1.50000000E+00  8.00000000E-01
  8.00000000E-01  1.50000000E+00  1.50000000E+00  8.00000000E-01  8.00000000E-01
  1.50000000E+00  1.50000000E+00  8.00000000E-01  8.00000000E-01  1.50000000E+00
  1.50000000E+00  8.00000000E-01  8.00000000E-01  1.50000000E+00  1.50000000E+00
  8.00000000E-01  8.00000000E-01  1.50000000E+00  1.50000000E+00  8.00000000E-01
  8.00000000E-01  1.50000000E+00  1.50000000E+00  8.00000000E-01  8.00000000E-01
  1.50000000E+00  1.50000000E+00  8.00000000E-01  8.00000000E-01  1.50000000E+00
  1.50000000E+00  8.00000000E-01  8.00000000E-01  1.50000000E+00  1.50000000E+00
  8.00000000E-01  8.00000000E-01  1.50000000E+00  1.50000000E+00  8.00000000E-01
  8.00000000E-01  1.50000000E+00  1.50000000E+00  8.00000000E-01  8.00000000E-01
  1.50000000E+00  1.50000000E+00  8.00000000E-01  8.00000000E-01  1.50000000E+00
  1.50000000E+00  8.00000000E-01  8.00000000E-01  1.50000000E+00  1.50000000E+00
  8.00000000E-01  8.00000000E-01  1.50000000E+00  1.50000000E+00  8.00000000E-01
  8.00000000E-01  1.50000000E+00  1.50000000E+00  8.00000000E-01  8.00000000E-01
  1.50000000E+00  1.50000000E+00  8.00000000E-01  8.00000000E-01  1.50000000E+00
  1.50000000E+00  8.00000000E-01  8.00000000E-01  1.50000000E+00  1.50000000E+00
  8.00000000E-01  8.00000000E-01  1.50000000E+00  1.50000000E+00  8.00000000E-01
  8.00000000E-01  1.50000000E+00  1.50000000E+00  8.00000000E-01  8.00000000E-01
  1.50000000E+00  1.50000000E+00  8.00000000E-01  8.00000000E-01  1.50000000E+00
  1.50000000E+00  8.00000000E-01  8.00000000E-01  1.50000000E+00  1.50000000E+00
  8.00000000E-01  8.00000000E-01  1.50000000E+00  1.50000000E+00  8.00000000E-01
  8.00000000E-01  1.50000000E+00  1.50000000E+00  8.00000000E-01  8.00000000E-01
  1.50000000E+00  1.50000000E+00  8.00000000E-01  8.00000000E-01  1.50000000E+00
  1.50000000E+00  8.00000000E-01  8.00000000E-01  1.50000000E+00  1.50000000E+00
  8.00000000E-01  8.00000000E-01  1.50000000E+00  1.50000000E+00  8.00000000E-01
  8.00000000E-01  1.50000000E+00  1.50000000E+00  8.00000000E-01  8.00000000E-01
  1.50000000E+00  1.50000000E+00  8.00000000E-01  8.00000000E-01  1.50000000E+00
  1.50000000E+00  8.00000000E-01  8.00000000E-01  1.50000000E+00  1.50000000E+00
  8.00000000E-01  8.00000000E-01  1.50000000E+00  1.50000000E+00  8.00000000E-01
  8.00000000E-01  1.50000000E+00  1.50000000E+00  8.00000000E-01  8.00000000E-01
  1.50000000E+00  1.50000000E+00  8.00000000E-01  8.00000000E-01  1.50000000E+00
  1.50000000E+00  8.00000000E-01  8.00000000E-01  1.50000000E+00  1.50000000E+00
  8.00000000E-01  8.00000000E-01  1.50000000E+00  1.50000000E+00  8.00000000E-01
  8.00000000E-01  1.50000000E+00  1.50000000E+00  8.00000000E-01  8.00000000E-01
  1.50000000E+00  1.50000000E+00  8.00000000E-01  8.00000000E-01  1.50000000E+00
  1.50000000E+00  8.00000000E-01  8.00000000E-01  1.50000000E+00  1.50000000E+00
  8.00000000E-01  8.00000000E-01  1.50000000E+00  1.50000000E+00  8.00000000E-01
  8.00000000E-01  1.50000000E+00  1.50000000E+00  8.00000000E-01  8.00000000E-01
  1.50000000E+00  1.50000000E+00  8.00000000E-01  8.00000000E-01  1.50000000E+00
  1.50000000E+00  8.00000000E-01  8.00000000E-01  1.50000000E+00  1.50000000E+00
  8.00000000E-01  8.00000000E-01  1.50000000E+00  1.50000000E+00  8.00000000E-01
  8.00000000E-01  1.50000000E+00  1.50000000E+00  8.00000000E-01  8.00000000E-01
  1.50000000E+00  1.50000000E+00  8.00000000E-01  8.00000000E-01  1.50000000E+00
  1.50000000E+00  8.00000000E-01  8.00000000E-01  1.50000000E+00  1.50000000E+00
  8.00000000E-01  8.00000000E-01  1.50000000E+00  1.50000000E+00  8.00000000E-01
  8.00000000E-01  1.50000000E+00  1.50000000E+00  8.00000000E-01  8.00000000E-01
  1.50000000E+00  1.50000000E+00  8.00000000E-01  8.00000000E-01  1.50000000E+00
  1.50000000E+00  8.00000000E-01  8.00000000E-01  1.50000000E+00  1.50000000E+00
  8.00000000E-01  8.00000000E-01  1.50000000E+00  1.50000000E+00  8.00000000E-01
  8.00000000E-01  1.50000000E+00  1.50000000E+00  8.00000000E-01  8.00000000E-01
  1.50000000E+00  1.50000000E+00  8.00000000E-01  8.00000000E-01  1.50000000E+00
  1.50000000E+00  8.00000000E-01  8.00000000E-01  1.50000000E+00  1.50000000E+00
  8.00000000E-01  8.00000000E-01  1.50000000E+00  1.50000000E+00  8.00000000E-01
  8.00000000E-01  1.50000000E+00  1.50000000E+00  8.00000000E-01  8.00000000E-01
  1.50000000E+00  1.50000000E+00  8.00000000E-01  8.00000000E-01  1.50000000E+00
  1.50000000E+00  8.00000000E-01  8.00000000E-01  1.50000000E+00  1.50000000E+00
  8.00000000E-01  8.00000000E-01  1.50000000E+00  1.50000000E+00  8.00000000E-01
  8.00000000E-01  1.50000000E+00  1.50000000E+00  8.00000000E-01  8.00000000E-01
  1.50000000E+00  1.50000000E+00  8.00000000E-01  8.00000000E-01  1.50000000E+00
  1.50000000E+00  8.00000000E-01  8.00000000E-01  1.50000000E+00  1.50000000E+00
  8.00000000E-01  8.00000000E-01  1.50000000E+00  1.50000000E+00  8.00000000E-01
  8.00000000E-01  1.50000000E+00  1.50000000E+00  8.00000000E-01  8.00000000E-01
  1.50000000E+00  1.50000000E+00  8.00000000E-01  8.00000000E-01  1.50000000E+00
  1.50000000E+00  8.00000000E-01  8.00000000E-01  1.50000000E+00  1.50000000E+00
  8.00000000E-01  8.00000000E-01  1.50000000E+00  1.50000000E+00  8.00000000E-01
  8.00000000E-01  1.50000000E+00  1.50000000E+00  8.00000000E-01  8.00000000E-01
  1.50000000E+00  1.50000000E+00  8.00000000E-01  8.00000000E-01  1.50000000E+00
  1.50000000E+00  8.00000000E-01  8.00000000E-01  1.50000000E+00  1.50000000E+00
  8.00000000E-01  8.00000000E-01  1.50000000E+00  1.50000000E+00  8.00000000E-01
  8.00000000E-01  1.50000000E+00  1.50000000E+00  8.00000000E-01  8.00000000E-01
  1.50000000E+00  1.50000000E+00  8.00000000E-01  8.00000000E-01  1.50000000E+00
  1.50000000E+00  8.00000000E-01  8.00000000E-01  1.50000000E+00  1.50000000E+00
  8.00000000E-01  8.00000000E-01  1.50000000E+00  1.50000000E+00  8.00000000E-01
  8.00000000E-01  1.50000000E+00  1.50000000E+00  8.00000000E-01  8.00000000E-01
  1.50000000E+00  1.50000000E+00  8.00000000E-01  8.00000000E-01  1.50000000E+00
  1.50000000E+00  8.00000000E-01  8.00000000E-01  1.50000000E+00  1.50000000E+00
  8.00000000E-01  8.00000000E-01  1.50000000E+00  1.50000000E+00  8.00000000E-01
  8.00000000E-01  1.50000000E+00  1.50000000E+00  8.00000000E-01  8.00000000E-01
  1.50000000E+00  1.50000000E+00  8.00000000E-01  8.00000000E-01  1.50000000E+00
  1.50000000E+00  8.00000000E-01  8.00000000E-01  1.50000000E+00  1.50000000E+00
  8.00000000E-01  8.00000000E-01  1.50000000E+00  1.50000000E+00  8.00000000E-01
  8.00000000E-01  1.50000000E+00  1.50000000E+00  8.00000000E-01  8.00000000E-01
  1.50000000E+00  1.50000000E+00  8.00000000E-01  8.00000000E-01  1.50000000E+00
  1.50000000E+00  8.00000000E-01  8.00000000E-01  1.50000000E+00  1.50000000E+00
  8.00000000E-01  8.00000000E-01  1.50000000E+00  1.50000000E+00  8.00000000E-01
  8.00000000E-01  1.50000000E+00  1.50000000E+00  8.00000000E-01  8.00000000E-01
  1.50000000E+00  1.50000000E+00  8.00000000E-01  8.00000000E-01  1.50000000E+00
  1.50000000E+00  8.00000000E-01  8.00000000E-01  1.50000000E+00  1.50000000E+00
  8.00000000E-01  8.00000000E-01  1.50000000E+00  1.50000000E+00  8.00000000E-01
  8.00000000E-01  1.50000000E+00  1.50000000E+00  8.00000000E-01  8.00000000E-01
  1.50000000E+00  1.50000000E+00  8.00000000E-01  8.00000000E-01  1.50000000E+00
  1.50000000E+00  8.00000000E-01  8.00000000E-01  1.50000000E+00  1.50000000E+00
  8.00000000E-01  8.00000000E-01  1.50000000E+00  1.50000000E+00  8.00000000E-01
  8.00000000E-01  1.50000000E+00  1.50000000E+00  8.00000000E-01  8.00000000E-01
  1.50000000E+00  1.50000000E+00  8.00000000E-01  8.00000000E-01  1.50000000E+00
  1.50000000E+00  8.00000000E-01  8.00000000E-01  1.50000000E+00  1.50000000E+00
  8.00000000E-01  8.00000000E-01  1.50000000E+00  1.50000000E+00  8.00000000E-01
  8.00000000E-01  1.50000000E+00  1.50000000E+00  8.00000000E-01  8.00000000E-01
  1.50000000E+00  1.50000000E+00  8.00000000E-01  8.00000000E-01  1.50000000E+00
  1.50000000E+00  8.00000000E-01  8.00000000E-01  1.50000000E+00  1.50000000E+00
  8.00000000E-01  8.00000000E-01  1.50000000E+00  1.50000000E+00  8.00000000E-01
  8.00000000E-01  1.50000000E+00  1.50000000E+00  8.00000000E-01  8.00000000E-01
  1.50000000E+00  1.50000000E+00  8.00000000E-01  8.00000000E-01  1.50000000E+00
  1.50000000E+00  8.00000000E-01  8.00000000E-01  1.50000000E+00  1.50000000E+00
  8.00000000E-01  8.00000000E-01  1.50000000E+00  1.50000000E+00  8.00000000E-01
  8.00000000E-01  1.50000000E+00  1.50000000E+00  8.00000000E-01  8.00000000E-01
  1.50000000E+00  1.50000000E+00  8.00000000E-01  8.00000000E-01  1.50000000E+00
  1.50000000E+00  8.00000000E-01  8.00000000E-01  1.50000000E+00  1.50000000E+00
  8.00000000E-01  8.00000000E-01  1.50000000E+00  1.50000000E+00  8.00000000E-01
  8.00000000E-01  1.50000000E+00  1.50000000E+00  8.00000000E-01  8.00000000E-01
  1.50000000E+00  1.50000000E+00  8.00000000E-01  8.00000000E-01  1.50000000E+00
  1.50000000E+00  8.00000000E-01  8.00000000E-01  1.50000000E+00  1.50000000E+00
  8.00000000E-01  8.00000000E-01  1.50000000E+00  1.50000000E+00  8.00000000E-01
  8.00000000E-01  1.50000000E+00  1.50000000E+00  8.00000000E-01  8.00000000E-01
  1.50000000E+00  1.50000000E+00  8.00000000E-01  8.00000000E-01  1.50000000E+00
  1.50000000E+00  8.00000000E-01  8.00000000E-01  1.50000000E+00  1.50000000E+00
  8.00000000E-01  8.00000000E-01  1.50000000E+00  1.50000000E+00  8.00000000E-01
  8.00000000E-01  1.50000000E+00  1.50000000E+00  8.00000000E-01  8.00000000E-01
  1.50000000E+00  1.50000000E+00  8.00000000E-01  8.00000000E-01  1.50000000E+00
  1.50000000E+00  8.00000000E-01  8.00000000E-01  1.50000000E+00  1.50000000E+00
  8.00000000E-01  8.00000000E-01  1.50000000E+00  1.50000000E+00  8.00000000E-01
  8.00000000E-01  1.50000000E+00  1.50000000E+00  8.00000000E-01  8.00000000E-01
  1.50000000E+00  1.50000000E+00  8.00000000E-01  8.00000000E-01  1.50000000E+00
  1.50000000E+00  8.00000000E-01  8.00000000E-01  1.50000000E+00  1.50000000E+00
  8.00000000E-01  8.00000000E-01  1.50000000E+00  1.50000000E+00  8.00000000E-01
  8.00000000E-01  1.50000000E+00  1.50000000E+00  8.00000000E-01  8.00000000E-01
  1.50000000E+00  1.50000000E+00  8.00000000E-01  8.00000000E-01  1.50000000E+00
  1.50000000E+00  8.00000000E-01  8.00000000E-01  1.50000000E+00  1.50000000E+00
  8.00000000E-01  8.00000000E-01  1.50000000E+00  1.50000000E+00  8.00000000E-01
  8.00000000E-01  1.50000000E+00  1.50000000E+00  8.00000000E-01  8.00000000E-01
  1.50000000E+00  1.50000000E+00  8.00000000E-01  8.00000000E-01  1.50000000E+00
  1.50000000E+00  8.00000000E-01  8.00000000E-01  1.50000000E+00  1.50000000E+00
  8.00000000E-01  8.00000000E-01  1.50000000E+00  1.50000000E+00  8.00000000E-01
  8.00000000E-01  1.50000000E+00  1.50000000E+00  8.00000000E-01  8.00000000E-01
  1.50000000E+00  1.50000000E+00  8.00000000E-01  8.00000000E-01  1.50000000E+00
  1.50000000E+00  8.00000000E-01  8.00000000E-01  1.50000000E+00  1.50000000E+00
  8.00000000E-01  8.00000000E-01  1.50000000E+00  1.50000000E+00  8.00000000E-01
  8.00000000E-01  1.50000000E+00  1.50000000E+00  8.00000000E-01  8.00000000E-01
  1.50000000E+00  1.50000000E+00  8.00000000E-01  8.00000000E-01  1.50000000E+00
  1.50000000E+00  8.00000000E-01  8.00000000E-01  1.50000000E+00  1.50000000E+00
  8.00000000E-01  8.00000000E-01  1.50000000E+00  1.50000000E+00  8.00000000E-01
  8.00000000E-01  1.50000000E+00  1.50000000E+00  8.00000000E-01  8.00000000E-01
  1.50000000E+00  1.50000000E+00  8.00000000E-01  8.00000000E-01  1.50000000E+00
  1.50000000E+00  8.00000000E-01  8.00000000E-01  1.50000000E+00  1.50000000E+00
  8.00000000E-01  8.00000000E-01  1.50000000E+00  1.50000000E+00  8.00000000E-01
  8.00000000E-01  1.50000000E+00  1.50000000E+00  8.00000000E-01  8.00000000E-01
  1.50000000E+00  1.50000000E+00  8.00000000E-01  8.00000000E-01  1.50000000E+00
  1.50000000E+00  8.00000000E-01  8.00000000E-01  1.50000000E+00  1.50000000E+00
  8.00000000E-01  8.00000000E-01  1.50000000E+00  1.50000000E+00  8.00000000E-01
  8.00000000E-01  1.50000000E+00  1.50000000E+00  8.00000000E-01  8.00000000E-01
  1.50000000E+00  1.50000000E+00  8.00000000E-01  8.00000000E-01  1.50000000E+00
  1.50000000E+00  8.00000000E-01  8.00000000E-01  1.50000000E+00  1.50000000E+00
  8.00000000E-01  8.00000000E-01  1.50000000E+00  1.50000000E+00  8.00000000E-01
  8.00000000E-01  1.50000000E+00  1.50000000E+00  8.00000000E-01  8.00000000E-01
  1.50000000E+00  1.50000000E+00  8.00000000E-01  8.00000000E-01  1.50000000E+00
  1.50000000E+00  8.00000000E-01  8.00000000E-01  1.50000000E+00  1.50000000E+00
  8.00000000E-01  8.00000000E-01  1.50000000E+00  1.50000000E+00  8.00000000E-01
  8.00000000E-01  1.50000000E+00  1.50000000E+00  8.00000000E-01  8.00000000E-01
  1.50000000E+00  1.50000000E+00  8.00000000E-01  8.00000000E-01  1.50000000E+00
  1.50000000E+00  8.00000000E-01  8.00000000E-01  1.50000000E+00  1.50000000E+00
  8.00000000E-01  8.00000000E-01  1.50000000E+00  1.50000000E+00  8.00000000E-01
  8.00000000E-01  1.50000000E+00  1.50000000E+00  8.00000000E-01  8.00000000E-01
  1.50000000E+00  1.50000000E+00  8.00000000E-01  8.00000000E-01  1.50000000E+00
  1.50000000E+00  8.00000000E-01  8.00000000E-01  1.50000000E+00  1.50000000E+00
  8.00000000E-01  8.00000000E-01  1.50000000E+00  1.50000000E+00  8.00000000E-01
  8.00000000E-01  1.50000000E+00  1.50000000E+00  8.00000000E-01  8.00000000E-01
  1.50000000E+00  1.50000000E+00  8.00000000E-01  8.00000000E-01  1.50000000E+00
  1.50000000E+00  8.00000000E-01  8.00000000E-01  1.50000000E+00  1.50000000E+00
  8.00000000E-01  8.00000000E-01  1.50000000E+00  1.50000000E+00  8.00000000E-01
  8.00000000E-01  1.50000000E+00  1.50000000E+00  8.00000000E-01  8.00000000E-01
  1.50000000E+00  1.50000000E+00  8.00000000E-01  8.00000000E-01  1.50000000E+00
  1.50000000E+00  8.00000000E-01  8.00000000E-01  1.50000000E+00  1.50000000E+00
  8.00000000E-01  8.00000000E-01  1.50000000E+00  1.50000000E+00  8.00000000E-01
  8.00000000E-01  1.50000000E+00  1.50000000E+00  8.00000000E-01  8.00000000E-01
  1.50000000E+00  1.50000000E+00  8.00000000E-01  8.00000000E-01  1.50000000E+00
  1.50000000E+00  8.00000000E-01  8.00000000E-01  1.50000000E+00  1.50000000E+00
  8.00000000E-01  8.00000000E-01  1.50000000E+00  1.50000000E+00  8.00000000E-01
  8.00000000E-01  1.50000000E+00  1.50000000E+00  8.00000000E-01  8.00000000E-01
  1.50000000E+00  1.50000000E+00  8.00000000E-01  8.00000000E-01  1.50000000E+00
  1.50000000E+00  8.00000000E-01  8.00000000E-01  1.50000000E+00  1.50000000E+00
  8.00000000E-01  8.00000000E-01  1.50000000E+00  1.50000000E+00  8.00000000E-01
  8.00000000E-01  1.50000000E+00  1.50000000E+00  8.00000000E-01  8.00000000E-01
  1.50000000E+00  1.50000000E+00  8.00000000E-01  8.00000000E-01  1.50000000E+00
  1.50000000E+00  8.00000000E-01  8.00000000E-01  1.50000000E+00  1.50000000E+00
  8.00000000E-01  8.00000000E-01  1.50000000E+00  1.50000000E+00  8.00000000E-01
  8.00000000E-01  1.50000000E+00  1.50000000E+00  8.00000000E-01  8.00000000E-01
  1.50000000E+00  1.50000000E+00  8.00000000E-01  8.00000000E-01  1.50000000E+00
  1.50000000E+00  8.00000000E-01  8.00000000E-01  1.50000000E+00  1.50000000E+00
  8.00000000E-01  8.00000000E-01  1.50000000E+00  1.50000000E+00  8.00000000E-01
  8.00000000E-01  1.50000000E+00  1.50000000E+00  8.00000000E-01  8.00000000E-01
  1.50000000E+00  1.50000000E+00  8.00000000E-01  8.00000000E-01  1.50000000E+00
  1.50000000E+00  8.00000000E-01  8.00000000E-01  1.50000000E+00  1.50000000E+00
  8.00000000E-01  8.00000000E-01  1.50000000E+00  1.50000000E+00  8.00000000E-01
  8.00000000E-01  1.50000000E+00  1.50000000E+00  8.00000000E-01  8.00000000E-01
  1.50000000E+00  1.50000000E+00  8.00000000E-01  8.00000000E-01  1.50000000E+00
  1.50000000E+00  8.00000000E-01  8.00000000E-01  1.50000000E+00  1.50000000E+00
  8.00000000E-01  8.00000000E-01  1.50000000E+00  1.50000000E+00  8.00000000E-01
  8.00000000E-01  1.50000000E+00  1.50000000E+00  8.00000000E-01  8.00000000E-01
  1.50000000E+00  1.50000000E+00  8.00000000E-01  8.00000000E-01  1.50000000E+00
  1.50000000E+00  8.00000000E-01  8.00000000E-01  1.50000000E+00  1.50000000E+00
  8.00000000E-01  8.00000000E-01  1.50000000E+00  1.50000000E+00  8.00000000E-01
  8.00000000E-01  1.50000000E+00  1.50000000E+00  8.00000000E-01  8.00000000E-01
  1.50000000E+00  1.50000000E+00  8.00000000E-01  8.00000000E-01  1.50000000E+00
  1.50000000E+00  8.00000000E-01  8.00000000E-01  1.50000000E+00  1.50000000E+00
  8.00000000E-01  8.00000000E-01  1.50000000E+00  1.50000000E+00  8.00000000E-01
  8.00000000E-01  1.50000000E+00  1.50000000E+00  8.00000000E-01  8.00000000E-01
  1.50000000E+00  1.50000000E+00  8.00000000E-01  8.00000000E-01  1.50000000E+00
  1.50000000E+00  8.00000000E-01  8.00000000E-01  1.50000000E+00  1.50000000E+00
  8.00000000E-01  8.00000000E-01  1.50000000E+00  1.50000000E+00  8.00000000E-01
  8.00000000E-01  1.50000000E+00  1.50000000E+00  8.00000000E-01  8.00000000E-01
  1.50000000E+00  1.50000000E+00  8.00000000E-01  8.00000000E-01  1.50000000E+00
  1.50000000E+00  8.00000000E-01  8.00000000E-01  1.50000000E+00  1.50000000E+00
  8.00000000E-01  8.00000000E-01  1.50000000E+00  1.50000000E+00  8.00000000E-01
  8.00000000E-01  1.50000000E+00  1.50000000E+00  8.00000000E-01  8.00000000E-01
  1.50000000E+00  1.50000000E+00  8.00000000E-01  8.00000000E-01  1.50000000E+00
  1.50000000E+00  8.00000000E-01  8.00000000E-01  1.50000000E+00  1.50000000E+00
  8.00000000E-01  8.00000000E-01  1.50000000E+00  1.50000000E+00  8.00000000E-01
  8.00000000E-01  1.50000000E+00  1.50000000E+00  8.00000000E-01  8.00000000E-01
  1.50000000E+00  1.50000000E+00  8.00000000E-01  8.00000000E-01  1.50000000E+00
  1.50000000E+00  8.00000000E-01  8.00000000E-01  1.50000000E+00  1.50000000E+00
  8.00000000E-01  8.00000000E-01  1.50000000E+00  1.50000000E+00  8.00000000E-01
  8.00000000E-01  1.50000000E+00  1.50000000E+00  8.00000000E-01  8.00000000E-01
  1.50000000E+00  1.50000000E+00  8.00000000E-01  8.00000000E-01  1.50000000E+00
  1.50000000E+00  8.00000000E-01  8.00000000E-01  1.50000000E+00  1.50000000E+00
  8.00000000E-01  8.00000000E-01  1.50000000E+00  1.50000000E+00  8.00000000E-01
  8.00000000E-01  1.50000000E+00  1.50000000E+00  8.00000000E-01  8.00000000E-01
  1.50000000E+00  1.50000000E+00  8.00000000E-01  8.00000000E-01  1.50000000E+00
  1.50000000E+00  8.00000000E-01  8.00000000E-01  1.50000000E+00  1.50000000E+00
  8.00000000E-01  8.00000000E-01  1.50000000E+00  1.50000000E+00  8.00000000E-01
  8.00000000E-01  1.50000000E+00  1.50000000E+00  8.00000000E-01  8.00000000E-01
  1.50000000E+00  1.50000000E+00  8.00000000E-01  8.00000000E-01  1.50000000E+00
  1.50000000E+00  8.00000000E-01  8.00000000E-01  1.50000000E+00  1.50000000E+00
  8.00000000E-01  8.00000000E-01  1.50000000E+00  1.50000000E+00  8.00000000E-01
  8.00000000E-01  1.50000000E+00  1.50000000E+00  8.00000000E-01  8.00000000E-01
  1.50000000E+00  1.50000000E+00  8.00000000E-01  8.00000000E-01  1.50000000E+00
  1.50000000E+00  8.00000000E-01  8.00000000E-01  1.50000000E+00  1.50000000E+00
  8.00000000E-01  8.00000000E-01  1.50000000E+00  1.50000000E+00  8.00000000E-01
  8.00000000E-01  1.50000000E+00  1.50000000E+00  8.00000000E-01  8.00000000E-01
  1.50000000E+00  1.50000000E+00  8.00000000E-01  8.00000000E-01  1.50000000E+00
  1.50000000E+00  8.00000000E-01  8.00000000E-01  1.50000000E+00  1.50000000E+00
  8.00000000E-01  8.00000000E-01  1.50000000E+00  1.50000000E+00  8.00000000E-01
  8.00000000E-01  1.50000000E+00  1.50000000E+00  8.00000000E-01  8.00000000E-01
  1.50000000E+00  1.50000000E+00  8.00000000E-01  8.00000000E-01  1.50000000E+00
  1.50000000E+00  8.00000000E-01  8.00000000E-01  1.50000000E+00  1.50000000E+00
  8.00000000E-01  8.00000000E-01  1.50000000E+00  1.50000000E+00  8.00000000E-01
  8.00000000E-01  1.50000000E+00  1.50000000E+00  8.00000000E-01  8.00000000E-01
  1.50000000E+00  1.50000000E+00  8.00000000E-01  8.00000000E-01  1.50000000E+00
  1.50000000E+00  8.00000000E-01  8.00000000E-01  1.50000000E+00  1.50000000E+00
  8.00000000E-01  8.00000000E-01  1.50000000E+00  1.50000000E+00  8.00000000E-01
  8.00000000E-01  1.50000000E+00  1.50000000E+00  8.00000000E-01  8.00000000E-01
  1.50000000E+00  1.50000000E+00  8.00000000E-01  8.00000000E-01  1.50000000E+00
  1.50000000E+00  8.00000000E-01  8.00000000E-01  1.50000000E+00  1.50000000E+00
  8.00000000E-01  8.00000000E-01  1.50000000E+00  1.50000000E+00  8.00000000E-01
  8.00000000E-01  1.50000000E+00  1.50000000E+00  8.00000000E-01  8.00000000E-01
  1.50000000E+00  1.50000000E+00  8.00000000E-01  8.00000000E-01  1.50000000E+00
  1.50000000E+00  8.00000000E-01  8.00000000E-01  1.50000000E+00  1.50000000E+00
  8.00000000E-01  8.00000000E-01  1.50000000E+00  1.50000000E+00  8.00000000E-01
  8.00000000E-01  1.50000000E+00  1.50000000E+00  8.00000000E-01  8.00000000E-01
  1.50000000E+00  1.50000000E+00  8.00000000E-01  8.00000000E-01  1.50000000E+00
  1.50000000E+00  8.00000000E-01  8.00000000E-01  1.50000000E+00  1.50000000E+00
  8.00000000E-01  8.00000000E-01  1.50000000E+00  1.50000000E+00  8.00000000E-01
  8.00000000E-01  1.50000000E+00  1.50000000E+00  8.00000000E-01  8.00000000E-01
  1.50000000E+00  1.50000000E+00  8.00000000E-01  8.00000000E-01  1.50000000E+00
  1.50000000E+00  8.00000000E-01  8.00000000E-01  1.50000000E+00  1.50000000E+00
  8.00000000E-01  8.00000000E-01  1.50000000E+00  1.50000000E+00  8.00000000E-01
  8.00000000E-01  1.50000000E+00  1.50000000E+00  8.00000000E-01  8.00000000E-01
  1.50000000E+00  1.50000000E+00  8.00000000E-01  8.00000000E-01  1.50000000E+00
  1.50000000E+00  8.00000000E-01  8.00000000E-01  1.50000000E+00  1.50000000E+00
  8.00000000E-01  8.00000000E-01  1.50000000E+00  1.50000000E+00  8.00000000E-01
  8.00000000E-01  1.50000000E+00  1.50000000E+00  8.00000000E-01  8.00000000E-01
  1.50000000E+00  1.50000000E+00  8.00000000E-01  8.00000000E-01  1.50000000E+00
  1.50000000E+00  8.00000000E-01  8.00000000E-01  1.50000000E+00  1.50000000E+00
  8.00000000E-01  8.00000000E-01  1.50000000E+00  1.50000000E+00  8.00000000E-01
  8.00000000E-01  1.50000000E+00  1.50000000E+00  8.00000000E-01  8.00000000E-01
  1.50000000E+00  1.50000000E+00  8.00000000E-01  8.00000000E-01  1.50000000E+00
  1.50000000E+00  8.00000000E-01  8.00000000E-01  1.50000000E+00  1.50000000E+00
  8.00000000E-01  8.00000000E-01  1.50000000E+00  1.50000000E+00  8.00000000E-01
  8.00000000E-01  1.50000000E+00  1.50000000E+00  8.00000000E-01  8.00000000E-01
  1.50000000E+00  1.50000000E+00  8.00000000E-01  8.00000000E-01  1.50000000E+00
  1.50000000E+00  8.00000000E-01  8.00000000E-01  1.50000000E+00  1.50000000E+00
  8.00000000E-01  8.00000000E-01  1.50000000E+00  1.50000000E+00  8.00000000E-01
  8.00000000E-01  1.50000000E+00  1.50000000E+00  8.00000000E-01  8.00000000E-01
  1.50000000E+00  1.50000000E+00  8.00000000E-01  8.00000000E-01  1.50000000E+00
  1.50000000E+00  8.00000000E-01  8.00000000E-01  1.50000000E+00  1.50000000E+00
  8.00000000E-01  8.00000000E-01  1.50000000E+00  1.50000000E+00  8.00000000E-01
  8.00000000E-01  1.50000000E+00  1.50000000E+00  8.00000000E-01  8.00000000E-01
  1.50000000E+00  1.50000000E+00  8.00000000E-01  8.00000000E-01  1.50000000E+00
  1.50000000E+00  8.00000000E-01  8.00000000E-01  1.50000000E+00  1.50000000E+00
  8.00000000E-01  8.00000000E-01  1.50000000E+00  1.50000000E+00  8.00000000E-01
  8.00000000E-01  1.50000000E+00  1.50000000E+00  8.00000000E-01  8.00000000E-01
  1.50000000E+00  1.50000000E+00  8.00000000E-01  8.00000000E-01  1.50000000E+00
  1.50000000E+00  8.00000000E-01  8.00000000E-01  1.50000000E+00  1.50000000E+00
  8.00000000E-01  8.00000000E-01  1.50000000E+00  1.50000000E+00  8.00000000E-01
  8.00000000E-01  1.50000000E+00  1.50000000E+00  8.00000000E-01  8.00000000E-01
  1.50000000E+00  1.50000000E+00  8.00000000E-01  8.00000000E-01  1.50000000E+00
  1.50000000E+00  8.00000000E-01  8.00000000E-01  1.50000000E+00  1.50000000E+00
  8.00000000E-01  8.00000000E-01  1.50000000E+00  1.50000000E+00  8.00000000E-01
  8.00000000E-01  1.50000000E+00  1.50000000E+00  8.00000000E-01  8.00000000E-01
  1.50000000E+00  1.50000000E+00  8.00000000E-01  8.00000000E-01  1.50000000E+00
  1.50000000E+00  8.00000000E-01  8.00000000E-01  1.50000000E+00  1.50000000E+00
  8.00000000E-01  8.00000000E-01  1.50000000E+00  1.50000000E+00  8.00000000E-01
  8.00000000E-01  1.50000000E+00  1.50000000E+00  8.00000000E-01  8.00000000E-01
  1.50000000E+00  1.50000000E+00  8.00000000E-01  8.00000000E-01  1.50000000E+00
  1.50000000E+00  8.00000000E-01  8.00000000E-01  1.50000000E+00  1.50000000E+00
  8.00000000E-01  8.00000000E-01  1.50000000E+00  1.50000000E+00  8.00000000E-01
  8.00000000E-01  1.50000000E+00  1.50000000E+00  8.00000000E-01  8.00000000E-01
  1.50000000E+00  1.50000000E+00  8.00000000E-01  8.00000000E-01  1.50000000E+00
  1.50000000E+00  8.00000000E-01  8.00000000E-01  1.50000000E+00  1.50000000E+00
  8.00000000E-01  8.00000000E-01  1.50000000E+00  1.50000000E+00  8.00000000E-01
  8.00000000E-01  1.50000000E+00  1.50000000E+00  8.00000000E-01  8.00000000E-01
  1.50000000E+00  1.50000000E+00  8.00000000E-01  8.00000000E-01  1.50000000E+00
  1.50000000E+00  8.00000000E-01  8.00000000E-01  1.50000000E+00  1.50000000E+00
  8.00000000E-01  8.00000000E-01  1.50000000E+00  1.50000000E+00  8.00000000E-01
  8.00000000E-01  1.50000000E+00  1.50000000E+00  8.00000000E-01  8.00000000E-01
  1.50000000E+00  1.50000000E+00  8.00000000E-01  8.00000000E-01  1.50000000E+00
  1.50000000E+00  8.00000000E-01  8.00000000E-01  1.50000000E+00  1.50000000E+00
  8.00000000E-01  8.00000000E-01  1.50000000E+00  1.50000000E+00  8.00000000E-01
  8.00000000E-01  1.50000000E+00  1.50000000E+00  8.00000000E-01  8.00000000E-01
  1.50000000E+00  1.50000000E+00  8.00000000E-01  8.00000000E-01  1.50000000E+00
  1.50000000E+00  8.00000000E-01  8.00000000E-01  1.50000000E+00  1.50000000E+00
  8.00000000E-01  8.00000000E-01  1.50000000E+00  1.50000000E+00  8.00000000E-01
  8.00000000E-01  1.50000000E+00  1.50000000E+00  8.00000000E-01  8.00000000E-01
  1.50000000E+00  1.50000000E+00  8.00000000E-01  8.00000000E-01  1.50000000E+00
  1.50000000E+00  8.00000000E-01  8.00000000E-01  1.50000000E+00  1.50000000E+00
  8.00000000E-01  8.00000000E-01  1.50000000E+00  1.50000000E+00  8.00000000E-01
  8.00000000E-01  1.50000000E+00  1.50000000E+00  8.00000000E-01  8.00000000E-01
  1.50000000E+00  1.50000000E+00  8.00000000E-01  8.00000000E-01  1.50000000E+00
  1.50000000E+00  8.00000000E-01  8.00000000E-01  1.50000000E+00  1.50000000E+00
  8.00000000E-01  8.00000000E-01  1.50000000E+00  1.50000000E+00  8.00000000E-01
  8.00000000E-01  1.50000000E+00  1.50000000E+00  8.00000000E-01  8.00000000E-01
  1.50000000E+00  1.50000000E+00  8.00000000E-01  8.00000000E-01  1.50000000E+00
  1.50000000E+00  8.00000000E-01  8.00000000E-01  1.50000000E+00  1.50000000E+00
  8.00000000E-01  8.00000000E-01  1.50000000E+00  1.50000000E+00  8.00000000E-01
  8.00000000E-01  1.50000000E+00  1.50000000E+00  8.00000000E-01  8.00000000E-01
  1.50000000E+00  1.50000000E+00  8.00000000E-01  8.00000000E-01  1.50000000E+00
  1.50000000E+00  8.00000000E-01  8.00000000E-01  1.50000000E+00  1.50000000E+00
  8.00000000E-01  8.00000000E-01  1.50000000E+00  1.50000000E+00  8.00000000E-01
  8.00000000E-01  1.50000000E+00  1.50000000E+00  8.00000000E-01  8.00000000E-01
  1.50000000E+00  1.50000000E+00  8.00000000E-01  8.00000000E-01  1.50000000E+00
  1.50000000E+00  8.00000000E-01  8.00000000E-01  1.50000000E+00  1.50000000E+00
  8.00000000E-01  8.00000000E-01  1.50000000E+00  1.50000000E+00  8.00000000E-01
  8.00000000E-01  1.50000000E+00  1.50000000E+00  8.00000000E-01  8.00000000E-01
  1.50000000E+00  1.50000000E+00  8.00000000E-01  8.00000000E-01  1.50000000E+00
  1.50000000E+00  8.00000000E-01  8.00000000E-01  1.50000000E+00  1.50000000E+00
  8.00000000E-01  8.00000000E-01  1.50000000E+00  1.50000000E+00  8.00000000E-01
  8.00000000E-01  1.50000000E+00  1.50000000E+00  8.00000000E-01  8.00000000E-01
  1.50000000E+00  1.50000000E+00  8.00000000E-01  8.00000000E-01  1.50000000E+00
  1.50000000E+00  8.00000000E-01  8.00000000E-01  1.50000000E+00  1.50000000E+00
  8.00000000E-01  8.00000000E-01  1.50000000E+00  1.50000000E+00  8.00000000E-01
  8.00000000E-01  1.50000000E+00  1.50000000E+00  8.00000000E-01  8.00000000E-01
  1.50000000E+00  1.50000000E+00  8.00000000E-01  8.00000000E-01  1.50000000E+00
  1.50000000E+00  8.00000000E-01  8.00000000E-01  1.50000000E+00  1.50000000E+00
  8.00000000E-01  8.00000000E-01  1.50000000E+00  1.50000000E+00  8.00000000E-01
  8.00000000E-01  1.50000000E+00  1.50000000E+00  8.00000000E-01  8.00000000E-01
  1.50000000E+00  1.50000000E+00  8.00000000E-01  8.00000000E-01  1.50000000E+00
  1.50000000E+00  8.00000000E-01  8.00000000E-01  1.50000000E+00  1.50000000E+00
  8.00000000E-01  8.00000000E-01  1.50000000E+00  1.50000000E+00  8.00000000E-01
  8.00000000E-01  1.50000000E+00  1.50000000E+00  8.00000000E-01  8.00000000E-01
  1.50000000E+00  1.50000000E+00  8.00000000E-01  8.00000000E-01  1.50000000E+00
  1.50000000E+00  8.00000000E-01  8.00000000E-01  1.50000000E+00  1.50000000E+00
  8.00000000E-01  8.00000000E-01  1.50000000E+00  1.50000000E+00  8.00000000E-01
  8.00000000E-01  1.50000000E+00  1.50000000E+00  8.00000000E-01  8.00000000E-01
  1.50000000E+00  1.50000000E+00  8.00000000E-01  8.00000000E-01  1.50000000E+00
  1.50000000E+00  8.00000000E-01  8.00000000E-01  1.50000000E+00  1.50000000E+00
  8.00000000E-01  8.00000000E-01  1.50000000E+00  1.50000000E+00  8.00000000E-01
  8.00000000E-01  1.50000000E+00  1.50000000E+00  8.00000000E-01  8.00000000E-01
  1.50000000E+00  1.50000000E+00  8.00000000E-01  8.00000000E-01  1.50000000E+00
  1.50000000E+00  8.00000000E-01  8.00000000E-01  1.50000000E+00  1.50000000E+00
  8.00000000E-01  8.00000000E-01  1.50000000E+00  1.50000000E+00  8.00000000E-01
  8.00000000E-01  1.50000000E+00  1.50000000E+00  8.00000000E-01  8.00000000E-01
  1.50000000E+00  1.50000000E+00  8.00000000E-01  8.00000000E-01  1.50000000E+00
  1.50000000E+00  8.00000000E-01  8.00000000E-01  1.50000000E+00  1.50000000E+00
  8.00000000E-01  8.00000000E-01  1.50000000E+00  1.50000000E+00  8.00000000E-01
  8.00000000E-01  1.50000000E+00  1.50000000E+00  8.00000000E-01  8.00000000E-01
  1.50000000E+00  1.50000000E+00  8.00000000E-01  8.00000000E-01  1.50000000E+00
  1.50000000E+00  8.00000000E-01  8.00000000E-01  1.50000000E+00  1.50000000E+00
  8.00000000E-01  8.00000000E-01  1.50000000E+00  1.50000000E+00  8.00000000E-01
  8.00000000E-01  1.50000000E+00  1.50000000E+00  8.00000000E-01  8.00000000E-01
  1.50000000E+00  1.50000000E+00  8.00000000E-01  8.00000000E-01  1.50000000E+00
  1.50000000E+00  8.00000000E-01  8.00000000E-01  1.50000000E+00  1.50000000E+00
  8.00000000E-01  8.00000000E-01  1.50000000E+00  1.50000000E+00  8.00000000E-01
  8.00000000E-01  1.50000000E+00  1.50000000E+00  8.00000000E-01  8.00000000E-01
  1.50000000E+00  1.50000000E+00  8.00000000E-01  8.00000000E-01  1.50000000E+00
  1.50000000E+00  8.00000000E-01  8.00000000E-01  1.50000000E+00  1.50000000E+00
  8.00000000E-01  8.00000000E-01  1.50000000E+00  1.50000000E+00  8.00000000E-01
  8.00000000E-01  1.50000000E+00  1.50000000E+00  8.00000000E-01  8.00000000E-01
  1.50000000E+00  1.50000000E+00  8.00000000E-01  8.00000000E-01  1.50000000E+00
  1.50000000E+00  8.00000000E-01  8.00000000E-01  1.50000000E+00  1.50000000E+00
  8.00000000E-01  8.00000000E-01  1.50000000E+00  1.50000000E+00  8.00000000E-01
  8.00000000E-01  1.50000000E+00  1.50000000E+00  8.00000000E-01  8.00000000E-01
  1.50000000E+00  1.50000000E+00  8.00000000E-01  8.00000000E-01  1.50000000E+00
  1.50000000E+00  8.00000000E-01  8.00000000E-01  1.50000000E+00  1.50000000E+00
  8.00000000E-01  8.00000000E-01  1.50000000E+00  1.50000000E+00  8.00000000E-01
  8.00000000E-01  1.50000000E+00  1.50000000E+00  8.00000000E-01  8.00000000E-01
  1.50000000E+00  1.50000000E+00  8.00000000E-01  8.00000000E-01  1.50000000E+00
  1.50000000E+00  8.00000000E-01  8.00000000E-01  1.50000000E+00  1.50000000E+00
  8.00000000E-01  8.00000000E-01  1.50000000E+00  1.50000000E+00  8.00000000E-01
  8.00000000E-01  1.50000000E+00  1.50000000E+00  8.00000000E-01  8.00000000E-01
  1.50000000E+00  1.50000000E+00  8.00000000E-01  8.00000000E-01  1.50000000E+00
  1.50000000E+00  8.00000000E-01  8.00000000E-01  1.50000000E+00  1.50000000E+00
  8.00000000E-01  8.00000000E-01  1.50000000E+00  1.50000000E+00  8.00000000E-01
  8.00000000E-01  1.50000000E+00  1.50000000E+00  8.00000000E-01  8.00000000E-01
  1.50000000E+00  1.50000000E+00  8.00000000E-01  8.00000000E-01  1.50000000E+00
  1.50000000E+00  8.00000000E-01  8.00000000E-01  1.50000000E+00  1.50000000E+00
  8.00000000E-01  8.00000000E-01  1.50000000E+00  1.50000000E+00  8.00000000E-01
  8.00000000E-01  1.50000000E+00  1.50000000E+00  8.00000000E-01  8.00000000E-01
  1.50000000E+00  1.50000000E+00  8.00000000E-01  8.00000000E-01  1.50000000E+00
  1.50000000E+00  8.00000000E-01  8.00000000E-01  1.50000000E+00  1.50000000E+00
  8.00000000E-01  8.00000000E-01  1.50000000E+00  1.50000000E+00  8.00000000E-01
  8.00000000E-01  1.50000000E+00  1.50000000E+00  8.00000000E-01  8.00000000E-01
  1.50000000E+00  1.50000000E+00  8.00000000E-01  8.00000000E-01  1.50000000E+00
  1.50000000E+00  8.00000000E-01  8.00000000E-01  1.50000000E+00  1.50000000E+00
  8.00000000E-01  8.00000000E-01  1.50000000E+00  1.50000000E+00  8.00000000E-01
  8.00000000E-01  1.50000000E+00  1.50000000E+00  8.00000000E-01  8.00000000E-01
  1.50000000E+00  1.50000000E+00  8.00000000E-01  8.00000000E-01  1.50000000E+00
  1.50000000E+00  8.00000000E-01  8.00000000E-01  1.50000000E+00  1.50000000E+00
  8.00000000E-01  8.00000000E-01  1.50000000E+00  1.50000000E+00  8.00000000E-01
  8.00000000E-01  1.50000000E+00  1.50000000E+00  8.00000000E-01  8.00000000E-01
  1.50000000E+00  1.50000000E+00  8.00000000E-01  8.00000000E-01  1.50000000E+00
  1.50000000E+00  8.00000000E-01  8.00000000E-01  1.50000000E+00  1.50000000E+00
  8.00000000E-01  8.00000000E-01  1.50000000E+00  1.50000000E+00  8.00000000E-01
  8.00000000E-01  1.50000000E+00  1.50000000E+00  8.00000000E-01  8.00000000E-01
  1.50000000E+00  1.50000000E+00  8.00000000E-01  8.00000000E-01  1.50000000E+00
  1.50000000E+00  8.00000000E-01  8.00000000E-01  1.50000000E+00  1.50000000E+00
  8.00000000E-01  8.00000000E-01  1.50000000E+00  1.50000000E+00  8.00000000E-01
  8.00000000E-01  1.50000000E+00  1.50000000E+00  8.00000000E-01  8.00000000E-01
  1.50000000E+00  1.50000000E+00  8.00000000E-01  8.00000000E-01  1.50000000E+00
  1.50000000E+00  8.00000000E-01  8.00000000E-01  1.50000000E+00  1.50000000E+00
  8.00000000E-01  8.00000000E-01  1.50000000E+00  1.50000000E+00  8.00000000E-01
  8.00000000E-01  1.50000000E+00  1.50000000E+00  8.00000000E-01  8.00000000E-01
  1.50000000E+00  1.50000000E+00  8.00000000E-01  8.00000000E-01  1.50000000E+00
  1.50000000E+00  8.00000000E-01  8.00000000E-01  1.50000000E+00  1.50000000E+00
  8.00000000E-01  8.00000000E-01  1.50000000E+00  1.50000000E+00  8.00000000E-01
  8.00000000E-01  1.50000000E+00  1.50000000E+00  8.00000000E-01  8.00000000E-01
  1.50000000E+00  1.50000000E+00  8.00000000E-01  8.00000000E-01  1.50000000E+00
  1.50000000E+00  8.00000000E-01  8.00000000E-01  1.50000000E+00  1.50000000E+00
  8.00000000E-01  8.00000000E-01  1.50000000E+00  1.50000000E+00  8.00000000E-01
  8.00000000E-01  1.50000000E+00  1.50000000E+00  8.00000000E-01  8.00000000E-01
  1.50000000E+00  1.50000000E+00  8.00000000E-01  8.00000000E-01  1.50000000E+00
  1.50000000E+00  8.00000000E-01  8.00000000E-01  1.50000000E+00  1.50000000E+00
  8.00000000E-01  8.00000000E-01  1.50000000E+00  1.50000000E+00  8.00000000E-01
  8.00000000E-01  1.50000000E+00  1.50000000E+00  8.00000000E-01  8.00000000E-01
  1.50000000E+00  1.50000000E+00  8.00000000E-01  8.00000000E-01  1.50000000E+00
  1.50000000E+00  8.00000000E-01  8.00000000E-01  1.50000000E+00  1.50000000E+00
  8.00000000E-01  8.00000000E-01  1.50000000E+00  1.50000000E+00  8.00000000E-01
  8.00000000E-01  1.50000000E+00  1.50000000E+00  8.00000000E-01  8.00000000E-01
  1.50000000E+00  1.50000000E+00  8.00000000E-01  8.00000000E-01  1.50000000E+00
  1.50000000E+00  8.00000000E-01  8.00000000E-01  1.50000000E+00  1.50000000E+00
  8.00000000E-01  8.00000000E-01  1.50000000E+00  1.50000000E+00  8.00000000E-01
  8.00000000E-01  1.50000000E+00  1.50000000E+00  8.00000000E-01  8.00000000E-01
  1.50000000E+00  1.50000000E+00  8.00000000E-01  8.00000000E-01  1.50000000E+00
  1.50000000E+00  8.00000000E-01  8.00000000E-01  1.50000000E+00  1.50000000E+00
  8.00000000E-01  8.00000000E-01  1.50000000E+00  1.50000000E+00  8.00000000E-01
  8.00000000E-01  1.50000000E+00  1.50000000E+00  8.00000000E-01  8.00000000E-01
  1.50000000E+00  1.50000000E+00  8.00000000E-01  8.00000000E-01  1.50000000E+00
  1.50000000E+00  8.00000000E-01  8.00000000E-01  1.50000000E+00  1.50000000E+00
  8.00000000E-01  8.00000000E-01  1.50000000E+00  1.50000000E+00  8.00000000E-01
  8.00000000E-01  1.50000000E+00  1.50000000E+00  8.00000000E-01  8.00000000E-01
  1.50000000E+00  1.50000000E+00  8.00000000E-01  8.00000000E-01  1.50000000E+00
  1.50000000E+00  8.00000000E-01  8.00000000E-01  1.50000000E+00  1.50000000E+00
  8.00000000E-01  8.00000000E-01  1.50000000E+00  1.50000000E+00  8.00000000E-01
  8.00000000E-01  1.50000000E+00  1.50000000E+00  8.00000000E-01  8.00000000E-01
  1.50000000E+00  1.50000000E+00  8.00000000E-01  8.00000000E-01  1.50000000E+00
  1.50000000E+00  8.00000000E-01  8.00000000E-01  1.50000000E+00  1.50000000E+00
  8.00000000E-01  8.00000000E-01  1.50000000E+00  1.50000000E+00  8.00000000E-01
  8.00000000E-01  1.50000000E+00  1.50000000E+00  8.00000000E-01  8.00000000E-01
  1.50000000E+00  1.50000000E+00  8.00000000E-01  8.00000000E-01  1.50000000E+00
  1.50000000E+00  8.00000000E-01  8.00000000E-01  1.50000000E+00  1.50000000E+00
  8.00000000E-01  8.00000000E-01  1.50000000E+00  1.50000000E+00  8.00000000E-01
  8.00000000E-01  1.50000000E+00  1.50000000E+00  8.00000000E-01  8.00000000E-01
  1.50000000E+00  1.50000000E+00  8.00000000E-01  8.00000000E-01  1.50000000E+00
  1.50000000E+00  8.00000000E-01  8.00000000E-01  1.50000000E+00  1.50000000E+00
  8.00000000E-01  8.00000000E-01  1.50000000E+00  1.50000000E+00  8.00000000E-01
  8.00000000E-01  1.50000000E+00  1.50000000E+00  8.00000000E-01  8.00000000E-01
  1.50000000E+00  1.50000000E+00  8.00000000E-01  8.00000000E-01  1.50000000E+00
  1.50000000E+00  8.00000000E-01  8.00000000E-01  1.50000000E+00  1.50000000E+00
  8.00000000E-01  8.00000000E-01  1.50000000E+00  1.50000000E+00  8.00000000E-01
  8.00000000E-01  1.50000000E+00  1.50000000E+00  8.00000000E-01  8.00000000E-01
  1.50000000E+00  1.50000000E+00  8.00000000E-01  8.00000000E-01  1.50000000E+00
  1.50000000E+00  8.00000000E-01  8.00000000E-01  1.50000000E+00  1.50000000E+00
  8.00000000E-01  8.00000000E-01  1.50000000E+00  1.50000000E+00  8.00000000E-01
  8.00000000E-01  1.50000000E+00  1.50000000E+00  8.00000000E-01  8.00000000E-01
  1.50000000E+00  1.50000000E+00  8.00000000E-01  8.00000000E-01  1.50000000E+00
  1.50000000E+00  8.00000000E-01  8.00000000E-01  1.50000000E+00  1.50000000E+00
  8.00000000E-01  8.00000000E-01  1.50000000E+00  1.50000000E+00  8.00000000E-01
  8.00000000E-01  1.50000000E+00  1.50000000E+00  8.00000000E-01  8.00000000E-01
  1.50000000E+00  1.50000000E+00  8.00000000E-01  8.00000000E-01  1.50000000E+00
  1.50000000E+00  8.00000000E-01  8.00000000E-01  1.50000000E+00  1.50000000E+00
  8.00000000E-01  8.00000000E-01  1.50000000E+00  1.50000000E+00  8.00000000E-01
  8.00000000E-01  1.50000000E+00  1.50000000E+00  8.00000000E-01  8.00000000E-01
  1.50000000E+00  1.50000000E+00  8.00000000E-01  8.00000000E-01  1.50000000E+00
  1.50000000E+00  8.00000000E-01  8.00000000E-01  1.50000000E+00  1.50000000E+00
  8.00000000E-01  8.00000000E-01  1.50000000E+00  1.50000000E+00  8.00000000E-01
  8.00000000E-01  1.50000000E+00  1.50000000E+00  8.00000000E-01  8.00000000E-01
  1.50000000E+00  1.50000000E+00  8.00000000E-01  8.00000000E-01  1.50000000E+00
  1.50000000E+00  8.00000000E-01  8.00000000E-01  1.50000000E+00  1.50000000E+00
  8.00000000E-01  8.00000000E-01  1.50000000E+00  1.50000000E+00  8.00000000E-01
  8.00000000E-01  1.50000000E+00  1.50000000E+00  8.00000000E-01  8.00000000E-01
  1.50000000E+00  1.50000000E+00  8.00000000E-01  8.00000000E-01  1.50000000E+00
  1.50000000E+00  8.00000000E-01  8.00000000E-01  1.50000000E+00  1.50000000E+00
  8.00000000E-01  8.00000000E-01  1.50000000E+00  1.50000000E+00  8.00000000E-01
  8.00000000E-01  1.50000000E+00  1.50000000E+00  8.00000000E-01  8.00000000E-01
  1.50000000E+00  1.50000000E+00  8.00000000E-01  8.00000000E-01  1.50000000E+00
  1.50000000E+00  8.00000000E-01  8.00000000E-01  1.50000000E+00  1.50000000E+00
  8.00000000E-01  8.00000000E-01  1.50000000E+00  1.50000000E+00  8.00000000E-01
  8.00000000E-01  1.50000000E+00  1.50000000E+00  8.00000000E-01  8.00000000E-01
  1.50000000E+00  1.50000000E+00  8.00000000E-01  8.00000000E-01  1.50000000E+00
  1.50000000E+00  8.00000000E-01  8.00000000E-01  1.50000000E+00  1.50000000E+00
  8.00000000E-01  8.00000000E-01  1.50000000E+00  1.50000000E+00  8.00000000E-01
  8.00000000E-01  1.50000000E+00  1.50000000E+00  8.00000000E-01  8.00000000E-01
  1.50000000E+00  1.50000000E+00  8.00000000E-01  8.00000000E-01  1.50000000E+00
  1.50000000E+00  8.00000000E-01  8.00000000E-01  1.50000000E+00  1.50000000E+00
  8.00000000E-01  8.00000000E-01  1.50000000E+00  1.50000000E+00  8.00000000E-01
  8.00000000E-01  1.50000000E+00  1.50000000E+00  8.00000000E-01  8.00000000E-01
  1.50000000E+00  1.50000000E+00  8.00000000E-01  8.00000000E-01  1.50000000E+00
  1.50000000E+00  8.00000000E-01  8.00000000E-01  1.50000000E+00  1.50000000E+00
  8.00000000E-01  8.00000000E-01  1.50000000E+00  1.50000000E+00  8.00000000E-01
  8.00000000E-01  1.50000000E+00  1.50000000E+00  8.00000000E-01  8.00000000E-01
  1.50000000E+00  1.50000000E+00  8.00000000E-01  8.00000000E-01  1.50000000E+00
  1.50000000E+00  8.00000000E-01  8.00000000E-01  1.50000000E+00  1.50000000E+00
  8.00000000E-01  8.00000000E-01  1.50000000E+00  1.50000000E+00  8.00000000E-01
  8.00000000E-01  1.50000000E+00  1.50000000E+00  8.00000000E-01  8.00000000E-01
  1.50000000E+00  1.50000000E+00  8.00000000E-01  8.00000000E-01  1.50000000E+00
  1.50000000E+00  8.00000000E-01  8.00000000E-01  1.50000000E+00  1.50000000E+00
  8.00000000E-01  8.00000000E-01  1.50000000E+00  1.50000000E+00  8.00000000E-01
  8.00000000E-01  1.50000000E+00  1.50000000E+00  8.00000000E-01  8.00000000E-01
  1.50000000E+00  1.50000000E+00  8.00000000E-01  8.00000000E-01  1.50000000E+00
  1.50000000E+00  8.00000000E-01  8.00000000E-01  1.50000000E+00  1.50000000E+00
  8.00000000E-01  8.00000000E-01  1.50000000E+00  1.50000000E+00  8.00000000E-01
  8.00000000E-01  1.50000000E+00  1.50000000E+00  8.00000000E-01  8.00000000E-01
  1.50000000E+00  1.50000000E+00  8.00000000E-01  8.00000000E-01  1.50000000E+00
  1.50000000E+00  8.00000000E-01  8.00000000E-01  1.50000000E+00  1.50000000E+00
  8.00000000E-01  8.00000000E-01  1.50000000E+00  1.50000000E+00  8.00000000E-01
  8.00000000E-01  1.50000000E+00  1.50000000E+00  8.00000000E-01  8.00000000E-01
  1.50000000E+00  1.50000000E+00  8.00000000E-01  8.00000000E-01  1.50000000E+00
  1.50000000E+00  8.00000000E-01  8.00000000E-01  1.50000000E+00  1.50000000E+00
  8.00000000E-01  8.00000000E-01  1.50000000E+00  1.50000000E+00  8.00000000E-01
  8.00000000E-01  1.50000000E+00  1.50000000E+00  8.00000000E-01  8.00000000E-01
  1.50000000E+00  1.50000000E+00  8.00000000E-01  8.00000000E-01  1.50000000E+00
  1.50000000E+00  8.00000000E-01  8.00000000E-01  1.50000000E+00  1.50000000E+00
  8.00000000E-01  8.00000000E-01  1.50000000E+00  1.50000000E+00  8.00000000E-01
  8.00000000E-01  1.50000000E+00  1.50000000E+00  8.00000000E-01  8.00000000E-01
  1.50000000E+00  1.50000000E+00  8.00000000E-01  8.00000000E-01  1.50000000E+00
  1.50000000E+00  8.00000000E-01  8.00000000E-01  1.50000000E+00  1.50000000E+00
  8.00000000E-01  8.00000000E-01  1.50000000E+00  1.50000000E+00  8.00000000E-01
  8.00000000E-01  1.50000000E+00  1.50000000E+00  8.00000000E-01  8.00000000E-01
  1.50000000E+00  1.50000000E+00  8.00000000E-01  8.00000000E-01  1.50000000E+00
  1.50000000E+00  8.00000000E-01  8.00000000E-01  1.50000000E+00  1.50000000E+00
  8.00000000E-01  8.00000000E-01  1.50000000E+00  1.50000000E+00  8.00000000E-01
  8.00000000E-01  1.50000000E+00  1.50000000E+00  8.00000000E-01  8.00000000E-01
  1.50000000E+00  1.50000000E+00  8.00000000E-01  8.00000000E-01  1.50000000E+00
  1.50000000E+00  8.00000000E-01  8.00000000E-01  1.50000000E+00  1.50000000E+00
  8.00000000E-01  8.00000000E-01  1.50000000E+00  1.50000000E+00  8.00000000E-01
  8.00000000E-01  1.50000000E+00  1.50000000E+00  8.00000000E-01  8.00000000E-01
  1.50000000E+00  1.50000000E+00  8.00000000E-01  8.00000000E-01  1.50000000E+00
  1.50000000E+00  8.00000000E-01  8.00000000E-01  1.50000000E+00  1.50000000E+00
  8.00000000E-01  8.00000000E-01  1.50000000E+00  1.50000000E+00  8.00000000E-01
  8.00000000E-01  1.50000000E+00  1.50000000E+00  8.00000000E-01  8.00000000E-01
  1.50000000E+00  1.50000000E+00  8.00000000E-01  8.00000000E-01  1.50000000E+00
  1.50000000E+00  8.00000000E-01  8.00000000E-01  1.50000000E+00  1.50000000E+00
  8.00000000E-01  8.00000000E-01  1.50000000E+00  1.50000000E+00  8.00000000E-01
  8.00000000E-01  1.50000000E+00  1.50000000E+00  8.00000000E-01  8.00000000E-01
  1.50000000E+00  1.50000000E+00  8.00000000E-01  8.00000000E-01  1.50000000E+00
  1.50000000E+00  8.00000000E-01  8.00000000E-01  1.50000000E+00  1.50000000E+00
  8.00000000E-01  8.00000000E-01  1.50000000E+00  1.50000000E+00  8.00000000E-01
  8.00000000E-01  1.50000000E+00  1.50000000E+00  8.00000000E-01  8.00000000E-01
  1.50000000E+00  1.50000000E+00  8.00000000E-01  8.00000000E-01  1.50000000E+00
  1.50000000E+00  8.00000000E-01  8.00000000E-01  1.50000000E+00  1.50000000E+00
  8.00000000E-01  8.00000000E-01  1.50000000E+00  1.50000000E+00  8.00000000E-01
  8.00000000E-01  1.50000000E+00  1.50000000E+00  8.00000000E-01  8.00000000E-01
  1.50000000E+00  1.50000000E+00  8.00000000E-01  8.00000000E-01  1.50000000E+00
  1.50000000E+00  8.00000000E-01  8.00000000E-01  1.50000000E+00  1.50000000E+00
  8.00000000E-01  8.00000000E-01  1.50000000E+00  1.50000000E+00  8.00000000E-01
  8.00000000E-01  1.50000000E+00  1.50000000E+00  8.00000000E-01  8.00000000E-01
  1.50000000E+00  1.50000000E+00  8.00000000E-01  8.00000000E-01  1.50000000E+00
  1.50000000E+00  8.00000000E-01  8.00000000E-01  1.50000000E+00  1.50000000E+00
  8.00000000E-01  8.00000000E-01  1.50000000E+00  1.50000000E+00  8.00000000E-01
  8.00000000E-01  1.50000000E+00  1.50000000E+00  8.00000000E-01  8.00000000E-01
  1.50000000E+00  1.50000000E+00  8.00000000E-01  8.00000000E-01  1.50000000E+00
  1.50000000E+00  8.00000000E-01  8.00000000E-01  1.50000000E+00  1.50000000E+00
  8.00000000E-01  8.00000000E-01  1.50000000E+00  1.50000000E+00  8.00000000E-01
  8.00000000E-01  1.50000000E+00  1.50000000E+00  8.00000000E-01  8.00000000E-01
  1.50000000E+00  1.50000000E+00  8.00000000E-01  8.00000000E-01  1.50000000E+00
  1.50000000E+00  8.00000000E-01  8.00000000E-01  1.50000000E+00  1.50000000E+00
  8.00000000E-01  8.00000000E-01  1.50000000E+00  1.50000000E+00  8.00000000E-01
  8.00000000E-01  1.50000000E+00  1.50000000E+00  8.00000000E-01  8.00000000E-01
  1.50000000E+00  1.50000000E+00  8.00000000E-01  8.00000000E-01  1.50000000E+00
  1.50000000E+00  8.00000000E-01  8.00000000E-01  1.50000000E+00  1.50000000E+00
  8.00000000E-01  8.00000000E-01  1.50000000E+00  1.50000000E+00  8.00000000E-01
  8.00000000E-01  1.50000000E+00  1.50000000E+00  8.00000000E-01  8.00000000E-01
  1.50000000E+00  1.50000000E+00  8.00000000E-01  8.00000000E-01  1.50000000E+00
  1.50000000E+00  8.00000000E-01  8.00000000E-01  1.50000000E+00  1.50000000E+00
  8.00000000E-01  8.00000000E-01  1.50000000E+00  1.50000000E+00  8.00000000E-01
  8.00000000E-01  1.50000000E+00  1.50000000E+00  8.00000000E-01  8.00000000E-01
  1.50000000E+00  1.50000000E+00  8.00000000E-01  8.00000000E-01  1.50000000E+00
  1.50000000E+00  8.00000000E-01  8.00000000E-01  1.50000000E+00  1.50000000E+00
  8.00000000E-01  8.00000000E-01  1.50000000E+00  1.50000000E+00  8.00000000E-01
  8.00000000E-01  1.50000000E+00  1.50000000E+00  8.00000000E-01  8.00000000E-01
  1.50000000E+00  1.50000000E+00  8.00000000E-01  8.00000000E-01  1.50000000E+00
  1.50000000E+00  8.00000000E-01  8.00000000E-01  1.50000000E+00  1.50000000E+00
  8.00000000E-01  8.00000000E-01  1.50000000E+00  1.50000000E+00  8.00000000E-01
  8.00000000E-01  1.50000000E+00  1.50000000E+00  8.00000000E-01  8.00000000E-01
  1.50000000E+00  1.50000000E+00  8.00000000E-01  8.00000000E-01  1.50000000E+00
  1.50000000E+00  8.00000000E-01  8.00000000E-01  1.50000000E+00  1.50000000E+00
  8.00000000E-01  8.00000000E-01  1.50000000E+00  1.50000000E+00  8.00000000E-01
  8.00000000E-01  1.50000000E+00  1.50000000E+00  8.00000000E-01  8.00000000E-01
  1.50000000E+00  1.50000000E+00  8.00000000E-01  8.00000000E-01  1.50000000E+00
  1.50000000E+00  8.00000000E-01  8.00000000E-01  1.50000000E+00  1.50000000E+00
  8.00000000E-01  8.00000000E-01  1.50000000E+00  1.50000000E+00  8.00000000E-01
  8.00000000E-01  1.50000000E+00  1.50000000E+00  8.00000000E-01  8.00000000E-01
  1.50000000E+00  1.50000000E+00  8.00000000E-01  8.00000000E-01  1.50000000E+00
  1.50000000E+00  8.00000000E-01  8.00000000E-01  1.50000000E+00  1.50000000E+00
  8.00000000E-01  8.00000000E-01  1.50000000E+00  1.50000000E+00  8.00000000E-01
  8.00000000E-01  1.50000000E+00  1.50000000E+00  8.00000000E-01  8.00000000E-01
  1.50000000E+00  1.50000000E+00  8.00000000E-01  8.00000000E-01  1.50000000E+00
  1.50000000E+00  8.00000000E-01  8.00000000E-01  1.50000000E+00  1.50000000E+00
  8.00000000E-01  8.00000000E-01  1.50000000E+00  1.50000000E+00  8.00000000E-01
  8.00000000E-01  1.50000000E+00  1.50000000E+00  8.00000000E-01  8.00000000E-01
  1.50000000E+00  1.50000000E+00  8.00000000E-01  8.00000000E-01  1.50000000E+00
  1.50000000E+00  8.00000000E-01  8.00000000E-01  1.50000000E+00  1.50000000E+00
  8.00000000E-01  8.00000000E-01  1.50000000E+00  1.50000000E+00  8.00000000E-01
  8.00000000E-01  1.50000000E+00  1.50000000E+00  8.00000000E-01  8.00000000E-01
  1.50000000E+00  1.50000000E+00  8.00000000E-01  8.00000000E-01  1.50000000E+00
  1.50000000E+00  8.00000000E-01  8.00000000E-01  1.50000000E+00  1.50000000E+00
  8.00000000E-01  8.00000000E-01  1.50000000E+00  1.50000000E+00  8.00000000E-01
  8.00000000E-01  1.50000000E+00  1.50000000E+00  8.00000000E-01  8.00000000E-01
  1.50000000E+00  1.50000000E+00  8.00000000E-01  8.00000000E-01  1.50000000E+00
  1.50000000E+00  8.00000000E-01  8.00000000E-01  1.50000000E+00  1.50000000E+00
  8.00000000E-01  8.00000000E-01  1.50000000E+00  1.50000000E+00  8.00000000E-01
  8.00000000E-01  1.50000000E+00  1.50000000E+00  8.00000000E-01  8.00000000E-01
  1.50000000E+00  1.50000000E+00  8.00000000E-01  8.00000000E-01  1.50000000E+00
  1.50000000E+00  8.00000000E-01  8.00000000E-01  1.50000000E+00  1.50000000E+00
  8.00000000E-01  8.00000000E-01  1.50000000E+00  1.50000000E+00  8.00000000E-01
  8.00000000E-01  1.50000000E+00  1.50000000E+00  8.00000000E-01  8.00000000E-01
  1.50000000E+00  1.50000000E+00  8.00000000E-01  8.00000000E-01  1.50000000E+00
  1.50000000E+00  8.00000000E-01  8.00000000E-01  1.50000000E+00  1.50000000E+00
  8.00000000E-01  8.00000000E-01  1.50000000E+00  1.50000000E+00  8.00000000E-01
  8.00000000E-01  1.50000000E+00  1.50000000E+00  8.00000000E-01  8.00000000E-01
  1.50000000E+00  1.50000000E+00  8.00000000E-01  8.00000000E-01  1.50000000E+00
  1.50000000E+00  8.00000000E-01  8.00000000E-01  1.50000000E+00  1.50000000E+00
  8.00000000E-01  8.00000000E-01  1.50000000E+00  1.50000000E+00  8.00000000E-01
  8.00000000E-01  1.50000000E+00  1.50000000E+00  8.00000000E-01  8.00000000E-01
  1.50000000E+00  1.50000000E+00  8.00000000E-01  8.00000000E-01  1.50000000E+00
  1.50000000E+00  8.00000000E-01  8.00000000E-01  1.50000000E+00  1.50000000E+00
  8.00000000E-01  8.00000000E-01  1.50000000E+00  1.50000000E+00  8.00000000E-01
  8.00000000E-01  1.50000000E+00  1.50000000E+00  8.00000000E-01  8.00000000E-01
  1.50000000E+00  1.50000000E+00  8.00000000E-01  8.00000000E-01  1.50000000E+00
  1.50000000E+00  8.00000000E-01  8.00000000E-01  1.50000000E+00  1.50000000E+00
  8.00000000E-01  8.00000000E-01  1.50000000E+00  1.50000000E+00  8.00000000E-01
  8.00000000E-01  1.50000000E+00  1.50000000E+00  8.00000000E-01  8.00000000E-01
  1.50000000E+00  1.50000000E+00  8.00000000E-01  8.00000000E-01  1.50000000E+00
  1.50000000E+00  8.00000000E-01  8.00000000E-01  1.50000000E+00  1.50000000E+00
  8.00000000E-01  8.00000000E-01  1.50000000E+00  1.50000000E+00  8.00000000E-01
  8.00000000E-01  1.50000000E+00  1.50000000E+00  8.00000000E-01  8.00000000E-01
  1.50000000E+00  1.50000000E+00  8.00000000E-01  8.00000000E-01  1.50000000E+00
  1.50000000E+00  8.00000000E-01  8.00000000E-01  1.50000000E+00  1.50000000E+00
  8.00000000E-01  8.00000000E-01  1.50000000E+00  1.50000000E+00  8.00000000E-01
  8.00000000E-01  1.50000000E+00  1.50000000E+00  8.00000000E-01  8.00000000E-01
  1.50000000E+00  1.50000000E+00  8.00000000E-01  8.00000000E-01  1.50000000E+00
  1.50000000E+00  8.00000000E-01  8.00000000E-01  1.50000000E+00  1.50000000E+00
  8.00000000E-01  8.00000000E-01  1.50000000E+00  1.50000000E+00  8.00000000E-01
  8.00000000E-01  1.50000000E+00  1.50000000E+00  8.00000000E-01  8.00000000E-01
  1.50000000E+00  1.50000000E+00  8.00000000E-01  8.00000000E-01  1.50000000E+00
  1.50000000E+00  8.00000000E-01  8.00000000E-01  1.50000000E+00  1.50000000E+00
  8.00000000E-01  8.00000000E-01  1.50000000E+00  1.50000000E+00  8.00000000E-01
  8.00000000E-01  1.50000000E+00  1.50000000E+00  8.00000000E-01  8.00000000E-01
  1.50000000E+00  1.50000000E+00  8.00000000E-01  8.00000000E-01  1.50000000E+00
  1.50000000E+00  8.00000000E-01  8.00000000E-01  1.50000000E+00  1.50000000E+00
  8.00000000E-01  8.00000000E-01  1.50000000E+00  1.50000000E+00  8.00000000E-01
  8.00000000E-01  1.50000000E+00  1.50000000E+00  8.00000000E-01  8.00000000E-01
  1.50000000E+00  1.50000000E+00  8.00000000E-01  8.00000000E-01  1.50000000E+00
  1.50000000E+00  8.00000000E-01  8.00000000E-01  1.50000000E+00  1.50000000E+00
  8.00000000E-01  8.00000000E-01  1.50000000E+00  1.50000000E+00  8.00000000E-01
  8.00000000E-01  1.50000000E+00  1.50000000E+00  8.00000000E-01  8.00000000E-01
  1.50000000E+00  1.50000000E+00  8.00000000E-01  8.00000000E-01  1.50000000E+00
  1.50000000E+00  8.00000000E-01  8.00000000E-01  1.50000000E+00  1.50000000E+00
  8.00000000E-01  8.00000000E-01  1.50000000E+00  1.50000000E+00  8.00000000E-01
  8.00000000E-01  1.50000000E+00  1.50000000E+00  8.00000000E-01  8.00000000E-01
  1.50000000E+00  1.50000000E+00  8.00000000E-01  8.00000000E-01  1.50000000E+00
  1.50000000E+00  8.00000000E-01  8.00000000E-01  1.50000000E+00  1.50000000E+00
  8.00000000E-01  8.00000000E-01  1.50000000E+00  1.50000000E+00  8.00000000E-01
  8.00000000E-01  1.50000000E+00  1.50000000E+00  8.00000000E-01  8.00000000E-01
  1.50000000E+00  1.50000000E+00  8.00000000E-01  8.00000000E-01  1.50000000E+00
  1.50000000E+00  8.00000000E-01  8.00000000E-01  1.50000000E+00  1.50000000E+00
  8.00000000E-01  8.00000000E-01  1.50000000E+00  1.50000000E+00  8.00000000E-01
  8.00000000E-01  1.50000000E+00  1.50000000E+00  8.00000000E-01  8.00000000E-01
  1.50000000E+00  1.50000000E+00  8.00000000E-01  8.00000000E-01  1.50000000E+00
  1.50000000E+00  8.00000000E-01  8.00000000E-01  1.50000000E+00  1.50000000E+00
  8.00000000E-01  8.00000000E-01  1.50000000E+00  1.50000000E+00  8.00000000E-01
  8.00000000E-01  1.50000000E+00  1.50000000E+00  8.00000000E-01  8.00000000E-01
  1.50000000E+00  1.50000000E+00  8.00000000E-01  8.00000000E-01  1.50000000E+00
  1.50000000E+00  8.00000000E-01  8.00000000E-01  1.50000000E+00  1.50000000E+00
  8.00000000E-01  8.00000000E-01  1.50000000E+00  1.50000000E+00  8.00000000E-01
  8.00000000E-01  1.50000000E+00  1.50000000E+00  8.00000000E-01  8.00000000E-01
  1.50000000E+00  1.50000000E+00  8.00000000E-01  8.00000000E-01  1.50000000E+00
  1.50000000E+00  8.00000000E-01  8.00000000E-01  1.50000000E+00  1.50000000E+00
  8.00000000E-01  8.00000000E-01  1.50000000E+00  1.50000000E+00  8.00000000E-01
  8.00000000E-01  1.50000000E+00  1.50000000E+00  8.00000000E-01  8.00000000E-01
  1.50000000E+00  1.50000000E+00  8.00000000E-01  8.00000000E-01  1.50000000E+00
  1.50000000E+00  8.00000000E-01  8.00000000E-01  1.50000000E+00  1.50000000E+00
  8.00000000E-01  8.00000000E-01  1.50000000E+00  1.50000000E+00  8.00000000E-01
  8.00000000E-01  1.50000000E+00  1.50000000E+00  8.00000000E-01  8.00000000E-01
  1.50000000E+00  1.50000000E+00  8.00000000E-01  8.00000000E-01  1.50000000E+00
  1.50000000E+00  8.00000000E-01  8.00000000E-01  1.50000000E+00  1.50000000E+00
  8.00000000E-01  8.00000000E-01  1.50000000E+00  1.50000000E+00  8.00000000E-01
  8.00000000E-01  1.50000000E+00  1.50000000E+00  8.00000000E-01  8.00000000E-01
  1.50000000E+00  1.50000000E+00  8.00000000E-01  8.00000000E-01  1.50000000E+00
  1.50000000E+00  8.00000000E-01  8.00000000E-01  1.50000000E+00  1.50000000E+00
  8.00000000E-01  8.00000000E-01  1.50000000E+00  1.50000000E+00  8.00000000E-01
  8.00000000E-01  1.50000000E+00  1.50000000E+00  8.00000000E-01  8.00000000E-01
  1.50000000E+00  1.50000000E+00  8.00000000E-01  8.00000000E-01  1.50000000E+00
  1.50000000E+00  8.00000000E-01  8.00000000E-01  1.50000000E+00  1.50000000E+00
  8.00000000E-01  8.00000000E-01  1.50000000E+00  1.50000000E+00  8.00000000E-01
  8.00000000E-01  1.50000000E+00  1.50000000E+00  8.00000000E-01  8.00000000E-01
  1.50000000E+00  1.50000000E+00  8.00000000E-01  8.00000000E-01  1.50000000E+00
  1.50000000E+00  8.00000000E-01  8.00000000E-01  1.50000000E+00  1.50000000E+00
  8.00000000E-01  8.00000000E-01  1.50000000E+00  1.50000000E+00  8.00000000E-01
  8.00000000E-01  1.50000000E+00  1.50000000E+00  8.00000000E-01  8.00000000E-01
  1.50000000E+00  1.50000000E+00  8.00000000E-01  8.00000000E-01  1.50000000E+00
  1.50000000E+00  8.00000000E-01  8.00000000E-01  1.50000000E+00  1.50000000E+00
  8.00000000E-01  8.00000000E-01  1.50000000E+00  1.50000000E+00  8.00000000E-01
  8.00000000E-01  1.50000000E+00  1.50000000E+00  8.00000000E-01  8.00000000E-01
  1.50000000E+00  1.50000000E+00  8.00000000E-01  8.00000000E-01  1.50000000E+00
  1.50000000E+00  8.00000000E-01  8.00000000E-01  1.50000000E+00  1.50000000E+00
  8.00000000E-01  8.00000000E-01  1.50000000E+00  1.50000000E+00  8.00000000E-01
  8.00000000E-01  1.50000000E+00  1.50000000E+00  8.00000000E-01  8.00000000E-01
  1.50000000E+00  1.50000000E+00  8.00000000E-01  8.00000000E-01  1.50000000E+00
  1.50000000E+00  8.00000000E-01  8.00000000E-01  1.50000000E+00  1.50000000E+00
  8.00000000E-01  8.00000000E-01  1.50000000E+00  1.50000000E+00  8.00000000E-01
  8.00000000E-01  1.50000000E+00  1.50000000E+00  8.00000000E-01  8.00000000E-01
  1.50000000E+00  1.50000000E+00  8.00000000E-01  8.00000000E-01  1.50000000E+00
  1.50000000E+00  8.00000000E-01  8.00000000E-01  1.50000000E+00  1.50000000E+00
  8.00000000E-01  8.00000000E-01  1.50000000E+00  1.50000000E+00  8.00000000E-01
  8.00000000E-01  1.50000000E+00  1.50000000E+00  8.00000000E-01  8.00000000E-01
  1.50000000E+00  1.50000000E+00  8.00000000E-01  8.00000000E-01  1.50000000E+00
  1.50000000E+00  8.00000000E-01  8.00000000E-01  1.50000000E+00  1.50000000E+00
  8.00000000E-01  8.00000000E-01  1.50000000E+00  1.50000000E+00  8.00000000E-01
  8.00000000E-01  1.50000000E+00  1.50000000E+00  8.00000000E-01  8.00000000E-01
  1.50000000E+00  1.50000000E+00  8.00000000E-01  8.00000000E-01  1.50000000E+00
  1.50000000E+00  8.00000000E-01  8.00000000E-01  1.50000000E+00  1.50000000E+00
  8.00000000E-01  8.00000000E-01  1.50000000E+00  1.50000000E+00  8.00000000E-01
  8.00000000E-01  1.50000000E+00  1.50000000E+00  8.00000000E-01  8.00000000E-01
  1.50000000E+00  1.50000000E+00  8.00000000E-01  8.00000000E-01  1.50000000E+00
  1.50000000E+00  8.00000000E-01  8.00000000E-01  1.50000000E+00  1.50000000E+00
  8.00000000E-01  8.00000000E-01  1.50000000E+00  1.50000000E+00  8.00000000E-01
  8.00000000E-01  1.50000000E+00  1.50000000E+00  8.00000000E-01  8.00000000E-01
  1.50000000E+00  1.50000000E+00  8.00000000E-01  8.00000000E-01  1.50000000E+00
  1.50000000E+00  8.00000000E-01  8.00000000E-01  1.50000000E+00  1.50000000E+00
  8.00000000E-01  8.00000000E-01  1.50000000E+00  1.50000000E+00  8.00000000E-01
  8.00000000E-01  1.50000000E+00  1.50000000E+00  8.00000000E-01  8.00000000E-01
  1.50000000E+00  1.50000000E+00  8.00000000E-01  8.00000000E-01  1.50000000E+00
  1.50000000E+00  8.00000000E-01  8.00000000E-01  1.50000000E+00  1.50000000E+00
  8.00000000E-01  8.00000000E-01  1.50000000E+00  1.50000000E+00  8.00000000E-01
  8.00000000E-01  1.50000000E+00  1.50000000E+00  8.00000000E-01  8.00000000E-01
  1.50000000E+00  1.50000000E+00  8.00000000E-01  8.00000000E-01  1.50000000E+00
  1.50000000E+00  8.00000000E-01  8.00000000E-01  1.50000000E+00  1.50000000E+00
  8.00000000E-01  8.00000000E-01  1.50000000E+00  1.50000000E+00  8.00000000E-01
  8.00000000E-01  1.50000000E+00  1.50000000E+00  8.00000000E-01  8.00000000E-01
  1.50000000E+00  1.50000000E+00  8.00000000E-01  8.00000000E-01  1.50000000E+00
  1.50000000E+00  8.00000000E-01  8.00000000E-01  1.50000000E+00  1.50000000E+00
  8.00000000E-01  8.00000000E-01  1.50000000E+00  1.50000000E+00  8.00000000E-01
  8.00000000E-01  1.50000000E+00  1.50000000E+00  8.00000000E-01  8.00000000E-01
  1.50000000E+00  1.50000000E+00  8.00000000E-01  8.00000000E-01  1.50000000E+00
  1.50000000E+00  8.00000000E-01  8.00000000E-01  1.50000000E+00  1.50000000E+00
  8.00000000E-01  8.00000000E-01  1.50000000E+00  1.50000000E+00  8.00000000E-01
  8.00000000E-01  1.50000000E+00  1.50000000E+00  8.00000000E-01  8.00000000E-01
  1.50000000E+00  1.50000000E+00  8.00000000E-01  8.00000000E-01  1.50000000E+00
  1.50000000E+00  8.00000000E-01  8.00000000E-01  1.50000000E+00  1.50000000E+00
  8.00000000E-01  8.00000000E-01  1.50000000E+00  1.50000000E+00  8.00000000E-01
  8.00000000E-01  1.50000000E+00  1.50000000E+00  8.00000000E-01  8.00000000E-01
  1.50000000E+00  1.50000000E+00  8.00000000E-01  8.00000000E-01  1.50000000E+00
  1.50000000E+00  8.00000000E-01  8.00000000E-01  1.50000000E+00  1.50000000E+00
  8.00000000E-01  8.00000000E-01  1.50000000E+00  1.50000000E+00  8.00000000E-01
  8.00000000E-01  1.50000000E+00  1.50000000E+00  8.00000000E-01  8.00000000E-01
  1.50000000E+00  1.50000000E+00  8.00000000E-01  8.00000000E-01  1.50000000E+00
  1.50000000E+00  8.00000000E-01  8.00000000E-01  1.50000000E+00  1.50000000E+00
  8.00000000E-01  8.00000000E-01  1.50000000E+00  1.50000000E+00  8.00000000E-01
  8.00000000E-01  1.50000000E+00  1.50000000E+00  8.00000000E-01  8.00000000E-01
  1.50000000E+00  1.50000000E+00  8.00000000E-01  8.00000000E-01  1.50000000E+00
  1.50000000E+00  8.00000000E-01  8.00000000E-01  1.50000000E+00  1.50000000E+00
  8.00000000E-01  8.00000000E-01  1.50000000E+00  1.50000000E+00  8.00000000E-01
  8.00000000E-01  1.50000000E+00  1.50000000E+00  8.00000000E-01  8.00000000E-01
  1.50000000E+00  1.50000000E+00  8.00000000E-01  8.00000000E-01  1.50000000E+00
  1.50000000E+00  8.00000000E-01  8.00000000E-01  1.50000000E+00  1.50000000E+00
  8.00000000E-01  8.00000000E-01  1.50000000E+00  1.50000000E+00  8.00000000E-01
  8.00000000E-01  1.50000000E+00  1.50000000E+00  8.00000000E-01  8.00000000E-01
  1.50000000E+00  1.50000000E+00  8.00000000E-01  8.00000000E-01  1.50000000E+00
  1.50000000E+00  8.00000000E-01  8.00000000E-01  1.50000000E+00  1.50000000E+00
  8.00000000E-01  8.00000000E-01  1.50000000E+00  1.50000000E+00  8.00000000E-01
  8.00000000E-01  1.50000000E+00  1.50000000E+00  8.00000000E-01  8.00000000E-01
  1.50000000E+00  1.50000000E+00  8.00000000E-01  8.00000000E-01  1.50000000E+00
  1.50000000E+00  8.00000000E-01  8.00000000E-01  1.50000000E+00  1.50000000E+00
  8.00000000E-01  8.00000000E-01  1.50000000E+00  1.50000000E+00  8.00000000E-01
  8.00000000E-01  1.50000000E+00  1.50000000E+00  8.00000000E-01  8.00000000E-01
  1.50000000E+00  1.50000000E+00  8.00000000E-01  8.00000000E-01  1.50000000E+00
  1.50000000E+00  8.00000000E-01  8.00000000E-01  1.50000000E+00  1.50000000E+00
  8.00000000E-01  8.00000000E-01  1.50000000E+00  1.50000000E+00  8.00000000E-01
  8.00000000E-01  1.50000000E+00  1.50000000E+00  8.00000000E-01  8.00000000E-01
  1.50000000E+00  1.50000000E+00  8.00000000E-01  8.00000000E-01  1.50000000E+00
  1.50000000E+00  8.00000000E-01  8.00000000E-01  1.50000000E+00  1.50000000E+00
  8.00000000E-01  8.00000000E-01  1.50000000E+00  1.50000000E+00  8.00000000E-01
  8.00000000E-01  1.50000000E+00  1.50000000E+00  8.00000000E-01  8.00000000E-01
  1.50000000E+00  1.50000000E+00  8.00000000E-01  8.00000000E-01  1.50000000E+00
  1.50000000E+00  8.00000000E-01  8.00000000E-01  1.50000000E+00  1.50000000E+00
  8.00000000E-01  8.00000000E-01  1.50000000E+00  1.50000000E+00  8.00000000E-01
  8.00000000E-01  1.50000000E+00  1.50000000E+00  8.00000000E-01  8.00000000E-01
  1.50000000E+00  1.50000000E+00  8.00000000E-01  8.00000000E-01  1.50000000E+00
  1.50000000E+00  8.00000000E-01  8.00000000E-01  1.50000000E+00  1.50000000E+00
  8.00000000E-01  8.00000000E-01  1.50000000E+00  1.50000000E+00  8.00000000E-01
  8.00000000E-01  1.50000000E+00  1.50000000E+00  8.00000000E-01  8.00000000E-01
  1.50000000E+00  1.50000000E+00  8.00000000E-01  8.00000000E-01  1.50000000E+00
  1.50000000E+00  8.00000000E-01  8.00000000E-01  1.50000000E+00  1.50000000E+00
  8.00000000E-01  8.00000000E-01  1.50000000E+00  1.50000000E+00  8.00000000E-01
  8.00000000E-01  1.50000000E+00  1.50000000E+00  8.00000000E-01  8.00000000E-01
  1.50000000E+00  1.50000000E+00  8.00000000E-01  8.00000000E-01  1.50000000E+00
  1.50000000E+00  8.00000000E-01  8.00000000E-01  1.50000000E+00  1.50000000E+00
  8.00000000E-01  8.00000000E-01  1.50000000E+00  1.50000000E+00  8.00000000E-01
  8.00000000E-01  1.50000000E+00  1.50000000E+00  8.00000000E-01  8.00000000E-01
  1.50000000E+00  1.50000000E+00  8.00000000E-01  8.00000000E-01  1.50000000E+00
  1.50000000E+00  8.00000000E-01  8.00000000E-01  1.50000000E+00  1.50000000E+00
  8.00000000E-01  8.00000000E-01  1.50000000E+00  1.50000000E+00  8.00000000E-01
  8.00000000E-01  1.50000000E+00  1.50000000E+00  8.00000000E-01  8.00000000E-01
  1.50000000E+00  1.50000000E+00  8.00000000E-01  8.00000000E-01  1.50000000E+00
  1.50000000E+00  8.00000000E-01  8.00000000E-01  1.50000000E+00  1.50000000E+00
  8.00000000E-01  8.00000000E-01  1.50000000E+00  1.50000000E+00  8.00000000E-01
  8.00000000E-01  1.50000000E+00  1.50000000E+00  8.00000000E-01  8.00000000E-01
  1.50000000E+00  1.50000000E+00  8.00000000E-01  8.00000000E-01  1.50000000E+00
  1.50000000E+00  8.00000000E-01  8.00000000E-01  1.50000000E+00  1.50000000E+00
  8.00000000E-01  8.00000000E-01  1.50000000E+00  1.50000000E+00  8.00000000E-01
  8.00000000E-01  1.50000000E+00  1.50000000E+00  8.00000000E-01  8.00000000E-01
  1.50000000E+00  1.50000000E+00  8.00000000E-01  8.00000000E-01  1.50000000E+00
  1.50000000E+00  8.00000000E-01  8.00000000E-01  1.50000000E+00  1.50000000E+00
  8.00000000E-01  8.00000000E-01  1.50000000E+00  1.50000000E+00  8.00000000E-01
  8.00000000E-01  1.50000000E+00  1.50000000E+00  8.00000000E-01  8.00000000E-01
  1.50000000E+00  1.50000000E+00  8.00000000E-01  8.00000000E-01  1.50000000E+00
  1.50000000E+00  8.00000000E-01  8.00000000E-01  1.50000000E+00  1.50000000E+00
  8.00000000E-01  8.00000000E-01  1.50000000E+00  1.50000000E+00  8.00000000E-01
  8.00000000E-01  1.50000000E+00  1.50000000E+00  8.00000000E-01  8.00000000E-01
  1.50000000E+00  1.50000000E+00  8.00000000E-01  8.00000000E-01  1.50000000E+00
  1.50000000E+00  8.00000000E-01  8.00000000E-01  1.50000000E+00  1.50000000E+00
  8.00000000E-01  8.00000000E-01  1.50000000E+00  1.50000000E+00  8.00000000E-01
  8.00000000E-01  1.50000000E+00  1.50000000E+00  8.00000000E-01  8.00000000E-01
  1.50000000E+00  1.50000000E+00  8.00000000E-01  8.00000000E-01  1.50000000E+00
  1.50000000E+00  8.00000000E-01  8.00000000E-01  1.50000000E+00  1.50000000E+00
  8.00000000E-01  8.00000000E-01  1.50000000E+00  1.50000000E+00  8.00000000E-01
  8.00000000E-01  1.50000000E+00  1.50000000E+00  8.00000000E-01  8.00000000E-01
  1.50000000E+00  1.50000000E+00  8.00000000E-01  8.00000000E-01  1.50000000E+00
  1.50000000E+00  8.00000000E-01  8.00000000E-01  1.50000000E+00  1.50000000E+00
  8.00000000E-01  8.00000000E-01  1.50000000E+00  1.50000000E+00  8.00000000E-01
  8.00000000E-01  1.50000000E+00  1.50000000E+00  8.00000000E-01  8.00000000E-01
  1.50000000E+00  1.50000000E+00  8.00000000E-01  8.00000000E-01  1.50000000E+00
  1.50000000E+00  8.00000000E-01  8.00000000E-01  1.50000000E+00  1.50000000E+00
  8.00000000E-01  8.00000000E-01  1.50000000E+00  1.50000000E+00  8.00000000E-01
  8.00000000E-01  1.50000000E+00  1.50000000E+00  8.00000000E-01  8.00000000E-01
  1.50000000E+00  1.50000000E+00  8.00000000E-01  8.00000000E-01  1.50000000E+00
  1.50000000E+00  8.00000000E-01  8.00000000E-01  1.50000000E+00  1.50000000E+00
  8.00000000E-01  8.00000000E-01  1.50000000E+00  1.50000000E+00  8.00000000E-01
  8.00000000E-01  1.50000000E+00  1.50000000E+00  8.00000000E-01  8.00000000E-01
  1.50000000E+00  1.50000000E+00  8.00000000E-01  8.00000000E-01  1.50000000E+00
  1.50000000E+00  8.00000000E-01  8.00000000E-01  1.50000000E+00  1.50000000E+00
  8.00000000E-01  8.00000000E-01  1.50000000E+00  1.50000000E+00  8.00000000E-01
  8.00000000E-01  1.50000000E+00  1.50000000E+00  8.00000000E-01  8.00000000E-01
  1.50000000E+00  1.50000000E+00  8.00000000E-01  8.00000000E-01  1.50000000E+00
  1.50000000E+00  8.00000000E-01  8.00000000E-01  1.50000000E+00  1.50000000E+00
  8.00000000E-01  8.00000000E-01  1.50000000E+00  1.50000000E+00  8.00000000E-01
  8.00000000E-01  1.50000000E+00  1.50000000E+00  8.00000000E-01  8.00000000E-01
  1.50000000E+00  1.50000000E+00  8.00000000E-01  8.00000000E-01  1.50000000E+00
  1.50000000E+00  8.00000000E-01  8.00000000E-01  1.50000000E+00  1.50000000E+00
  8.00000000E-01  8.00000000E-01  1.50000000E+00  1.50000000E+00  8.00000000E-01
  8.00000000E-01  1.50000000E+00  1.50000000E+00  8.00000000E-01  8.00000000E-01
  1.50000000E+00  1.50000000E+00  8.00000000E-01  8.00000000E-01  1.50000000E+00
  1.50000000E+00  8.00000000E-01  8.00000000E-01  1.50000000E+00  1.50000000E+00
  8.00000000E-01  8.00000000E-01  1.50000000E+00  1.50000000E+00  8.00000000E-01
  8.00000000E-01  1.50000000E+00  1.50000000E+00  8.00000000E-01  8.00000000E-01
  1.50000000E+00  1.50000000E+00  8.00000000E-01  8.00000000E-01  1.50000000E+00
  1.50000000E+00  8.00000000E-01  8.00000000E-01  1.50000000E+00  1.50000000E+00
  8.00000000E-01  8.00000000E-01  1.50000000E+00  1.50000000E+00  8.00000000E-01
  8.00000000E-01  1.50000000E+00  1.50000000E+00  8.00000000E-01  8.00000000E-01
  1.50000000E+00  1.50000000E+00  8.00000000E-01  8.00000000E-01  1.50000000E+00
  1.50000000E+00  8.00000000E-01  8.00000000E-01  1.50000000E+00  1.50000000E+00
  8.00000000E-01  8.00000000E-01  1.50000000E+00  1.50000000E+00  8.00000000E-01
  8.00000000E-01  1.50000000E+00  1.50000000E+00  8.00000000E-01  8.00000000E-01
  1.50000000E+00  1.50000000E+00  8.00000000E-01  8.00000000E-01  1.50000000E+00
  1.50000000E+00  8.00000000E-01  8.00000000E-01  1.50000000E+00  1.50000000E+00
  8.00000000E-01  8.00000000E-01  1.50000000E+00  1.50000000E+00  8.00000000E-01
  8.00000000E-01  1.50000000E+00  1.50000000E+00  8.00000000E-01  8.00000000E-01
  1.50000000E+00  1.50000000E+00  8.00000000E-01  8.00000000E-01  1.50000000E+00
  1.50000000E+00  8.00000000E-01  8.00000000E-01  1.50000000E+00  1.50000000E+00
  8.00000000E-01  8.00000000E-01  1.50000000E+00  1.50000000E+00  8.00000000E-01
  8.00000000E-01  1.50000000E+00  1.50000000E+00  8.00000000E-01  8.00000000E-01
  1.50000000E+00  1.50000000E+00  8.00000000E-01  8.00000000E-01  1.50000000E+00
  1.50000000E+00  8.00000000E-01  8.00000000E-01  1.50000000E+00  1.50000000E+00
  8.00000000E-01  8.00000000E-01  1.50000000E+00  1.50000000E+00  8.00000000E-01
  8.00000000E-01  1.50000000E+00  1.50000000E+00  8.00000000E-01  8.00000000E-01
  1.50000000E+00  1.50000000E+00  8.00000000E-01  8.00000000E-01  1.50000000E+00
  1.50000000E+00  8.00000000E-01  8.00000000E-01  1.50000000E+00  1.50000000E+00
  8.00000000E-01  8.00000000E-01  1.50000000E+00  1.50000000E+00  8.00000000E-01
  8.00000000E-01  1.50000000E+00  1.50000000E+00  8.00000000E-01  8.00000000E-01
  1.50000000E+00  1.50000000E+00  8.00000000E-01  8.00000000E-01  1.50000000E+00
  1.50000000E+00  8.00000000E-01  8.00000000E-01  1.50000000E+00  1.50000000E+00
  8.00000000E-01  8.00000000E-01  1.50000000E+00  1.50000000E+00  8.00000000E-01
  8.00000000E-01  1.50000000E+00  1.50000000E+00  8.00000000E-01  8.00000000E-01
  1.50000000E+00  1.50000000E+00  8.00000000E-01  8.00000000E-01  1.50000000E+00
  1.50000000E+00  8.00000000E-01  8.00000000E-01  1.50000000E+00  1.50000000E+00
  8.00000000E-01  8.00000000E-01  1.50000000E+00  1.50000000E+00  8.00000000E-01
  8.00000000E-01  1.50000000E+00  1.50000000E+00  8.00000000E-01  8.00000000E-01
  1.50000000E+00  1.50000000E+00  8.00000000E-01  8.00000000E-01  1.50000000E+00
  1.50000000E+00  8.00000000E-01  8.00000000E-01  1.50000000E+00  1.50000000E+00
  8.00000000E-01  8.00000000E-01  1.50000000E+00  1.50000000E+00  8.00000000E-01
  8.00000000E-01  1.50000000E+00  1.50000000E+00  8.00000000E-01  8.00000000E-01
  1.50000000E+00  1.50000000E+00  8.00000000E-01  8.00000000E-01  1.50000000E+00
  1.50000000E+00  8.00000000E-01  8.00000000E-01  1.50000000E+00  1.50000000E+00
  8.00000000E-01  8.00000000E-01  1.50000000E+00  1.50000000E+00  8.00000000E-01
  8.00000000E-01  1.50000000E+00  1.50000000E+00  8.00000000E-01  8.00000000E-01
  1.50000000E+00  1.50000000E+00  8.00000000E-01  8.00000000E-01  1.50000000E+00
  1.50000000E+00  8.00000000E-01  8.00000000E-01  1.50000000E+00  1.50000000E+00
  8.00000000E-01  8.00000000E-01  1.50000000E+00  1.50000000E+00  8.00000000E-01
  8.00000000E-01  1.50000000E+00  1.50000000E+00  8.00000000E-01  8.00000000E-01
  1.50000000E+00  1.50000000E+00  8.00000000E-01  8.00000000E-01  1.50000000E+00
  1.50000000E+00  8.00000000E-01  8.00000000E-01  1.50000000E+00  1.50000000E+00
  8.00000000E-01  8.00000000E-01  1.50000000E+00  1.50000000E+00  8.00000000E-01
  8.00000000E-01  1.50000000E+00  1.50000000E+00  8.00000000E-01  8.00000000E-01
  1.50000000E+00  1.50000000E+00  8.00000000E-01  8.00000000E-01  1.50000000E+00
  1.50000000E+00  8.00000000E-01  8.00000000E-01  1.50000000E+00  1.50000000E+00
  8.00000000E-01  8.00000000E-01  1.50000000E+00  1.50000000E+00  8.00000000E-01
  8.00000000E-01  1.50000000E+00  1.50000000E+00  8.00000000E-01  8.00000000E-01
  1.50000000E+00  1.50000000E+00  8.00000000E-01  8.00000000E-01  1.50000000E+00
  1.50000000E+00  8.00000000E-01  8.00000000E-01  1.50000000E+00  1.50000000E+00
  8.00000000E-01  8.00000000E-01  1.50000000E+00  1.50000000E+00  8.00000000E-01
  8.00000000E-01  1.50000000E+00  1.50000000E+00  8.00000000E-01  8.00000000E-01
  1.50000000E+00  1.50000000E+00  8.00000000E-01  8.00000000E-01  1.50000000E+00
  1.50000000E+00  8.00000000E-01  8.00000000E-01  1.50000000E+00  1.50000000E+00
  8.00000000E-01  8.00000000E-01  1.50000000E+00  1.50000000E+00  8.00000000E-01
  8.00000000E-01  1.50000000E+00  1.50000000E+00  8.00000000E-01  8.00000000E-01
  1.50000000E+00  1.50000000E+00  8.00000000E-01  8.00000000E-01  1.50000000E+00
  1.50000000E+00  8.00000000E-01  8.00000000E-01  1.50000000E+00  1.50000000E+00
  8.00000000E-01  8.00000000E-01  1.50000000E+00  1.50000000E+00  8.00000000E-01
  8.00000000E-01  1.50000000E+00  1.50000000E+00  8.00000000E-01  8.00000000E-01
  1.50000000E+00  1.50000000E+00  8.00000000E-01  8.00000000E-01  1.50000000E+00
  1.50000000E+00  8.00000000E-01  8.00000000E-01  1.50000000E+00  1.50000000E+00
  8.00000000E-01  8.00000000E-01  1.50000000E+00  1.50000000E+00  8.00000000E-01
  8.00000000E-01  1.50000000E+00  1.50000000E+00  8.00000000E-01  8.00000000E-01
  1.50000000E+00  1.50000000E+00  8.00000000E-01  8.00000000E-01  1.50000000E+00
  1.50000000E+00  8.00000000E-01  8.00000000E-01  1.50000000E+00  1.50000000E+00
  8.00000000E-01  8.00000000E-01  1.50000000E+00  1.50000000E+00  8.00000000E-01
  8.00000000E-01  1.50000000E+00  1.50000000E+00  8.00000000E-01  8.00000000E-01
  1.50000000E+00  1.50000000E+00  8.00000000E-01  8.00000000E-01  1.50000000E+00
  1.50000000E+00  8.00000000E-01  8.00000000E-01  1.50000000E+00  1.50000000E+00
  8.00000000E-01  8.00000000E-01  1.50000000E+00  1.50000000E+00  8.00000000E-01
  8.00000000E-01  1.50000000E+00  1.50000000E+00  8.00000000E-01  8.00000000E-01
  1.50000000E+00  1.50000000E+00  8.00000000E-01  8.00000000E-01  1.50000000E+00
  1.50000000E+00  8.00000000E-01  8.00000000E-01  1.50000000E+00  1.50000000E+00
  8.00000000E-01  8.00000000E-01  1.50000000E+00  1.50000000E+00  8.00000000E-01
  8.00000000E-01  1.50000000E+00  1.50000000E+00  8.00000000E-01  8.00000000E-01
  1.50000000E+00  1.50000000E+00  8.00000000E-01  8.00000000E-01  1.50000000E+00
  1.50000000E+00  8.00000000E-01  8.00000000E-01  1.50000000E+00  1.50000000E+00
  8.00000000E-01  8.00000000E-01  1.50000000E+00  1.50000000E+00  8.00000000E-01
  8.00000000E-01  1.50000000E+00  1.50000000E+00  8.00000000E-01  8.00000000E-01
  1.50000000E+00  1.50000000E+00  8.00000000E-01  8.00000000E-01  1.50000000E+00
  1.50000000E+00  8.00000000E-01  8.00000000E-01  1.50000000E+00  1.50000000E+00
  8.00000000E-01  8.00000000E-01  1.50000000E+00  1.50000000E+00  8.00000000E-01
  8.00000000E-01  1.50000000E+00  1.50000000E+00  8.00000000E-01  8.00000000E-01
  1.50000000E+00  1.50000000E+00  8.00000000E-01  8.00000000E-01  1.50000000E+00
  1.50000000E+00  8.00000000E-01  8.00000000E-01  1.50000000E+00  1.50000000E+00
  8.00000000E-01  8.00000000E-01  1.50000000E+00  1.50000000E+00  8.00000000E-01
  8.00000000E-01  1.50000000E+00  1.50000000E+00  8.00000000E-01  8.00000000E-01
  1.50000000E+00  1.50000000E+00  8.00000000E-01  8.00000000E-01  1.50000000E+00
  1.50000000E+00  8.00000000E-01  8.00000000E-01  1.50000000E+00  1.50000000E+00
  8.00000000E-01  8.00000000E-01  1.50000000E+00  1.50000000E+00  8.00000000E-01
  8.00000000E-01  1.50000000E+00  1.50000000E+00  8.00000000E-01  8.00000000E-01
  1.50000000E+00  1.50000000E+00  8.00000000E-01  8.00000000E-01  1.50000000E+00
  1.50000000E+00  8.00000000E-01  8.00000000E-01  1.50000000E+00  1.50000000E+00
  8.00000000E-01  8.00000000E-01  1.50000000E+00  1.50000000E+00  8.00000000E-01
  8.00000000E-01  1.50000000E+00  1.50000000E+00  8.00000000E-01  8.00000000E-01
  1.50000000E+00  1.50000000E+00  8.00000000E-01  8.00000000E-01  1.50000000E+00
  1.50000000E+00  8.00000000E-01  8.00000000E-01  1.50000000E+00  1.50000000E+00
  8.00000000E-01  8.00000000E-01  1.50000000E+00  1.50000000E+00  8.00000000E-01
  8.00000000E-01  1.50000000E+00  1.50000000E+00  8.00000000E-01  8.00000000E-01
  1.50000000E+00  1.50000000E+00  8.00000000E-01  8.00000000E-01  1.50000000E+00
  1.50000000E+00  8.00000000E-01  8.00000000E-01  1.50000000E+00  1.50000000E+00
  8.00000000E-01  8.00000000E-01  1.50000000E+00  1.50000000E+00  8.00000000E-01
  8.00000000E-01  1.50000000E+00  1.50000000E+00  8.00000000E-01  8.00000000E-01
  1.50000000E+00  1.50000000E+00  8.00000000E-01  8.00000000E-01  1.50000000E+00
  1.50000000E+00  8.00000000E-01  8.00000000E-01  1.50000000E+00  1.50000000E+00
  8.00000000E-01  8.00000000E-01  1.50000000E+00  1.50000000E+00  8.00000000E-01
  8.00000000E-01  1.50000000E+00  1.50000000E+00  8.00000000E-01  8.00000000E-01
  1.50000000E+00  1.50000000E+00  8.00000000E-01  8.00000000E-01  1.50000000E+00
  1.50000000E+00  8.00000000E-01  8.00000000E-01  1.50000000E+00  1.50000000E+00
  8.00000000E-01  8.00000000E-01  1.50000000E+00  1.50000000E+00  8.00000000E-01
  8.00000000E-01  1.50000000E+00  1.50000000E+00  8.00000000E-01  8.00000000E-01
  1.50000000E+00  1.50000000E+00  8.00000000E-01  8.00000000E-01  1.50000000E+00
  1.50000000E+00  8.00000000E-01  8.00000000E-01  1.50000000E+00  1.50000000E+00
  8.00000000E-01  8.00000000E-01  1.50000000E+00  1.50000000E+00  8.00000000E-01
  8.00000000E-01  1.50000000E+00  1.50000000E+00  8.00000000E-01  8.00000000E-01
  1.50000000E+00  1.50000000E+00  8.00000000E-01  8.00000000E-01  1.50000000E+00
  1.50000000E+00  8.00000000E-01  8.00000000E-01  1.50000000E+00  1.50000000E+00
  8.00000000E-01  8.00000000E-01  1.50000000E+00  1.50000000E+00  8.00000000E-01
  8.00000000E-01  1.50000000E+00  1.50000000E+00  8.00000000E-01  8.00000000E-01
  1.50000000E+00  1.50000000E+00  8.00000000E-01  8.00000000E-01  1.50000000E+00
  1.50000000E+00  8.00000000E-01  8.00000000E-01  1.50000000E+00  1.50000000E+00
  8.00000000E-01  8.00000000E-01  1.50000000E+00  1.50000000E+00  8.00000000E-01
  8.00000000E-01  1.50000000E+00  1.50000000E+00  8.00000000E-01  8.00000000E-01
  1.50000000E+00  1.50000000E+00  8.00000000E-01  8.00000000E-01  1.50000000E+00
  1.50000000E+00  8.00000000E-01  8.00000000E-01  1.50000000E+00  1.50000000E+00
  8.00000000E-01  8.00000000E-01  1.50000000E+00  1.50000000E+00  8.00000000E-01
  8.00000000E-01  1.50000000E+00  1.50000000E+00  8.00000000E-01  8.00000000E-01
  1.50000000E+00  1.50000000E+00  8.00000000E-01  8.00000000E-01  1.50000000E+00
  1.50000000E+00  8.00000000E-01  8.00000000E-01  1.50000000E+00  1.50000000E+00
  8.00000000E-01  8.00000000E-01  1.50000000E+00  1.50000000E+00  8.00000000E-01
  8.00000000E-01  1.50000000E+00  1.50000000E+00  8.00000000E-01  8.00000000E-01
  1.50000000E+00  1.50000000E+00  8.00000000E-01  8.00000000E-01  1.50000000E+00
  1.50000000E+00  8.00000000E-01  8.00000000E-01  1.50000000E+00  1.50000000E+00
  8.00000000E-01  8.00000000E-01  1.50000000E+00  1.50000000E+00  8.00000000E-01
  8.00000000E-01  1.50000000E+00  1.50000000E+00  8.00000000E-01  8.00000000E-01
  1.50000000E+00  1.50000000E+00  8.00000000E-01  8.00000000E-01  1.50000000E+00
  1.50000000E+00  8.00000000E-01  8.00000000E-01  1.50000000E+00  1.50000000E+00
  8.00000000E-01  8.00000000E-01  1.50000000E+00  1.50000000E+00  8.00000000E-01
  8.00000000E-01  1.50000000E+00  1.50000000E+00  8.00000000E-01  8.00000000E-01
  1.50000000E+00  1.50000000E+00  8.00000000E-01  8.00000000E-01  1.50000000E+00
  1.50000000E+00  8.00000000E-01  8.00000000E-01  1.50000000E+00  1.50000000E+00
  8.00000000E-01  8.00000000E-01  1.50000000E+00  1.50000000E+00  8.00000000E-01
  8.00000000E-01  1.50000000E+00  1.50000000E+00  8.00000000E-01  8.00000000E-01
  1.50000000E+00  1.50000000E+00  8.00000000E-01  8.00000000E-01  1.50000000E+00
  1.50000000E+00  8.00000000E-01  8.00000000E-01  1.50000000E+00  1.50000000E+00
  8.00000000E-01  8.00000000E-01  1.50000000E+00  1.50000000E+00  8.00000000E-01
  8.00000000E-01  1.50000000E+00  1.50000000E+00  8.00000000E-01  8.00000000E-01
  1.50000000E+00  1.50000000E+00  8.00000000E-01  8.00000000E-01  1.50000000E+00
  1.50000000E+00  8.00000000E-01  8.00000000E-01  1.50000000E+00  1.50000000E+00
  8.00000000E-01  8.00000000E-01  1.50000000E+00  1.50000000E+00  8.00000000E-01
  8.00000000E-01  1.50000000E+00  1.50000000E+00  8.00000000E-01  8.00000000E-01
  1.50000000E+00  1.50000000E+00  8.00000000E-01  8.00000000E-01  1.50000000E+00
  1.50000000E+00  8.00000000E-01  8.00000000E-01  1.50000000E+00  1.50000000E+00
  8.00000000E-01  8.00000000E-01  1.50000000E+00  1.50000000E+00  8.00000000E-01
  8.00000000E-01  1.50000000E+00  1.50000000E+00  8.00000000E-01  8.00000000E-01
  1.50000000E+00  1.50000000E+00  8.00000000E-01  8.00000000E-01  1.50000000E+00
  1.50000000E+00  8.00000000E-01  8.00000000E-01  1.50000000E+00  1.50000000E+00
  8.00000000E-01  8.00000000E-01  1.50000000E+00  1.50000000E+00  8.00000000E-01
  8.00000000E-01  1.50000000E+00  1.50000000E+00  8.00000000E-01  8.00000000E-01
  1.50000000E+00  1.50000000E+00  8.00000000E-01  8.00000000E-01  1.50000000E+00
  1.50000000E+00  8.00000000E-01  8.00000000E-01  1.50000000E+00  1.50000000E+00
  8.00000000E-01  8.00000000E-01  1.50000000E+00  1.50000000E+00  8.00000000E-01
  8.00000000E-01  1.50000000E+00  1.50000000E+00  8.00000000E-01  8.00000000E-01
  1.50000000E+00  1.50000000E+00  8.00000000E-01  8.00000000E-01  1.50000000E+00
  1.50000000E+00  8.00000000E-01  8.00000000E-01  1.50000000E+00  1.50000000E+00
  8.00000000E-01  8.00000000E-01  1.50000000E+00  1.50000000E+00  8.00000000E-01
  8.00000000E-01  1.50000000E+00  1.50000000E+00  8.00000000E-01  8.00000000E-01
  1.50000000E+00  1.50000000E+00  8.00000000E-01  8.00000000E-01  1.50000000E+00
  1.50000000E+00  8.00000000E-01  8.00000000E-01  1.50000000E+00  1.50000000E+00
  8.00000000E-01  8.00000000E-01  1.50000000E+00  1.50000000E+00  8.00000000E-01
  8.00000000E-01  1.50000000E+00  1.50000000E+00  8.00000000E-01  8.00000000E-01
  1.50000000E+00  1.50000000E+00  8.00000000E-01  8.00000000E-01  1.50000000E+00
  1.50000000E+00  8.00000000E-01  8.00000000E-01  1.50000000E+00  1.50000000E+00
  8.00000000E-01  8.00000000E-01  1.50000000E+00  1.50000000E+00  8.00000000E-01
  8.00000000E-01  1.50000000E+00  1.50000000E+00  8.00000000E-01  8.00000000E-01
  1.50000000E+00  1.50000000E+00  8.00000000E-01  8.00000000E-01  1.50000000E+00
  1.50000000E+00  8.00000000E-01  8.00000000E-01  1.50000000E+00  1.50000000E+00
  8.00000000E-01  8.00000000E-01  1.50000000E+00  1.50000000E+00  8.00000000E-01
  8.00000000E-01  1.50000000E+00  1.50000000E+00  8.00000000E-01  8.00000000E-01
  1.50000000E+00  1.50000000E+00  8.00000000E-01  8.00000000E-01  1.50000000E+00
  1.50000000E+00  8.00000000E-01  8.00000000E-01  1.50000000E+00  1.50000000E+00
  8.00000000E-01  8.00000000E-01  1.50000000E+00  1.50000000E+00  8.00000000E-01
  8.00000000E-01  1.50000000E+00  1.50000000E+00  8.00000000E-01  8.00000000E-01
  1.50000000E+00  1.50000000E+00  8.00000000E-01  8.00000000E-01  1.50000000E+00
  1.50000000E+00  8.00000000E-01  8.00000000E-01  1.50000000E+00  1.50000000E+00
  8.00000000E-01  8.00000000E-01  1.50000000E+00  1.50000000E+00  8.00000000E-01
  8.00000000E-01  1.50000000E+00  1.50000000E+00  8.00000000E-01  8.00000000E-01
  1.50000000E+00  1.50000000E+00  8.00000000E-01  8.00000000E-01  1.50000000E+00
  1.50000000E+00  8.00000000E-01  8.00000000E-01  1.50000000E+00  1.50000000E+00
  8.00000000E-01  8.00000000E-01  1.50000000E+00  1.50000000E+00  8.00000000E-01
  8.00000000E-01  1.50000000E+00  1.50000000E+00  8.00000000E-01  8.00000000E-01
  1.50000000E+00  1.50000000E+00  8.00000000E-01  8.00000000E-01  1.50000000E+00
  1.50000000E+00  8.00000000E-01  8.00000000E-01  1.50000000E+00  1.50000000E+00
  8.00000000E-01  8.00000000E-01  1.50000000E+00  1.50000000E+00  8.00000000E-01
  8.00000000E-01  1.50000000E+00  1.50000000E+00  8.00000000E-01  8.00000000E-01
  1.50000000E+00  1.50000000E+00  8.00000000E-01  8.00000000E-01  1.50000000E+00
  1.50000000E+00  8.00000000E-01  8.00000000E-01  1.50000000E+00  1.50000000E+00
  8.00000000E-01  8.00000000E-01  1.50000000E+00  1.50000000E+00  8.00000000E-01
  8.00000000E-01  1.50000000E+00  1.50000000E+00  8.00000000E-01  8.00000000E-01
  1.50000000E+00  1.50000000E+00  8.00000000E-01  8.00000000E-01  1.50000000E+00
  1.50000000E+00  8.00000000E-01  8.00000000E-01  1.50000000E+00  1.50000000E+00
  8.00000000E-01  8.00000000E-01  1.50000000E+00  1.50000000E+00  8.00000000E-01
  8.00000000E-01  1.50000000E+00  1.50000000E+00  8.00000000E-01  8.00000000E-01
  1.50000000E+00  1.50000000E+00  8.00000000E-01  8.00000000E-01  1.50000000E+00
  1.50000000E+00  8.00000000E-01  8.00000000E-01  1.50000000E+00  1.50000000E+00
  8.00000000E-01  8.00000000E-01  1.50000000E+00  1.50000000E+00  8.00000000E-01
  8.00000000E-01  1.50000000E+00  1.50000000E+00  8.00000000E-01  8.00000000E-01
  1.50000000E+00  1.50000000E+00  8.00000000E-01  8.00000000E-01  1.50000000E+00
  1.50000000E+00  8.00000000E-01  8.00000000E-01  1.50000000E+00  1.50000000E+00
  8.00000000E-01  8.00000000E-01  1.50000000E+00  1.50000000E+00  8.00000000E-01
  8.00000000E-01  1.50000000E+00  1.50000000E+00  8.00000000E-01  8.00000000E-01
  1.50000000E+00  1.50000000E+00  8.00000000E-01  8.00000000E-01  1.50000000E+00
  1.50000000E+00  8.00000000E-01  8.00000000E-01  1.50000000E+00  1.50000000E+00
  8.00000000E-01  8.00000000E-01  1.50000000E+00  1.50000000E+00  8.00000000E-01
  8.00000000E-01  1.50000000E+00  1.50000000E+00  8.00000000E-01  8.00000000E-01
  1.50000000E+00  1.50000000E+00  8.00000000E-01  8.00000000E-01  1.50000000E+00
  1.50000000E+00  8.00000000E-01  8.00000000E-01  1.50000000E+00  1.50000000E+00
  8.00000000E-01  8.00000000E-01  1.50000000E+00  1.50000000E+00  8.00000000E-01
  8.00000000E-01  1.50000000E+00  1.50000000E+00  8.00000000E-01  8.00000000E-01
  1.50000000E+00  1.50000000E+00  8.00000000E-01  8.00000000E-01  1.50000000E+00
  1.50000000E+00  8.00000000E-01  8.00000000E-01  1.50000000E+00  1.50000000E+00
  8.00000000E-01  8.00000000E-01  1.50000000E+00  1.50000000E+00  8.00000000E-01
  8.00000000E-01  1.50000000E+00  1.50000000E+00  8.00000000E-01  8.00000000E-01
  1.50000000E+00  1.50000000E+00  8.00000000E-01  8.00000000E-01  1.50000000E+00
  1.50000000E+00  8.00000000E-01  8.00000000E-01  1.50000000E+00  1.50000000E+00
  8.00000000E-01  8.00000000E-01  1.50000000E+00  1.50000000E+00  8.00000000E-01
  8.00000000E-01  1.50000000E+00  1.50000000E+00  8.00000000E-01  8.00000000E-01
  1.50000000E+00  1.50000000E+00  8.00000000E-01  8.00000000E-01  1.50000000E+00
  1.50000000E+00  8.00000000E-01  8.00000000E-01  1.50000000E+00  1.50000000E+00
  8.00000000E-01  8.00000000E-01  1.50000000E+00  1.50000000E+00  8.00000000E-01
  8.00000000E-01  1.50000000E+00  1.50000000E+00  8.00000000E-01  8.00000000E-01
  1.50000000E+00  1.50000000E+00  8.00000000E-01  8.00000000E-01  1.50000000E+00
  1.50000000E+00  8.00000000E-01  8.00000000E-01  1.50000000E+00  1.50000000E+00
  8.00000000E-01  8.00000000E-01  1.50000000E+00  1.50000000E+00  8.00000000E-01
  8.00000000E-01  1.50000000E+00  1.50000000E+00  8.00000000E-01  8.00000000E-01
  1.50000000E+00  1.50000000E+00  8.00000000E-01  8.00000000E-01  1.50000000E+00
  1.50000000E+00  8.00000000E-01  8.00000000E-01  1.50000000E+00  1.50000000E+00
  8.00000000E-01  8.00000000E-01  1.50000000E+00  1.50000000E+00  8.00000000E-01
  8.00000000E-01  1.50000000E+00  1.50000000E+00  8.00000000E-01  8.00000000E-01
  1.50000000E+00  1.50000000E+00  8.00000000E-01  8.00000000E-01  1.50000000E+00
  1.50000000E+00  8.00000000E-01  8.00000000E-01  1.50000000E+00  1.50000000E+00
  8.00000000E-01  8.00000000E-01  1.50000000E+00  1.50000000E+00  8.00000000E-01
  8.00000000E-01  1.50000000E+00  1.50000000E+00  8.00000000E-01  8.00000000E-01
  1.50000000E+00  1.50000000E+00  8.00000000E-01  8.00000000E-01  1.50000000E+00
  1.50000000E+00  8.00000000E-01  8.00000000E-01  1.50000000E+00  1.50000000E+00
  8.00000000E-01  8.00000000E-01  1.50000000E+00  1.50000000E+00  8.00000000E-01
  8.00000000E-01  1.50000000E+00  1.50000000E+00  8.00000000E-01  8.00000000E-01
  1.50000000E+00  1.50000000E+00  8.00000000E-01  8.00000000E-01  1.50000000E+00
  1.50000000E+00  8.00000000E-01  8.00000000E-01  1.50000000E+00  1.50000000E+00
  8.00000000E-01  8.00000000E-01  1.50000000E+00  1.50000000E+00  8.00000000E-01
  8.00000000E-01  1.50000000E+00  1.50000000E+00  8.00000000E-01  8.00000000E-01
  1.50000000E+00  1.50000000E+00  8.00000000E-01  8.00000000E-01  1.50000000E+00
  1.50000000E+00  8.00000000E-01  8.00000000E-01  1.50000000E+00  1.50000000E+00
  8.00000000E-01  8.00000000E-01  1.50000000E+00  1.50000000E+00  8.00000000E-01
  8.00000000E-01  1.50000000E+00  1.50000000E+00  8.00000000E-01  8.00000000E-01
  1.50000000E+00  1.50000000E+00  8.00000000E-01  8.00000000E-01  1.50000000E+00
  1.50000000E+00  8.00000000E-01  8.00000000E-01  1.50000000E+00  1.50000000E+00
  8.00000000E-01  8.00000000E-01  1.50000000E+00  1.50000000E+00  8.00000000E-01
  8.00000000E-01  1.50000000E+00  1.50000000E+00  8.00000000E-01  8.00000000E-01
  1.50000000E+00  1.50000000E+00  8.00000000E-01  8.00000000E-01  1.50000000E+00
  1.50000000E+00  8.00000000E-01  8.00000000E-01  1.50000000E+00  1.50000000E+00
  8.00000000E-01  8.00000000E-01  1.50000000E+00  1.50000000E+00  8.00000000E-01
  8.00000000E-01  1.50000000E+00  1.50000000E+00  8.00000000E-01  8.00000000E-01
  1.50000000E+00  1.50000000E+00  8.00000000E-01  8.00000000E-01  1.50000000E+00
  1.50000000E+00  8.00000000E-01  8.00000000E-01  1.50000000E+00  1.50000000E+00
  8.00000000E-01  8.00000000E-01  1.50000000E+00  1.50000000E+00  8.00000000E-01
  8.00000000E-01  1.50000000E+00  1.50000000E+00  8.00000000E-01  8.00000000E-01
  1.50000000E+00  1.50000000E+00  8.00000000E-01  8.00000000E-01  1.50000000E+00
  1.50000000E+00  8.00000000E-01  8.00000000E-01  1.50000000E+00  1.50000000E+00
  8.00000000E-01  8.00000000E-01  1.50000000E+00  1.50000000E+00  8.00000000E-01
  8.00000000E-01  1.50000000E+00  1.50000000E+00  8.00000000E-01  8.00000000E-01
  1.50000000E+00  1.50000000E+00  8.00000000E-01  8.00000000E-01  1.50000000E+00
  1.50000000E+00  8.00000000E-01  8.00000000E-01  1.50000000E+00  1.50000000E+00
  8.00000000E-01  8.00000000E-01  1.50000000E+00  1.50000000E+00  8.00000000E-01
  8.00000000E-01  1.50000000E+00  1.50000000E+00  8.00000000E-01  8.00000000E-01
  1.50000000E+00  1.50000000E+00  8.00000000E-01  8.00000000E-01  1.50000000E+00
  1.50000000E+00  8.00000000E-01  8.00000000E-01  1.50000000E+00  1.50000000E+00
  8.00000000E-01  8.00000000E-01  1.50000000E+00  1.50000000E+00  8.00000000E-01
  8.00000000E-01  1.50000000E+00  1.50000000E+00  8.00000000E-01  8.00000000E-01
  1.50000000E+00  1.50000000E+00  8.00000000E-01  8.00000000E-01  1.50000000E+00
  1.50000000E+00  8.00000000E-01  8.00000000E-01  1.50000000E+00  1.50000000E+00
  8.00000000E-01  8.00000000E-01  1.50000000E+00  1.50000000E+00  8.00000000E-01
  8.00000000E-01  1.50000000E+00  1.50000000E+00  8.00000000E-01  8.00000000E-01
  1.50000000E+00  1.50000000E+00  8.00000000E-01  8.00000000E-01  1.50000000E+00
  1.50000000E+00  8.00000000E-01  8.00000000E-01  1.50000000E+00  1.50000000E+00
  8.00000000E-01  8.00000000E-01  1.50000000E+00  1.50000000E+00  8.00000000E-01
  8.00000000E-01  1.50000000E+00  1.50000000E+00  8.00000000E-01  8.00000000E-01
  1.50000000E+00  1.50000000E+00  8.00000000E-01  8.00000000E-01  1.50000000E+00
  1.50000000E+00  8.00000000E-01  8.00000000E-01  1.50000000E+00  1.50000000E+00
  8.00000000E-01  8.00000000E-01  1.50000000E+00  1.50000000E+00  8.00000000E-01
  8.00000000E-01  1.50000000E+00  1.50000000E+00  8.00000000E-01  8.00000000E-01
  1.50000000E+00  1.50000000E+00  8.00000000E-01  8.00000000E-01  1.50000000E+00
  1.50000000E+00  8.00000000E-01  8.00000000E-01  1.50000000E+00  1.50000000E+00
  8.00000000E-01  8.00000000E-01  1.50000000E+00  1.50000000E+00  8.00000000E-01
  8.00000000E-01  1.50000000E+00  1.50000000E+00  8.00000000E-01  8.00000000E-01
  1.50000000E+00  1.50000000E+00  8.00000000E-01  8.00000000E-01  1.50000000E+00
  1.50000000E+00  8.00000000E-01  8.00000000E-01  1.50000000E+00  1.50000000E+00
  8.00000000E-01  8.00000000E-01  1.50000000E+00  1.50000000E+00  8.00000000E-01
  8.00000000E-01  1.50000000E+00  1.50000000E+00  8.00000000E-01  8.00000000E-01
  1.50000000E+00  1.50000000E+00  8.00000000E-01  8.00000000E-01  1.50000000E+00
  1.50000000E+00  8.00000000E-01  8.00000000E-01  1.50000000E+00  1.50000000E+00
  8.00000000E-01  8.00000000E-01  1.50000000E+00  1.50000000E+00  8.00000000E-01
  8.00000000E-01  1.50000000E+00  1.50000000E+00  8.00000000E-01  8.00000000E-01
  1.50000000E+00  1.50000000E+00  8.00000000E-01  8.00000000E-01  1.50000000E+00
  1.50000000E+00  8.00000000E-01  8.00000000E-01  1.50000000E+00  1.50000000E+00
  8.00000000E-01  8.00000000E-01  1.50000000E+00  1.50000000E+00  8.00000000E-01
  8.00000000E-01  1.50000000E+00  1.50000000E+00  8.00000000E-01  8.00000000E-01
  1.50000000E+00  1.50000000E+00  8.00000000E-01  8.00000000E-01  1.50000000E+00
  1.50000000E+00  8.00000000E-01  8.00000000E-01  1.50000000E+00  1.50000000E+00
  8.00000000E-01  8.00000000E-01  1.50000000E+00  1.50000000E+00  8.00000000E-01
  8.00000000E-01  1.50000000E+00  1.50000000E+00  8.00000000E-01  8.00000000E-01
  1.50000000E+00  1.50000000E+00  8.00000000E-01  8.00000000E-01  1.50000000E+00
  1.50000000E+00  8.00000000E-01  8.00000000E-01  1.50000000E+00  1.50000000E+00
  8.00000000E-01  8.00000000E-01  1.50000000E+00  1.50000000E+00  8.00000000E-01
  8.00000000E-01  1.50000000E+00  1.50000000E+00  8.00000000E-01  8.00000000E-01
  1.50000000E+00  1.50000000E+00  8.00000000E-01  8.00000000E-01  1.50000000E+00
  1.50000000E+00  8.00000000E-01  8.00000000E-01  1.50000000E+00  1.50000000E+00
  8.00000000E-01  8.00000000E-01  1.50000000E+00  1.50000000E+00  8.00000000E-01
  8.00000000E-01  1.50000000E+00  1.50000000E+00  8.00000000E-01  8.00000000E-01
  1.50000000E+00  1.50000000E+00  8.00000000E-01  8.00000000E-01  1.50000000E+00
  1.50000000E+00  8.00000000E-01  8.00000000E-01  1.50000000E+00  1.50000000E+00
  8.00000000E-01  8.00000000E-01  1.50000000E+00  1.50000000E+00  8.00000000E-01
  8.00000000E-01  1.50000000E+00  1.50000000E+00  8.00000000E-01  8.00000000E-01
  1.50000000E+00  1.50000000E+00  8.00000000E-01  8.00000000E-01  1.50000000E+00
  1.50000000E+00  8.00000000E-01  8.00000000E-01  1.50000000E+00  1.50000000E+00
  8.00000000E-01  8.00000000E-01  1.50000000E+00  1.50000000E+00  8.00000000E-01
  8.00000000E-01  1.50000000E+00  1.50000000E+00  8.00000000E-01  8.00000000E-01
  1.50000000E+00  1.50000000E+00  8.00000000E-01  8.00000000E-01  1.50000000E+00
  1.50000000E+00  8.00000000E-01  8.00000000E-01  1.50000000E+00  1.50000000E+00
  8.00000000E-01  8.00000000E-01  1.50000000E+00  1.50000000E+00  8.00000000E-01
  8.00000000E-01  1.50000000E+00  1.50000000E+00  8.00000000E-01  8.00000000E-01
  1.50000000E+00  1.50000000E+00  8.00000000E-01  8.00000000E-01  1.50000000E+00
  1.50000000E+00  8.00000000E-01  8.00000000E-01  1.50000000E+00  1.50000000E+00
  8.00000000E-01  8.00000000E-01  1.50000000E+00  1.50000000E+00  8.00000000E-01
  8.00000000E-01  1.50000000E+00  1.50000000E+00  8.00000000E-01  8.00000000E-01
  1.50000000E+00  1.50000000E+00  8.00000000E-01  8.00000000E-01  1.50000000E+00
  1.50000000E+00  8.00000000E-01  8.00000000E-01  1.50000000E+00  1.50000000E+00
  8.00000000E-01  8.00000000E-01  1.50000000E+00  1.50000000E+00  8.00000000E-01
  8.00000000E-01  1.50000000E+00  1.50000000E+00  8.00000000E-01  8.00000000E-01
  1.50000000E+00  1.50000000E+00  8.00000000E-01  8.00000000E-01  1.50000000E+00
  1.50000000E+00  8.00000000E-01  8.00000000E-01  1.50000000E+00  1.50000000E+00
  8.00000000E-01  8.00000000E-01  1.50000000E+00  1.50000000E+00  8.00000000E-01
  8.00000000E-01  1.50000000E+00  1.50000000E+00  8.00000000E-01  8.00000000E-01
  1.50000000E+00  1.50000000E+00  8.00000000E-01  8.00000000E-01  1.50000000E+00
  1.50000000E+00  8.00000000E-01  8.00000000E-01  1.50000000E+00  1.50000000E+00
  8.00000000E-01  8.00000000E-01  1.50000000E+00  1.50000000E+00  8.00000000E-01
  8.00000000E-01  1.50000000E+00  1.50000000E+00  8.00000000E-01  8.00000000E-01
  1.50000000E+00  1.50000000E+00  8.00000000E-01  8.00000000E-01  1.50000000E+00
  1.50000000E+00  8.00000000E-01  8.00000000E-01  1.50000000E+00  1.50000000E+00
  8.00000000E-01  8.00000000E-01  1.50000000E+00  1.50000000E+00  8.00000000E-01
  8.00000000E-01  1.50000000E+00  1.50000000E+00  8.00000000E-01  8.00000000E-01
  1.50000000E+00  1.50000000E+00  8.00000000E-01  8.00000000E-01  1.50000000E+00
  1.50000000E+00  8.00000000E-01  8.00000000E-01  1.50000000E+00  1.50000000E+00
  8.00000000E-01  8.00000000E-01  1.50000000E+00  1.50000000E+00  8.00000000E-01
  8.00000000E-01  1.50000000E+00  1.50000000E+00  8.00000000E-01  8.00000000E-01
  1.50000000E+00  1.50000000E+00  8.00000000E-01  8.00000000E-01  1.50000000E+00
  1.50000000E+00  8.00000000E-01  8.00000000E-01  1.50000000E+00  1.50000000E+00
  8.00000000E-01  8.00000000E-01  1.50000000E+00  1.50000000E+00  8.00000000E-01
  8.00000000E-01  1.50000000E+00  1.50000000E+00  8.00000000E-01  8.00000000E-01
  1.50000000E+00  1.50000000E+00  8.00000000E-01  8.00000000E-01  1.50000000E+00
  1.50000000E+00  8.00000000E-01  8.00000000E-01  1.50000000E+00  1.50000000E+00
  8.00000000E-01  8.00000000E-01  1.50000000E+00  1.50000000E+00  8.00000000E-01
  8.00000000E-01  1.50000000E+00  1.50000000E+00  8.00000000E-01  8.00000000E-01
  1.50000000E+00  1.50000000E+00  8.00000000E-01  8.00000000E-01  1.50000000E+00
  1.50000000E+00  8.00000000E-01  8.00000000E-01  1.50000000E+00  1.50000000E+00
  8.00000000E-01  8.00000000E-01  1.50000000E+00  1.50000000E+00  8.00000000E-01
  8.00000000E-01  1.50000000E+00  1.50000000E+00  8.00000000E-01  8.00000000E-01
  1.50000000E+00  1.50000000E+00  8.00000000E-01  8.00000000E-01  1.50000000E+00
  1.50000000E+00  8.00000000E-01  8.00000000E-01  1.50000000E+00  1.50000000E+00
  8.00000000E-01  8.00000000E-01  1.50000000E+00  1.50000000E+00  8.00000000E-01
  8.00000000E-01  1.50000000E+00  1.50000000E+00  8.00000000E-01  8.00000000E-01
  1.50000000E+00  1.50000000E+00  8.00000000E-01  8.00000000E-01  1.50000000E+00
  1.50000000E+00  8.00000000E-01  8.00000000E-01  1.50000000E+00  1.50000000E+00
  8.00000000E-01  8.00000000E-01  1.50000000E+00  1.50000000E+00  8.00000000E-01
  8.00000000E-01  1.50000000E+00  1.50000000E+00  8.00000000E-01  8.00000000E-01
  1.50000000E+00  1.50000000E+00  8.00000000E-01  8.00000000E-01  1.50000000E+00
  1.50000000E+00  8.00000000E-01  8.00000000E-01  1.50000000E+00  1.50000000E+00
  8.00000000E-01  8.00000000E-01  1.50000000E+00  1.50000000E+00  8.00000000E-01
  8.00000000E-01  1.50000000E+00  1.50000000E+00  8.00000000E-01  8.00000000E-01
  1.50000000E+00  1.50000000E+00  8.00000000E-01  8.00000000E-01  1.50000000E+00
  1.50000000E+00  8.00000000E-01  8.00000000E-01  1.50000000E+00  1.50000000E+00
  8.00000000E-01  8.00000000E-01  1.50000000E+00  1.50000000E+00  8.00000000E-01
  8.00000000E-01  1.50000000E+00  1.50000000E+00  8.00000000E-01  8.00000000E-01
  1.50000000E+00  1.50000000E+00  8.00000000E-01  8.00000000E-01  1.50000000E+00
  1.50000000E+00  8.00000000E-01  8.00000000E-01  1.50000000E+00  1.50000000E+00
  8.00000000E-01  8.00000000E-01  1.50000000E+00  1.50000000E+00  8.00000000E-01
  8.00000000E-01  1.50000000E+00  1.50000000E+00  8.00000000E-01  8.00000000E-01
  1.50000000E+00  1.50000000E+00  8.00000000E-01  8.00000000E-01  1.50000000E+00
  1.50000000E+00  8.00000000E-01  8.00000000E-01  1.50000000E+00  1.50000000E+00
  8.00000000E-01  8.00000000E-01  1.50000000E+00  1.50000000E+00  8.00000000E-01
  8.00000000E-01  1.50000000E+00  1.50000000E+00  8.00000000E-01  8.00000000E-01
  1.50000000E+00  1.50000000E+00  8.00000000E-01  8.00000000E-01  1.50000000E+00
  1.50000000E+00  8.00000000E-01  8.00000000E-01  1.50000000E+00  1.50000000E+00
  8.00000000E-01  8.00000000E-01  1.50000000E+00  1.50000000E+00  8.00000000E-01
  8.00000000E-01  1.50000000E+00  1.50000000E+00  8.00000000E-01  8.00000000E-01
  1.50000000E+00  1.50000000E+00  8.00000000E-01  8.00000000E-01  1.50000000E+00
  1.50000000E+00  8.00000000E-01  8.00000000E-01  1.50000000E+00  1.50000000E+00
  8.00000000E-01  8.00000000E-01  1.50000000E+00  1.50000000E+00  8.00000000E-01
  8.00000000E-01  1.50000000E+00  1.50000000E+00  8.00000000E-01  8.00000000E-01
  1.50000000E+00  1.50000000E+00  8.00000000E-01  8.00000000E-01  1.50000000E+00
  1.50000000E+00  8.00000000E-01  8.00000000E-01  1.50000000E+00  1.50000000E+00
  8.00000000E-01  8.00000000E-01  1.50000000E+00  1.50000000E+00  8.00000000E-01
  8.00000000E-01  1.50000000E+00  1.50000000E+00  8.00000000E-01  8.00000000E-01
  1.50000000E+00  1.50000000E+00  8.00000000E-01  8.00000000E-01  1.50000000E+00
  1.50000000E+00  8.00000000E-01  8.00000000E-01  1.50000000E+00  1.50000000E+00
  8.00000000E-01  8.00000000E-01  1.50000000E+00  1.50000000E+00  8.00000000E-01
  8.00000000E-01  1.50000000E+00  1.50000000E+00  8.00000000E-01  8.00000000E-01
  1.50000000E+00  1.50000000E+00  8.00000000E-01  8.00000000E-01  1.50000000E+00
  1.50000000E+00  8.00000000E-01  8.00000000E-01  1.50000000E+00  1.50000000E+00
  8.00000000E-01  8.00000000E-01  1.50000000E+00  1.50000000E+00  8.00000000E-01
  8.00000000E-01  1.50000000E+00  1.50000000E+00  8.00000000E-01  8.00000000E-01
  1.50000000E+00  1.50000000E+00  8.00000000E-01  8.00000000E-01  1.50000000E+00
  1.50000000E+00  8.00000000E-01  8.00000000E-01  1.50000000E+00  1.50000000E+00
  8.00000000E-01  8.00000000E-01  1.50000000E+00  1.50000000E+00  8.00000000E-01
  8.00000000E-01  1.50000000E+00  1.50000000E+00  8.00000000E-01  8.00000000E-01
  1.50000000E+00  1.50000000E+00  8.00000000E-01  8.00000000E-01  1.50000000E+00
  1.50000000E+00  8.00000000E-01  8.00000000E-01  1.50000000E+00  1.50000000E+00
  8.00000000E-01  8.00000000E-01  1.50000000E+00  1.50000000E+00  8.00000000E-01
  8.00000000E-01  1.50000000E+00  1.50000000E+00  8.00000000E-01  8.00000000E-01
  1.50000000E+00  1.50000000E+00  8.00000000E-01  8.00000000E-01  1.50000000E+00
  1.50000000E+00  8.00000000E-01  8.00000000E-01  1.50000000E+00  1.50000000E+00
  8.00000000E-01  8.00000000E-01  1.50000000E+00  1.50000000E+00  8.00000000E-01
  8.00000000E-01  1.50000000E+00  1.50000000E+00  8.00000000E-01  8.00000000E-01
  1.50000000E+00  1.50000000E+00  8.00000000E-01  8.00000000E-01  1.50000000E+00
  1.50000000E+00  8.00000000E-01  8.00000000E-01  1.50000000E+00  1.50000000E+00
  8.00000000E-01  8.00000000E-01  1.50000000E+00  1.50000000E+00  8.00000000E-01
  8.00000000E-01  1.50000000E+00  1.50000000E+00  8.00000000E-01  8.00000000E-01
  1.50000000E+00  1.50000000E+00  8.00000000E-01  8.00000000E-01  1.50000000E+00
  1.50000000E+00  8.00000000E-01  8.00000000E-01  1.50000000E+00  1.50000000E+00
  8.00000000E-01  8.00000000E-01  1.50000000E+00  1.50000000E+00  8.00000000E-01
  8.00000000E-01  1.50000000E+00  1.50000000E+00  8.00000000E-01  8.00000000E-01
  1.50000000E+00  1.50000000E+00  8.00000000E-01  8.00000000E-01  1.50000000E+00
  1.50000000E+00  8.00000000E-01  8.00000000E-01  1.50000000E+00  1.50000000E+00
  8.00000000E-01  8.00000000E-01  1.50000000E+00  1.50000000E+00  8.00000000E-01
  8.00000000E-01  1.50000000E+00  1.50000000E+00  8.00000000E-01  8.00000000E-01
  1.50000000E+00  1.50000000E+00  8.00000000E-01  8.00000000E-01  1.50000000E+00
  1.50000000E+00  8.00000000E-01  8.00000000E-01  1.50000000E+00  1.50000000E+00
  8.00000000E-01  8.00000000E-01  1.50000000E+00  1.50000000E+00  8.00000000E-01
  8.00000000E-01  1.50000000E+00  1.50000000E+00  8.00000000E-01  8.00000000E-01
  1.50000000E+00  1.50000000E+00  8.00000000E-01  8.00000000E-01  1.50000000E+00
  1.50000000E+00  8.00000000E-01  8.00000000E-01  1.50000000E+00  1.50000000E+00
  8.00000000E-01  8.00000000E-01  1.50000000E+00  1.50000000E+00  8.00000000E-01
  8.00000000E-01  1.50000000E+00  1.50000000E+00  8.00000000E-01  8.00000000E-01
  1.50000000E+00  1.50000000E+00  8.00000000E-01  8.00000000E-01  1.50000000E+00
  1.50000000E+00  8.00000000E-01  8.00000000E-01  1.50000000E+00  1.50000000E+00
  8.00000000E-01  8.00000000E-01  1.50000000E+00  1.50000000E+00  8.00000000E-01
  8.00000000E-01  1.50000000E+00  1.50000000E+00  8.00000000E-01  8.00000000E-01
  1.50000000E+00  1.50000000E+00  8.00000000E-01  8.00000000E-01  1.50000000E+00
  1.50000000E+00  8.00000000E-01  8.00000000E-01  1.50000000E+00  1.50000000E+00
  8.00000000E-01  8.00000000E-01  1.50000000E+00  1.50000000E+00  8.00000000E-01
  8.00000000E-01  1.50000000E+00  1.50000000E+00  8.00000000E-01  8.00000000E-01
  1.50000000E+00  1.50000000E+00  8.00000000E-01  8.00000000E-01  1.50000000E+00
  1.50000000E+00  8.00000000E-01  8.00000000E-01  1.50000000E+00  1.50000000E+00
  8.00000000E-01  8.00000000E-01  1.50000000E+00  1.50000000E+00  8.00000000E-01
  8.00000000E-01  1.50000000E+00  1.50000000E+00  8.00000000E-01  8.00000000E-01
  1.50000000E+00  1.50000000E+00  8.00000000E-01  8.00000000E-01  1.50000000E+00
  1.50000000E+00  8.00000000E-01  8.00000000E-01  1.50000000E+00  1.50000000E+00
  8.00000000E-01  8.00000000E-01  1.50000000E+00  1.50000000E+00  8.00000000E-01
  8.00000000E-01  1.50000000E+00  1.50000000E+00  8.00000000E-01  8.00000000E-01
  1.50000000E+00  1.50000000E+00  8.00000000E-01  8.00000000E-01  1.50000000E+00
  1.50000000E+00  8.00000000E-01  8.00000000E-01  1.50000000E+00  1.50000000E+00
  8.00000000E-01  8.00000000E-01  1.50000000E+00  1.50000000E+00  8.00000000E-01
  8.00000000E-01  1.50000000E+00  1.50000000E+00  8.00000000E-01  8.00000000E-01
  1.50000000E+00  1.50000000E+00  8.00000000E-01  8.00000000E-01  1.50000000E+00
  1.50000000E+00  8.00000000E-01  8.00000000E-01  1.50000000E+00  1.50000000E+00
  8.00000000E-01  8.00000000E-01  1.50000000E+00  1.50000000E+00  8.00000000E-01
  8.00000000E-01  1.50000000E+00  1.50000000E+00  8.00000000E-01  8.00000000E-01
  1.50000000E+00  1.50000000E+00  8.00000000E-01  8.00000000E-01  1.50000000E+00
  1.50000000E+00  8.00000000E-01  8.00000000E-01  1.50000000E+00  1.50000000E+00
  8.00000000E-01  8.00000000E-01  1.50000000E+00  1.50000000E+00  8.00000000E-01
  8.00000000E-01  1.50000000E+00  1.50000000E+00  8.00000000E-01  8.00000000E-01
  1.50000000E+00  1.50000000E+00  8.00000000E-01  8.00000000E-01  1.50000000E+00
  1.50000000E+00  8.00000000E-01  8.00000000E-01  1.50000000E+00  1.50000000E+00
  8.00000000E-01  8.00000000E-01  1.50000000E+00  1.50000000E+00  8.00000000E-01
  8.00000000E-01  1.50000000E+00  1.50000000E+00  8.00000000E-01  8.00000000E-01
  1.50000000E+00  1.50000000E+00  8.00000000E-01  8.00000000E-01  1.50000000E+00
  1.50000000E+00  8.00000000E-01  8.00000000E-01  1.50000000E+00  1.50000000E+00
  8.00000000E-01  8.00000000E-01  1.50000000E+00  1.50000000E+00  8.00000000E-01
  8.00000000E-01  1.50000000E+00  1.50000000E+00  8.00000000E-01  8.00000000E-01
  1.50000000E+00  1.50000000E+00  8.00000000E-01  8.00000000E-01  1.50000000E+00
  1.50000000E+00  8.00000000E-01  8.00000000E-01  1.50000000E+00  1.50000000E+00
  8.00000000E-01  8.00000000E-01  1.50000000E+00  1.50000000E+00  8.00000000E-01
  8.00000000E-01  1.50000000E+00  1.50000000E+00  8.00000000E-01  8.00000000E-01
  1.50000000E+00  1.50000000E+00  8.00000000E-01  8.00000000E-01  1.50000000E+00
  1.50000000E+00  8.00000000E-01  8.00000000E-01  1.50000000E+00  1.50000000E+00
  8.00000000E-01  8.00000000E-01  1.50000000E+00  1.50000000E+00  8.00000000E-01
  8.00000000E-01  1.50000000E+00  1.50000000E+00  8.00000000E-01  8.00000000E-01
  1.50000000E+00  1.50000000E+00  8.00000000E-01  8.00000000E-01  1.50000000E+00
  1.50000000E+00  8.00000000E-01  8.00000000E-01  1.50000000E+00  1.50000000E+00
  8.00000000E-01  8.00000000E-01  1.50000000E+00  1.50000000E+00  8.00000000E-01
  8.00000000E-01  1.50000000E+00  1.50000000E+00  8.00000000E-01  8.00000000E-01
  1.50000000E+00  1.50000000E+00  8.00000000E-01  8.00000000E-01  1.50000000E+00
  1.50000000E+00  8.00000000E-01  8.00000000E-01  1.50000000E+00  1.50000000E+00
  8.00000000E-01  8.00000000E-01  1.50000000E+00  1.50000000E+00  8.00000000E-01
  8.00000000E-01  1.50000000E+00  1.50000000E+00  8.00000000E-01  8.00000000E-01
  1.50000000E+00  1.50000000E+00  8.00000000E-01  8.00000000E-01  1.50000000E+00
  1.50000000E+00  8.00000000E-01  8.00000000E-01  1.50000000E+00  1.50000000E+00
  8.00000000E-01  8.00000000E-01  1.50000000E+00  1.50000000E+00  8.00000000E-01
  8.00000000E-01  1.50000000E+00  1.50000000E+00  8.00000000E-01  8.00000000E-01
  1.50000000E+00  1.50000000E+00  8.00000000E-01  8.00000000E-01  1.50000000E+00
  1.50000000E+00  8.00000000E-01  8.00000000E-01  1.50000000E+00  1.50000000E+00
  8.00000000E-01  8.00000000E-01  1.50000000E+00  1.50000000E+00  8.00000000E-01
  8.00000000E-01  1.50000000E+00  1.50000000E+00  8.00000000E-01  8.00000000E-01
  1.50000000E+00  1.50000000E+00  8.00000000E-01  8.00000000E-01  1.50000000E+00
  1.50000000E+00  8.00000000E-01  8.00000000E-01  1.50000000E+00  1.50000000E+00
  8.00000000E-01  8.00000000E-01  1.50000000E+00  1.50000000E+00  8.00000000E-01
  8.00000000E-01  1.50000000E+00  1.50000000E+00  8.00000000E-01  8.00000000E-01
  1.50000000E+00  1.50000000E+00  8.00000000E-01  8.00000000E-01  1.50000000E+00
  1.50000000E+00  8.00000000E-01  8.00000000E-01  1.50000000E+00  1.50000000E+00
  8.00000000E-01  8.00000000E-01  1.50000000E+00  1.50000000E+00  8.00000000E-01
  8.00000000E-01  1.50000000E+00  1.50000000E+00  8.00000000E-01  8.00000000E-01
  1.50000000E+00  1.50000000E+00  8.00000000E-01  8.00000000E-01  1.50000000E+00
  1.50000000E+00  8.00000000E-01  8.00000000E-01  1.50000000E+00  1.50000000E+00
  8.00000000E-01  8.00000000E-01  1.50000000E+00  1.50000000E+00  8.00000000E-01
  8.00000000E-01  1.50000000E+00  1.50000000E+00  8.00000000E-01  8.00000000E-01
  1.50000000E+00  1.50000000E+00  8.00000000E-01  8.00000000E-01  1.50000000E+00
  1.50000000E+00  8.00000000E-01  8.00000000E-01  1.50000000E+00  1.50000000E+00
  8.00000000E-01  8.00000000E-01  1.50000000E+00  1.50000000E+00  8.00000000E-01
  8.00000000E-01  1.50000000E+00  1.50000000E+00  8.00000000E-01  8.00000000E-01
  1.50000000E+00  1.50000000E+00  8.00000000E-01  8.00000000E-01  1.50000000E+00
  1.50000000E+00  8.00000000E-01  8.00000000E-01  1.50000000E+00  1.50000000E+00
  8.00000000E-01  8.00000000E-01  1.50000000E+00  1.50000000E+00  8.00000000E-01
  8.00000000E-01  1.50000000E+00  1.50000000E+00  8.00000000E-01  8.00000000E-01
  1.50000000E+00  1.50000000E+00  8.00000000E-01  8.00000000E-01  1.50000000E+00
  1.50000000E+00  8.00000000E-01  8.00000000E-01  1.50000000E+00  1.50000000E+00
  8.00000000E-01  8.00000000E-01  1.50000000E+00  1.50000000E+00  8.00000000E-01
  8.00000000E-01  1.50000000E+00  1.50000000E+00  8.00000000E-01  8.00000000E-01
  1.50000000E+00  1.50000000E+00  8.00000000E-01  8.00000000E-01  1.50000000E+00
  1.50000000E+00  8.00000000E-01  8.00000000E-01  1.50000000E+00  1.50000000E+00
  8.00000000E-01  8.00000000E-01  1.50000000E+00  1.50000000E+00  8.00000000E-01
  8.00000000E-01  1.50000000E+00  1.50000000E+00  8.00000000E-01  8.00000000E-01
  1.50000000E+00  1.50000000E+00  8.00000000E-01  8.00000000E-01  1.50000000E+00
  1.50000000E+00  8.00000000E-01  8.00000000E-01  1.50000000E+00  1.50000000E+00
  8.00000000E-01  8.00000000E-01  1.50000000E+00  1.50000000E+00  8.00000000E-01
  8.00000000E-01  1.50000000E+00  1.50000000E+00  8.00000000E-01  8.00000000E-01
  1.50000000E+00  1.50000000E+00  8.00000000E-01  8.00000000E-01  1.50000000E+00
  1.50000000E+00  8.00000000E-01  8.00000000E-01  1.50000000E+00  1.50000000E+00
  8.00000000E-01  8.00000000E-01  1.50000000E+00  1.50000000E+00  8.00000000E-01
  8.00000000E-01  1.50000000E+00  1.50000000E+00  8.00000000E-01  8.00000000E-01
  1.50000000E+00  1.50000000E+00  8.00000000E-01  8.00000000E-01  1.50000000E+00
  1.50000000E+00  8.00000000E-01  8.00000000E-01  1.50000000E+00  1.50000000E+00
  8.00000000E-01  8.00000000E-01  1.50000000E+00  1.50000000E+00  8.00000000E-01
  8.00000000E-01  1.50000000E+00  1.50000000E+00  8.00000000E-01  8.00000000E-01
  1.50000000E+00  1.50000000E+00  8.00000000E-01  8.00000000E-01  1.50000000E+00
  1.50000000E+00  8.00000000E-01  8.00000000E-01  1.50000000E+00  1.50000000E+00
  8.00000000E-01  8.00000000E-01  1.50000000E+00  1.50000000E+00  8.00000000E-01
  8.00000000E-01  1.50000000E+00  1.50000000E+00  8.00000000E-01  8.00000000E-01
  1.50000000E+00  1.50000000E+00  8.00000000E-01  8.00000000E-01  1.50000000E+00
  1.50000000E+00  8.00000000E-01  8.00000000E-01  1.50000000E+00  1.50000000E+00
  8.00000000E-01  8.00000000E-01  1.50000000E+00  1.50000000E+00  8.00000000E-01
  8.00000000E-01  1.50000000E+00  1.50000000E+00  8.00000000E-01  8.00000000E-01
  1.50000000E+00  1.50000000E+00  8.00000000E-01  8.00000000E-01  1.50000000E+00
  1.50000000E+00  8.00000000E-01  8.00000000E-01  1.50000000E+00  1.50000000E+00
  8.00000000E-01  8.00000000E-01  1.50000000E+00  1.50000000E+00  8.00000000E-01
  8.00000000E-01  1.50000000E+00  1.50000000E+00  8.00000000E-01  8.00000000E-01
  1.50000000E+00  1.50000000E+00  8.00000000E-01  8.00000000E-01  1.50000000E+00
  1.50000000E+00  8.00000000E-01  8.00000000E-01  1.50000000E+00  1.50000000E+00
  8.00000000E-01  8.00000000E-01  1.50000000E+00  1.50000000E+00  8.00000000E-01
  8.00000000E-01  1.50000000E+00  1.50000000E+00  8.00000000E-01  8.00000000E-01
  1.50000000E+00  1.50000000E+00  8.00000000E-01  8.00000000E-01  1.50000000E+00
  1.50000000E+00  8.00000000E-01  8.00000000E-01  1.50000000E+00  1.50000000E+00
  8.00000000E-01  8.00000000E-01  1.50000000E+00  1.50000000E+00  8.00000000E-01
  8.00000000E-01  1.50000000E+00  1.50000000E+00  8.00000000E-01  8.00000000E-01
  1.50000000E+00  1.50000000E+00  8.00000000E-01  8.00000000E-01  1.50000000E+00
  1.50000000E+00  8.00000000E-01  8.00000000E-01  1.50000000E+00  1.50000000E+00
  8.00000000E-01  8.00000000E-01  1.50000000E+00  1.50000000E+00  8.00000000E-01
  8.00000000E-01  1.50000000E+00  1.50000000E+00  8.00000000E-01  8.00000000E-01
  1.50000000E+00  1.50000000E+00  8.00000000E-01  8.00000000E-01  1.50000000E+00
  1.50000000E+00  8.00000000E-01  8.00000000E-01  1.50000000E+00  1.50000000E+00
  8.00000000E-01  8.00000000E-01  1.50000000E+00  1.50000000E+00  8.00000000E-01
  8.00000000E-01  1.50000000E+00  1.50000000E+00  8.00000000E-01  8.00000000E-01
  1.50000000E+00  1.50000000E+00  8.00000000E-01  8.00000000E-01  1.50000000E+00
  1.50000000E+00  8.00000000E-01  8.00000000E-01  1.50000000E+00  1.50000000E+00
  8.00000000E-01  8.00000000E-01  1.50000000E+00  1.50000000E+00  8.00000000E-01
  8.00000000E-01  1.50000000E+00  1.50000000E+00  8.00000000E-01  8.00000000E-01
  1.50000000E+00  1.50000000E+00  8.00000000E-01  8.00000000E-01  1.50000000E+00
  1.50000000E+00  8.00000000E-01  8.00000000E-01  1.50000000E+00  1.50000000E+00
  8.00000000E-01  8.00000000E-01  1.50000000E+00  1.50000000E+00  8.00000000E-01
  8.00000000E-01  1.50000000E+00  1.50000000E+00  8.00000000E-01  8.00000000E-01
  1.50000000E+00  1.50000000E+00  8.00000000E-01  8.00000000E-01  1.50000000E+00
  1.50000000E+00  8.00000000E-01  8.00000000E-01  1.50000000E+00  1.50000000E+00
  8.00000000E-01  8.00000000E-01  1.50000000E+00  1.50000000E+00  8.00000000E-01
  8.00000000E-01  1.50000000E+00  1.50000000E+00  8.00000000E-01  8.00000000E-01
  1.50000000E+00  1.50000000E+00  8.00000000E-01  8.00000000E-01  1.50000000E+00
  1.50000000E+00  8.00000000E-01  8.00000000E-01  1.50000000E+00  1.50000000E+00
  8.00000000E-01  8.00000000E-01  1.50000000E+00  1.50000000E+00  8.00000000E-01
  8.00000000E-01  1.50000000E+00  1.50000000E+00  8.00000000E-01  8.00000000E-01
  1.50000000E+00  1.50000000E+00  8.00000000E-01  8.00000000E-01  1.50000000E+00
  1.50000000E+00  8.00000000E-01  8.00000000E-01  1.50000000E+00  1.50000000E+00
  8.00000000E-01  8.00000000E-01  1.50000000E+00  1.50000000E+00  8.00000000E-01
  8.00000000E-01  1.50000000E+00  1.50000000E+00  8.00000000E-01  8.00000000E-01
  1.50000000E+00  1.50000000E+00  8.00000000E-01  8.00000000E-01  1.50000000E+00
  1.50000000E+00  8.00000000E-01  8.00000000E-01  1.50000000E+00  1.50000000E+00
  8.00000000E-01  8.00000000E-01  1.50000000E+00  1.50000000E+00  8.00000000E-01
  8.00000000E-01  1.50000000E+00  1.50000000E+00  8.00000000E-01  8.00000000E-01
  1.50000000E+00  1.50000000E+00  8.00000000E-01  8.00000000E-01  1.50000000E+00
  1.50000000E+00  8.00000000E-01  8.00000000E-01  1.50000000E+00  1.50000000E+00
  8.00000000E-01  8.00000000E-01  1.50000000E+00  1.50000000E+00  8.00000000E-01
  8.00000000E-01  1.50000000E+00  1.50000000E+00  8.00000000E-01  8.00000000E-01
  1.50000000E+00  1.50000000E+00  8.00000000E-01  8.00000000E-01  1.50000000E+00
  1.50000000E+00  8.00000000E-01  8.00000000E-01  1.50000000E+00  1.50000000E+00
  8.00000000E-01  8.00000000E-01  1.50000000E+00  1.50000000E+00  8.00000000E-01
  8.00000000E-01  1.50000000E+00  1.50000000E+00  8.00000000E-01  8.00000000E-01
  1.50000000E+00  1.50000000E+00  8.00000000E-01  8.00000000E-01  1.50000000E+00
  1.50000000E+00  8.00000000E-01  8.00000000E-01  1.50000000E+00  1.50000000E+00
  8.00000000E-01  8.00000000E-01  1.50000000E+00  1.50000000E+00  8.00000000E-01
  8.00000000E-01  1.50000000E+00  1.50000000E+00  8.00000000E-01  8.00000000E-01
  1.50000000E+00  1.50000000E+00  8.00000000E-01  8.00000000E-01  1.50000000E+00
  1.50000000E+00  8.00000000E-01  8.00000000E-01  1.50000000E+00  1.50000000E+00
  8.00000000E-01  8.00000000E-01  1.50000000E+00  1.50000000E+00  8.00000000E-01
  8.00000000E-01  1.50000000E+00  1.50000000E+00  8.00000000E-01  8.00000000E-01
  1.50000000E+00  1.50000000E+00  8.00000000E-01  8.00000000E-01  1.50000000E+00
  1.50000000E+00  8.00000000E-01  8.00000000E-01  1.50000000E+00  1.50000000E+00
  8.00000000E-01  8.00000000E-01  1.50000000E+00  1.50000000E+00  8.00000000E-01
  8.00000000E-01  1.50000000E+00  1.50000000E+00  8.00000000E-01  8.00000000E-01
  1.50000000E+00  1.50000000E+00  8.00000000E-01  8.00000000E-01  1.50000000E+00
  1.50000000E+00  8.00000000E-01  8.00000000E-01  1.50000000E+00  1.50000000E+00
  8.00000000E-01  8.00000000E-01  1.50000000E+00  1.50000000E+00  8.00000000E-01
  8.00000000E-01  1.50000000E+00  1.50000000E+00  8.00000000E-01  8.00000000E-01
  1.50000000E+00  1.50000000E+00  8.00000000E-01  8.00000000E-01  1.50000000E+00
  1.50000000E+00  8.00000000E-01  8.00000000E-01  1.50000000E+00  1.50000000E+00
  8.00000000E-01  8.00000000E-01  1.50000000E+00  1.50000000E+00  8.00000000E-01
  8.00000000E-01  1.50000000E+00  1.50000000E+00  8.00000000E-01  8.00000000E-01
  1.50000000E+00  1.50000000E+00  8.00000000E-01  8.00000000E-01  1.50000000E+00
  1.50000000E+00  8.00000000E-01  8.00000000E-01  1.50000000E+00  1.50000000E+00
  8.00000000E-01  8.00000000E-01  1.50000000E+00  1.50000000E+00  8.00000000E-01
  8.00000000E-01  1.50000000E+00  1.50000000E+00  8.00000000E-01  8.00000000E-01
  1.50000000E+00  1.50000000E+00  8.00000000E-01  8.00000000E-01  1.50000000E+00
  1.50000000E+00  8.00000000E-01  8.00000000E-01  1.50000000E+00  1.50000000E+00
  8.00000000E-01  8.00000000E-01  1.50000000E+00  1.50000000E+00  8.00000000E-01
  8.00000000E-01  1.50000000E+00  1.50000000E+00  8.00000000E-01  8.00000000E-01
  1.50000000E+00  1.50000000E+00  8.00000000E-01  8.00000000E-01  1.50000000E+00
  1.50000000E+00  8.00000000E-01  8.00000000E-01  1.50000000E+00  1.50000000E+00
  8.00000000E-01  8.00000000E-01  1.50000000E+00  1.50000000E+00  8.00000000E-01
  8.00000000E-01  1.50000000E+00  1.50000000E+00  8.00000000E-01  8.00000000E-01
  1.50000000E+00  1.50000000E+00  8.00000000E-01  8.00000000E-01  1.50000000E+00
  1.50000000E+00  8.00000000E-01  8.00000000E-01  1.50000000E+00  1.50000000E+00
  8.00000000E-01  8.00000000E-01  1.50000000E+00  1.50000000E+00  8.00000000E-01
  8.00000000E-01  1.50000000E+00  1.50000000E+00  8.00000000E-01  8.00000000E-01
  1.50000000E+00  1.50000000E+00  8.00000000E-01  8.00000000E-01  1.50000000E+00
  1.50000000E+00  8.00000000E-01  8.00000000E-01  1.50000000E+00  1.50000000E+00
  8.00000000E-01  8.00000000E-01  1.50000000E+00  1.50000000E+00  8.00000000E-01
  8.00000000E-01  1.50000000E+00  1.50000000E+00  8.00000000E-01  8.00000000E-01
  1.50000000E+00  1.50000000E+00  8.00000000E-01  8.00000000E-01  1.50000000E+00
  1.50000000E+00  8.00000000E-01  8.00000000E-01  1.50000000E+00  1.50000000E+00
  8.00000000E-01  8.00000000E-01  1.50000000E+00  1.50000000E+00  8.00000000E-01
  8.00000000E-01  1.50000000E+00  1.50000000E+00  8.00000000E-01  8.00000000E-01
  1.50000000E+00  1.50000000E+00  8.00000000E-01  8.00000000E-01  1.50000000E+00
  1.50000000E+00  8.00000000E-01  8.00000000E-01  1.50000000E+00  1.50000000E+00
  8.00000000E-01  8.00000000E-01  1.50000000E+00  1.50000000E+00  8.00000000E-01
  8.00000000E-01  1.50000000E+00  1.50000000E+00  8.00000000E-01  8.00000000E-01
  1.50000000E+00  1.50000000E+00  8.00000000E-01  8.00000000E-01  1.50000000E+00
  1.50000000E+00  8.00000000E-01  8.00000000E-01  1.50000000E+00  1.50000000E+00
  8.00000000E-01  8.00000000E-01  1.50000000E+00  1.50000000E+00  8.00000000E-01
  8.00000000E-01  1.50000000E+00  1.50000000E+00  8.00000000E-01  8.00000000E-01
  1.50000000E+00  1.50000000E+00  8.00000000E-01  8.00000000E-01  1.50000000E+00
  1.50000000E+00  8.00000000E-01  8.00000000E-01  1.50000000E+00  1.50000000E+00
  8.00000000E-01  8.00000000E-01  1.50000000E+00  1.50000000E+00  8.00000000E-01
  8.00000000E-01  1.50000000E+00  1.50000000E+00  8.00000000E-01  8.00000000E-01
  1.50000000E+00  1.50000000E+00  8.00000000E-01  8.00000000E-01  1.50000000E+00
  1.50000000E+00  8.00000000E-01  8.00000000E-01  1.50000000E+00  1.50000000E+00
  8.00000000E-01  8.00000000E-01  1.50000000E+00  1.50000000E+00  8.00000000E-01
  8.00000000E-01  1.50000000E+00  1.50000000E+00  8.00000000E-01  8.00000000E-01
  1.50000000E+00  1.50000000E+00  8.00000000E-01  8.00000000E-01  1.50000000E+00
  1.50000000E+00  8.00000000E-01  8.00000000E-01  1.50000000E+00  1.50000000E+00
  8.00000000E-01  8.00000000E-01  1.50000000E+00  1.50000000E+00  8.00000000E-01
  8.00000000E-01  1.50000000E+00  1.50000000E+00  8.00000000E-01  8.00000000E-01
  1.50000000E+00  1.50000000E+00  8.00000000E-01  8.00000000E-01  1.50000000E+00
  1.50000000E+00  8.00000000E-01  8.00000000E-01  1.50000000E+00  1.50000000E+00
  8.00000000E-01  8.00000000E-01  1.50000000E+00  1.50000000E+00  8.00000000E-01
  8.00000000E-01  1.50000000E+00  1.50000000E+00  8.00000000E-01  8.00000000E-01
  1.50000000E+00  1.50000000E+00  8.00000000E-01  8.00000000E-01  1.50000000E+00
  1.50000000E+00  8.00000000E-01  8.00000000E-01  1.50000000E+00  1.50000000E+00
  8.00000000E-01  8.00000000E-01  1.50000000E+00  1.50000000E+00  8.00000000E-01
  8.00000000E-01  1.50000000E+00  1.50000000E+00  8.00000000E-01  8.00000000E-01
  1.50000000E+00  1.50000000E+00  8.00000000E-01  8.00000000E-01  1.50000000E+00
  1.50000000E+00  8.00000000E-01  8.00000000E-01  1.50000000E+00  1.50000000E+00
  8.00000000E-01  8.00000000E-01  1.50000000E+00  1.50000000E+00  8.00000000E-01
  8.00000000E-01  1.50000000E+00  1.50000000E+00  8.00000000E-01  8.00000000E-01
  1.50000000E+00  1.50000000E+00  8.00000000E-01  8.00000000E-01  1.50000000E+00
  1.50000000E+00  8.00000000E-01  8.00000000E-01  1.50000000E+00  1.50000000E+00
  8.00000000E-01  8.00000000E-01  1.50000000E+00  1.50000000E+00  8.00000000E-01
  8.00000000E-01  1.50000000E+00  1.50000000E+00  8.00000000E-01  8.00000000E-01
  1.50000000E+00  1.50000000E+00  8.00000000E-01  8.00000000E-01  1.50000000E+00
  1.50000000E+00  8.00000000E-01  8.00000000E-01  1.50000000E+00  1.50000000E+00
  8.00000000E-01  8.00000000E-01  1.50000000E+00  1.50000000E+00  8.00000000E-01
  8.00000000E-01  1.50000000E+00  1.50000000E+00  8.00000000E-01  8.00000000E-01
  1.50000000E+00  1.50000000E+00  8.00000000E-01  8.00000000E-01  1.50000000E+00
  1.50000000E+00  8.00000000E-01  8.00000000E-01  1.50000000E+00  1.50000000E+00
  8.00000000E-01  8.00000000E-01  1.50000000E+00  1.50000000E+00  8.00000000E-01
  8.00000000E-01  1.50000000E+00  1.50000000E+00  8.00000000E-01  8.00000000E-01
  1.50000000E+00  1.50000000E+00  8.00000000E-01  8.00000000E-01  1.50000000E+00
  1.50000000E+00  8.00000000E-01  8.00000000E-01  1.50000000E+00  1.50000000E+00
  8.00000000E-01  8.00000000E-01  1.50000000E+00  1.50000000E+00  8.00000000E-01
  8.00000000E-01  1.50000000E+00  1.50000000E+00  8.00000000E-01  8.00000000E-01
  1.50000000E+00  1.50000000E+00  8.00000000E-01  8.00000000E-01  1.50000000E+00
  1.50000000E+00  8.00000000E-01  8.00000000E-01  1.50000000E+00  1.50000000E+00
  8.00000000E-01  8.00000000E-01  1.50000000E+00  1.50000000E+00  8.00000000E-01
  8.00000000E-01  1.50000000E+00  1.50000000E+00  8.00000000E-01  8.00000000E-01
  1.50000000E+00  1.50000000E+00  8.00000000E-01  8.00000000E-01  1.50000000E+00
  1.50000000E+00  8.00000000E-01  8.00000000E-01  1.50000000E+00  1.50000000E+00
  8.00000000E-01  8.00000000E-01  1.50000000E+00  1.50000000E+00  8.00000000E-01
  8.00000000E-01  1.50000000E+00  1.50000000E+00  8.00000000E-01  8.00000000E-01
  1.50000000E+00  1.50000000E+00  8.00000000E-01  8.00000000E-01  1.50000000E+00
  1.50000000E+00  8.00000000E-01  8.00000000E-01  1.50000000E+00  1.50000000E+00
  8.00000000E-01  8.00000000E-01  1.50000000E+00  1.50000000E+00  8.00000000E-01
  8.00000000E-01  1.50000000E+00  1.50000000E+00  8.00000000E-01  8.00000000E-01
  1.50000000E+00  1.50000000E+00  8.00000000E-01  8.00000000E-01  1.50000000E+00
  1.50000000E+00  8.00000000E-01  8.00000000E-01  1.50000000E+00  1.50000000E+00
  8.00000000E-01  8.00000000E-01  1.50000000E+00  1.50000000E+00  8.00000000E-01
  8.00000000E-01  1.50000000E+00  1.50000000E+00  8.00000000E-01  8.00000000E-01
  1.50000000E+00  1.50000000E+00  8.00000000E-01  8.00000000E-01  1.50000000E+00
  1.50000000E+00  8.00000000E-01  8.00000000E-01  1.50000000E+00  1.50000000E+00
  8.00000000E-01  8.00000000E-01  1.50000000E+00  1.50000000E+00  8.00000000E-01
  8.00000000E-01  1.50000000E+00  1.50000000E+00  8.00000000E-01  8.00000000E-01
  1.50000000E+00  1.50000000E+00  8.00000000E-01  8.00000000E-01  1.50000000E+00
  1.50000000E+00  8.00000000E-01  8.00000000E-01  1.50000000E+00  1.50000000E+00
  8.00000000E-01  8.00000000E-01  1.50000000E+00  1.50000000E+00  8.00000000E-01
  8.00000000E-01  1.50000000E+00  1.50000000E+00  8.00000000E-01  8.00000000E-01
  1.50000000E+00  1.50000000E+00  8.00000000E-01  8.00000000E-01  1.50000000E+00
  1.50000000E+00  8.00000000E-01  8.00000000E-01  1.50000000E+00  1.50000000E+00
  8.00000000E-01  8.00000000E-01  1.50000000E+00  1.50000000E+00  8.00000000E-01
  8.00000000E-01  1.50000000E+00  1.50000000E+00  8.00000000E-01  8.00000000E-01
  1.50000000E+00  1.50000000E+00  8.00000000E-01  8.00000000E-01  1.50000000E+00
  1.50000000E+00  8.00000000E-01  8.00000000E-01  1.50000000E+00  1.50000000E+00
  8.00000000E-01  8.00000000E-01  1.50000000E+00  1.50000000E+00  8.00000000E-01
  8.00000000E-01  1.50000000E+00  1.50000000E+00  8.00000000E-01  8.00000000E-01
  1.50000000E+00  1.50000000E+00  8.00000000E-01  8.00000000E-01  1.50000000E+00
  1.50000000E+00  8.00000000E-01  8.00000000E-01  1.50000000E+00  1.50000000E+00
  8.00000000E-01  8.00000000E-01  1.50000000E+00  1.50000000E+00  8.00000000E-01
  8.00000000E-01  1.50000000E+00  1.50000000E+00  8.00000000E-01  8.00000000E-01
  1.50000000E+00  1.50000000E+00  8.00000000E-01  8.00000000E-01  1.50000000E+00
  1.50000000E+00  8.00000000E-01  8.00000000E-01  1.50000000E+00  1.50000000E+00
  8.00000000E-01  8.00000000E-01  1.50000000E+00  1.50000000E+00  8.00000000E-01
  8.00000000E-01  1.50000000E+00  1.50000000E+00  8.00000000E-01  8.00000000E-01
  1.50000000E+00  1.50000000E+00  8.00000000E-01  8.00000000E-01  1.50000000E+00
  1.50000000E+00  8.00000000E-01  8.00000000E-01  1.50000000E+00  1.50000000E+00
  8.00000000E-01  8.00000000E-01  1.50000000E+00  1.50000000E+00  8.00000000E-01
  8.00000000E-01  1.50000000E+00  1.50000000E+00  8.00000000E-01  8.00000000E-01
  1.50000000E+00  1.50000000E+00  8.00000000E-01  8.00000000E-01  1.50000000E+00
  1.50000000E+00  8.00000000E-01  8.00000000E-01  1.50000000E+00  1.50000000E+00
  8.00000000E-01  8.00000000E-01  1.50000000E+00  1.50000000E+00  8.00000000E-01
  8.00000000E-01  1.50000000E+00  1.50000000E+00  8.00000000E-01  8.00000000E-01
  1.50000000E+00  1.50000000E+00  8.00000000E-01  8.00000000E-01  1.50000000E+00
  1.50000000E+00  8.00000000E-01  8.00000000E-01  1.50000000E+00  1.50000000E+00
  8.00000000E-01  8.00000000E-01  1.50000000E+00  1.50000000E+00  8.00000000E-01
  8.00000000E-01  1.50000000E+00  1.50000000E+00  8.00000000E-01  8.00000000E-01
  1.50000000E+00  1.50000000E+00  8.00000000E-01  8.00000000E-01  1.50000000E+00
  1.50000000E+00  8.00000000E-01  8.00000000E-01  1.50000000E+00  1.50000000E+00
  8.00000000E-01  8.00000000E-01  1.50000000E+00  1.50000000E+00  8.00000000E-01
  8.00000000E-01  1.50000000E+00  1.50000000E+00  8.00000000E-01  8.00000000E-01
  1.50000000E+00  1.50000000E+00  8.00000000E-01  8.00000000E-01  1.50000000E+00
  1.50000000E+00  8.00000000E-01  8.00000000E-01  1.50000000E+00  1.50000000E+00
  8.00000000E-01  8.00000000E-01  1.50000000E+00  1.50000000E+00  8.00000000E-01
  8.00000000E-01  1.50000000E+00  1.50000000E+00  8.00000000E-01  8.00000000E-01
  1.50000000E+00  1.50000000E+00  8.00000000E-01  8.00000000E-01  1.50000000E+00
  1.50000000E+00  8.00000000E-01  8.00000000E-01  1.50000000E+00  1.50000000E+00
  8.00000000E-01  8.00000000E-01  1.50000000E+00  1.50000000E+00  8.00000000E-01
  8.00000000E-01  1.50000000E+00  1.50000000E+00  8.00000000E-01  8.00000000E-01
  1.50000000E+00  1.50000000E+00  8.00000000E-01  8.00000000E-01  1.50000000E+00
  1.50000000E+00  8.00000000E-01  8.00000000E-01  1.50000000E+00  1.50000000E+00
  8.00000000E-01  8.00000000E-01  1.50000000E+00  1.50000000E+00  8.00000000E-01
  8.00000000E-01  1.50000000E+00  1.50000000E+00  8.00000000E-01  8.00000000E-01
  1.50000000E+00  1.50000000E+00  8.00000000E-01  8.00000000E-01  1.50000000E+00
  1.50000000E+00  8.00000000E-01  8.00000000E-01  1.50000000E+00  1.50000000E+00
  8.00000000E-01  8.00000000E-01  1.50000000E+00  1.50000000E+00  8.00000000E-01
  8.00000000E-01  1.50000000E+00  1.50000000E+00  8.00000000E-01  8.00000000E-01
  1.50000000E+00  1.50000000E+00  8.00000000E-01  8.00000000E-01  1.50000000E+00
  1.50000000E+00  8.00000000E-01  8.00000000E-01  1.50000000E+00  1.50000000E+00
  8.00000000E-01  8.00000000E-01  1.50000000E+00  1.50000000E+00  8.00000000E-01
  8.00000000E-01  1.50000000E+00  1.50000000E+00  8.00000000E-01  8.00000000E-01
  1.50000000E+00  1.50000000E+00  8.00000000E-01  8.00000000E-01  1.50000000E+00
  1.50000000E+00  8.00000000E-01  8.00000000E-01  1.50000000E+00  1.50000000E+00
  8.00000000E-01  8.00000000E-01  1.50000000E+00  1.50000000E+00  8.00000000E-01
  8.00000000E-01  1.50000000E+00  1.50000000E+00  8.00000000E-01  8.00000000E-01
  1.50000000E+00  1.50000000E+00  8.00000000E-01  8.00000000E-01  1.50000000E+00
  1.50000000E+00  8.00000000E-01  8.00000000E-01  1.50000000E+00  1.50000000E+00
  8.00000000E-01  8.00000000E-01  1.50000000E+00  1.50000000E+00  8.00000000E-01
  8.00000000E-01  1.50000000E+00  1.50000000E+00  8.00000000E-01  8.00000000E-01
  1.50000000E+00  1.50000000E+00  8.00000000E-01  8.00000000E-01  1.50000000E+00
  1.50000000E+00  8.00000000E-01  8.00000000E-01  1.50000000E+00  1.50000000E+00
  8.00000000E-01  8.00000000E-01  1.50000000E+00  1.50000000E+00  8.00000000E-01
  8.00000000E-01  1.50000000E+00  1.50000000E+00  8.00000000E-01  8.00000000E-01
  1.50000000E+00  1.50000000E+00  8.00000000E-01  8.00000000E-01  1.50000000E+00
  1.50000000E+00  8.00000000E-01  8.00000000E-01  1.50000000E+00  1.50000000E+00
  8.00000000E-01  8.00000000E-01  1.50000000E+00  1.50000000E+00  8.00000000E-01
  8.00000000E-01  1.50000000E+00  1.50000000E+00  8.00000000E-01  8.00000000E-01
  1.50000000E+00  1.50000000E+00  8.00000000E-01  8.00000000E-01  1.50000000E+00
  1.50000000E+00  8.00000000E-01  8.00000000E-01  1.50000000E+00  1.50000000E+00
  8.00000000E-01  8.00000000E-01  1.50000000E+00  1.50000000E+00  8.00000000E-01
  8.00000000E-01  1.50000000E+00  1.50000000E+00  8.00000000E-01  8.00000000E-01
  1.50000000E+00  1.50000000E+00  8.00000000E-01  8.00000000E-01  1.50000000E+00
  1.50000000E+00  8.00000000E-01  8.00000000E-01  1.50000000E+00  1.50000000E+00
  8.00000000E-01  8.00000000E-01  1.50000000E+00  1.50000000E+00  8.00000000E-01
  8.00000000E-01  1.50000000E+00  1.50000000E+00  8.00000000E-01  8.00000000E-01
  1.50000000E+00  1.50000000E+00  8.00000000E-01  8.00000000E-01  1.50000000E+00
  1.50000000E+00  8.00000000E-01  8.00000000E-01  1.50000000E+00  1.50000000E+00
  8.00000000E-01  8.00000000E-01  1.50000000E+00  1.50000000E+00  8.00000000E-01
  8.00000000E-01  1.50000000E+00  1.50000000E+00  8.00000000E-01  8.00000000E-01
  1.50000000E+00  1.50000000E+00  8.00000000E-01  8.00000000E-01  1.50000000E+00
  1.50000000E+00  8.00000000E-01  8.00000000E-01  1.50000000E+00  1.50000000E+00
  8.00000000E-01  8.00000000E-01  1.50000000E+00  1.50000000E+00  8.00000000E-01
  8.00000000E-01  1.50000000E+00  1.50000000E+00  8.00000000E-01  8.00000000E-01
  1.50000000E+00  1.50000000E+00  8.00000000E-01  8.00000000E-01  1.50000000E+00
  1.50000000E+00  8.00000000E-01  8.00000000E-01  1.50000000E+00  1.50000000E+00
  8.00000000E-01  8.00000000E-01  1.50000000E+00  1.50000000E+00  8.00000000E-01
  8.00000000E-01  1.50000000E+00  1.50000000E+00  8.00000000E-01  8.00000000E-01
  1.50000000E+00  1.50000000E+00  8.00000000E-01  8.00000000E-01  1.50000000E+00
  1.50000000E+00  8.00000000E-01  8.00000000E-01  1.50000000E+00  1.50000000E+00
  8.00000000E-01  8.00000000E-01  1.50000000E+00  1.50000000E+00  8.00000000E-01
  8.00000000E-01  1.50000000E+00  1.50000000E+00  8.00000000E-01  8.00000000E-01
  1.50000000E+00  1.50000000E+00  8.00000000E-01  8.00000000E-01  1.50000000E+00
  1.50000000E+00  8.00000000E-01  8.00000000E-01  1.50000000E+00  1.50000000E+00
  8.00000000E-01  8.00000000E-01  1.50000000E+00  1.50000000E+00  8.00000000E-01
  8.00000000E-01  1.50000000E+00  1.50000000E+00  8.00000000E-01  8.00000000E-01
  1.50000000E+00  1.50000000E+00  8.00000000E-01  8.00000000E-01  1.50000000E+00
  1.50000000E+00  8.00000000E-01  8.00000000E-01  1.50000000E+00  1.50000000E+00
  8.00000000E-01  8.00000000E-01  1.50000000E+00  1.50000000E+00  8.00000000E-01
  8.00000000E-01  1.50000000E+00  1.50000000E+00  8.00000000E-01  8.00000000E-01
  1.50000000E+00  1.50000000E+00  8.00000000E-01  8.00000000E-01  1.50000000E+00
  1.50000000E+00  8.00000000E-01  8.00000000E-01  1.50000000E+00  1.50000000E+00
  8.00000000E-01  8.00000000E-01  1.50000000E+00  1.50000000E+00  8.00000000E-01
  8.00000000E-01  1.50000000E+00  1.50000000E+00  8.00000000E-01  8.00000000E-01
  1.50000000E+00  1.50000000E+00  8.00000000E-01  8.00000000E-01  1.50000000E+00
  1.50000000E+00  8.00000000E-01  8.00000000E-01  1.50000000E+00  1.50000000E+00
  8.00000000E-01  8.00000000E-01  1.50000000E+00  1.50000000E+00  8.00000000E-01
  8.00000000E-01  1.50000000E+00  1.50000000E+00  8.00000000E-01  8.00000000E-01
  1.50000000E+00  1.50000000E+00  8.00000000E-01  8.00000000E-01  1.50000000E+00
  1.50000000E+00  8.00000000E-01  8.00000000E-01  1.50000000E+00  1.50000000E+00
  8.00000000E-01  8.00000000E-01  1.50000000E+00  1.50000000E+00  8.00000000E-01
  8.00000000E-01  1.50000000E+00  1.50000000E+00  8.00000000E-01  8.00000000E-01
  1.50000000E+00  1.50000000E+00  8.00000000E-01  8.00000000E-01  1.50000000E+00
  1.50000000E+00  8.00000000E-01  8.00000000E-01  1.50000000E+00  1.50000000E+00
  8.00000000E-01  8.00000000E-01  1.50000000E+00  1.50000000E+00  8.00000000E-01
  8.00000000E-01  1.50000000E+00  1.50000000E+00  8.00000000E-01  8.00000000E-01
  1.50000000E+00  1.50000000E+00  8.00000000E-01  8.00000000E-01  1.50000000E+00
  1.50000000E+00  8.00000000E-01  8.00000000E-01  1.50000000E+00  1.50000000E+00
  8.00000000E-01  8.00000000E-01  1.50000000E+00  1.50000000E+00  8.00000000E-01
  8.00000000E-01  1.50000000E+00  1.50000000E+00  8.00000000E-01  8.00000000E-01
  1.50000000E+00  1.50000000E+00  8.00000000E-01  8.00000000E-01  1.50000000E+00
  1.50000000E+00  8.00000000E-01  8.00000000E-01  1.50000000E+00  1.50000000E+00
  8.00000000E-01  8.00000000E-01  1.50000000E+00  1.50000000E+00  8.00000000E-01
  8.00000000E-01  1.50000000E+00  1.50000000E+00  8.00000000E-01  8.00000000E-01
  1.50000000E+00  1.50000000E+00  8.00000000E-01  8.00000000E-01  1.50000000E+00
  1.50000000E+00  8.00000000E-01  8.00000000E-01  1.50000000E+00  1.50000000E+00
  8.00000000E-01  8.00000000E-01  1.50000000E+00  1.50000000E+00  8.00000000E-01
  8.00000000E-01  1.50000000E+00  1.50000000E+00  8.00000000E-01  8.00000000E-01
  1.50000000E+00  1.50000000E+00  8.00000000E-01  8.00000000E-01  1.50000000E+00
  1.50000000E+00  8.00000000E-01  8.00000000E-01  1.50000000E+00  1.50000000E+00
  8.00000000E-01  8.00000000E-01  1.50000000E+00  1.50000000E+00  8.00000000E-01
  8.00000000E-01  1.50000000E+00  1.50000000E+00  8.00000000E-01  8.00000000E-01
  1.50000000E+00  1.50000000E+00  8.00000000E-01  8.00000000E-01  1.50000000E+00
  1.50000000E+00  8.00000000E-01  8.00000000E-01  1.50000000E+00  1.50000000E+00
  8.00000000E-01  8.00000000E-01  1.50000000E+00  1.50000000E+00  8.00000000E-01
  8.00000000E-01  1.50000000E+00  1.50000000E+00  8.00000000E-01  8.00000000E-01
  1.50000000E+00  1.50000000E+00  8.00000000E-01  8.00000000E-01  1.50000000E+00
  1.50000000E+00  8.00000000E-01  8.00000000E-01  1.50000000E+00  1.50000000E+00
  8.00000000E-01  8.00000000E-01  1.50000000E+00  1.50000000E+00  8.00000000E-01
  8.00000000E-01  1.50000000E+00  1.50000000E+00  8.00000000E-01  8.00000000E-01
  1.50000000E+00  1.50000000E+00  8.00000000E-01  8.00000000E-01  1.50000000E+00
  1.50000000E+00  8.00000000E-01  8.00000000E-01  1.50000000E+00  1.50000000E+00
  8.00000000E-01  8.00000000E-01  1.50000000E+00  1.50000000E+00  8.00000000E-01
  8.00000000E-01  1.50000000E+00  1.50000000E+00  8.00000000E-01  8.00000000E-01
  1.50000000E+00  1.50000000E+00  8.00000000E-01  8.00000000E-01  1.50000000E+00
  1.50000000E+00  8.00000000E-01  8.00000000E-01  1.50000000E+00  1.50000000E+00
  8.00000000E-01  8.00000000E-01  1.50000000E+00  1.50000000E+00  8.00000000E-01
  8.00000000E-01  1.50000000E+00  1.50000000E+00  8.00000000E-01  8.00000000E-01
  1.50000000E+00  1.50000000E+00  8.00000000E-01  8.00000000E-01  1.50000000E+00
  1.50000000E+00  8.00000000E-01  8.00000000E-01  1.50000000E+00  1.50000000E+00
  8.00000000E-01  8.00000000E-01  1.50000000E+00  1.50000000E+00  8.00000000E-01
  8.00000000E-01  1.50000000E+00  1.50000000E+00  8.00000000E-01  8.00000000E-01
  1.50000000E+00  1.50000000E+00  8.00000000E-01  8.00000000E-01  1.50000000E+00
  1.50000000E+00  8.00000000E-01  8.00000000E-01  1.50000000E+00  1.50000000E+00
  8.00000000E-01  8.00000000E-01  1.50000000E+00  1.50000000E+00  8.00000000E-01
  8.00000000E-01  1.50000000E+00  1.50000000E+00  8.00000000E-01  8.00000000E-01
  1.50000000E+00  1.50000000E+00  8.00000000E-01  8.00000000E-01  1.50000000E+00
  1.50000000E+00  8.00000000E-01  8.00000000E-01  1.50000000E+00  1.50000000E+00
  8.00000000E-01  8.00000000E-01  1.50000000E+00  1.50000000E+00  8.00000000E-01
  8.00000000E-01  1.50000000E+00  1.50000000E+00  8.00000000E-01  8.00000000E-01
  1.50000000E+00  1.50000000E+00  8.00000000E-01  8.00000000E-01  1.50000000E+00
  1.50000000E+00  8.00000000E-01  8.00000000E-01  1.50000000E+00  1.50000000E+00
  8.00000000E-01  8.00000000E-01  1.50000000E+00  1.50000000E+00  8.00000000E-01
  8.00000000E-01  1.50000000E+00  1.50000000E+00  8.00000000E-01  8.00000000E-01
  1.50000000E+00  1.50000000E+00  8.00000000E-01  8.00000000E-01  1.50000000E+00
  1.50000000E+00  8.00000000E-01  8.00000000E-01  1.50000000E+00  1.50000000E+00
  8.00000000E-01  8.00000000E-01  1.50000000E+00  1.50000000E+00  8.00000000E-01
  8.00000000E-01  1.50000000E+00  1.50000000E+00  8.00000000E-01  8.00000000E-01
  1.50000000E+00  1.50000000E+00  8.00000000E-01  8.00000000E-01  1.50000000E+00
  1.50000000E+00  8.00000000E-01  8.00000000E-01  1.50000000E+00  1.50000000E+00
  8.00000000E-01  8.00000000E-01  1.50000000E+00  1.50000000E+00  8.00000000E-01
  8.00000000E-01  1.50000000E+00  1.50000000E+00  8.00000000E-01  8.00000000E-01
  1.50000000E+00  1.50000000E+00  8.00000000E-01  8.00000000E-01  1.50000000E+00
  1.50000000E+00  8.00000000E-01  8.00000000E-01  1.50000000E+00  1.50000000E+00
  8.00000000E-01  8.00000000E-01  1.50000000E+00  1.50000000E+00  8.00000000E-01
  8.00000000E-01  1.50000000E+00  1.50000000E+00  8.00000000E-01  8.00000000E-01
  1.50000000E+00  1.50000000E+00  8.00000000E-01  8.00000000E-01  1.50000000E+00
  1.50000000E+00  8.00000000E-01  8.00000000E-01  1.50000000E+00  1.50000000E+00
  8.00000000E-01  8.00000000E-01  1.50000000E+00  1.50000000E+00  8.00000000E-01
  8.00000000E-01  1.50000000E+00  1.50000000E+00  8.00000000E-01  8.00000000E-01
  1.50000000E+00  1.50000000E+00  8.00000000E-01  8.00000000E-01  1.50000000E+00
  1.50000000E+00  8.00000000E-01  8.00000000E-01  1.50000000E+00  1.50000000E+00
  8.00000000E-01  8.00000000E-01  1.50000000E+00  1.50000000E+00  8.00000000E-01
  8.00000000E-01  1.50000000E+00  1.50000000E+00  8.00000000E-01  8.00000000E-01
  1.50000000E+00  1.50000000E+00  8.00000000E-01  8.00000000E-01  1.50000000E+00
  1.50000000E+00  8.00000000E-01  8.00000000E-01  1.50000000E+00  1.50000000E+00
  8.00000000E-01  8.00000000E-01  1.50000000E+00  1.50000000E+00  8.00000000E-01
  8.00000000E-01  1.50000000E+00  1.50000000E+00  8.00000000E-01  8.00000000E-01
  1.50000000E+00  1.50000000E+00  8.00000000E-01  8.00000000E-01  1.50000000E+00
  1.50000000E+00  8.00000000E-01  8.00000000E-01  1.50000000E+00  1.50000000E+00
  8.00000000E-01  8.00000000E-01  1.50000000E+00  1.50000000E+00  8.00000000E-01
  8.00000000E-01  1.50000000E+00  1.50000000E+00  8.00000000E-01  8.00000000E-01
  1.50000000E+00  1.50000000E+00  8.00000000E-01  8.00000000E-01  1.50000000E+00
  1.50000000E+00  8.00000000E-01  8.00000000E-01  1.50000000E+00  1.50000000E+00
  8.00000000E-01  8.00000000E-01  1.50000000E+00  1.50000000E+00  8.00000000E-01
  8.00000000E-01  1.50000000E+00  1.50000000E+00  8.00000000E-01  8.00000000E-01
  1.50000000E+00  1.50000000E+00  8.00000000E-01  8.00000000E-01  1.50000000E+00
  1.50000000E+00  8.00000000E-01  8.00000000E-01  1.50000000E+00  1.50000000E+00
  8.00000000E-01  8.00000000E-01  1.50000000E+00  1.50000000E+00  8.00000000E-01
  8.00000000E-01  1.50000000E+00  1.50000000E+00  8.00000000E-01  8.00000000E-01
  1.50000000E+00  1.50000000E+00  8.00000000E-01  8.00000000E-01  1.50000000E+00
  1.50000000E+00  8.00000000E-01  8.00000000E-01  1.50000000E+00  1.50000000E+00
  8.00000000E-01  8.00000000E-01  1.50000000E+00  1.50000000E+00  8.00000000E-01
  8.00000000E-01  1.50000000E+00  1.50000000E+00  8.00000000E-01  8.00000000E-01
  1.50000000E+00  1.50000000E+00  8.00000000E-01  8.00000000E-01  1.50000000E+00
  1.50000000E+00  8.00000000E-01  8.00000000E-01  1.50000000E+00  1.50000000E+00
  8.00000000E-01  8.00000000E-01  1.50000000E+00  1.50000000E+00  8.00000000E-01
  8.00000000E-01  1.50000000E+00  1.50000000E+00  8.00000000E-01  8.00000000E-01
  1.50000000E+00  1.50000000E+00  8.00000000E-01  8.00000000E-01  1.50000000E+00
  1.50000000E+00  8.00000000E-01  8.00000000E-01  1.50000000E+00  1.50000000E+00
  8.00000000E-01  8.00000000E-01  1.50000000E+00  1.50000000E+00  8.00000000E-01
  8.00000000E-01  1.50000000E+00  1.50000000E+00  8.00000000E-01  8.00000000E-01
  1.50000000E+00  1.50000000E+00  8.00000000E-01  8.00000000E-01  1.50000000E+00
  1.50000000E+00  8.00000000E-01  8.00000000E-01  1.50000000E+00  1.50000000E+00
  8.00000000E-01  8.00000000E-01  1.50000000E+00  1.50000000E+00  8.00000000E-01
  8.00000000E-01  1.50000000E+00  1.50000000E+00  8.00000000E-01  8.00000000E-01
  1.50000000E+00  1.50000000E+00  8.00000000E-01  8.00000000E-01  1.50000000E+00
  1.50000000E+00  8.00000000E-01  8.00000000E-01  1.50000000E+00  1.50000000E+00
  8.00000000E-01  8.00000000E-01  1.50000000E+00  1.50000000E+00  8.00000000E-01
  8.00000000E-01  1.50000000E+00  1.50000000E+00  8.00000000E-01  8.00000000E-01
  1.50000000E+00  1.50000000E+00  8.00000000E-01  8.00000000E-01  1.50000000E+00
  1.50000000E+00  8.00000000E-01  8.00000000E-01  1.50000000E+00  1.50000000E+00
  8.00000000E-01  8.00000000E-01  1.50000000E+00  1.50000000E+00  8.00000000E-01
  8.00000000E-01  1.50000000E+00  1.50000000E+00  8.00000000E-01  8.00000000E-01
  1.50000000E+00  1.50000000E+00  8.00000000E-01  8.00000000E-01  1.50000000E+00
  1.50000000E+00  8.00000000E-01  8.00000000E-01  1.50000000E+00  1.50000000E+00
  8.00000000E-01  8.00000000E-01  1.50000000E+00  1.50000000E+00  8.00000000E-01
  8.00000000E-01  1.50000000E+00  1.50000000E+00  8.00000000E-01  8.00000000E-01
  1.50000000E+00  1.50000000E+00  8.00000000E-01  8.00000000E-01  1.50000000E+00
  1.50000000E+00  8.00000000E-01  8.00000000E-01  1.50000000E+00  1.50000000E+00
  8.00000000E-01  8.00000000E-01  1.50000000E+00  1.50000000E+00  8.00000000E-01
  8.00000000E-01  1.50000000E+00  1.50000000E+00  8.00000000E-01  8.00000000E-01
  1.50000000E+00  1.50000000E+00  8.00000000E-01  8.00000000E-01  1.50000000E+00
  1.50000000E+00  8.00000000E-01  8.00000000E-01  1.50000000E+00  1.50000000E+00
  8.00000000E-01  8.00000000E-01  1.50000000E+00  1.50000000E+00  8.00000000E-01
  8.00000000E-01  1.50000000E+00  1.50000000E+00  8.00000000E-01  8.00000000E-01
  1.50000000E+00  1.50000000E+00  8.00000000E-01  8.00000000E-01  1.50000000E+00
  1.50000000E+00  8.00000000E-01  8.00000000E-01  1.50000000E+00  1.50000000E+00
  8.00000000E-01  8.00000000E-01  1.50000000E+00  1.50000000E+00  8.00000000E-01
  8.00000000E-01  1.50000000E+00  1.50000000E+00  8.00000000E-01  8.00000000E-01
  1.50000000E+00  1.50000000E+00  8.00000000E-01  8.00000000E-01  1.50000000E+00
  1.50000000E+00  8.00000000E-01  8.00000000E-01  1.50000000E+00  1.50000000E+00
  8.00000000E-01  8.00000000E-01  1.50000000E+00  1.50000000E+00  8.00000000E-01
  8.00000000E-01  1.50000000E+00  1.50000000E+00  8.00000000E-01  8.00000000E-01
  1.50000000E+00  1.50000000E+00  8.00000000E-01  8.00000000E-01  1.50000000E+00
  1.50000000E+00  8.00000000E-01  8.00000000E-01  1.50000000E+00  1.50000000E+00
  8.00000000E-01  8.00000000E-01  1.50000000E+00  1.50000000E+00  8.00000000E-01
  8.00000000E-01  1.50000000E+00  1.50000000E+00  8.00000000E-01  8.00000000E-01
  1.50000000E+00  1.50000000E+00  8.00000000E-01  8.00000000E-01  1.50000000E+00
  1.50000000E+00  8.00000000E-01  8.00000000E-01  1.50000000E+00  1.50000000E+00
  8.00000000E-01  8.00000000E-01  1.50000000E+00  1.50000000E+00  8.00000000E-01
  8.00000000E-01  1.50000000E+00  1.50000000E+00  8.00000000E-01  8.00000000E-01
  1.50000000E+00  1.50000000E+00  8.00000000E-01  8.00000000E-01  1.50000000E+00
  1.50000000E+00  8.00000000E-01  8.00000000E-01  1.50000000E+00  1.50000000E+00
  8.00000000E-01  8.00000000E-01  1.50000000E+00  1.50000000E+00  8.00000000E-01
  8.00000000E-01  1.50000000E+00  1.50000000E+00  8.00000000E-01  8.00000000E-01
  1.50000000E+00  1.50000000E+00  8.00000000E-01  8.00000000E-01  1.50000000E+00
  1.50000000E+00  8.00000000E-01  8.00000000E-01  1.50000000E+00  1.50000000E+00
  8.00000000E-01  8.00000000E-01  1.50000000E+00  1.50000000E+00  8.00000000E-01
  8.00000000E-01  1.50000000E+00  1.50000000E+00  8.00000000E-01  8.00000000E-01
  1.50000000E+00  1.50000000E+00  8.00000000E-01  8.00000000E-01  1.50000000E+00
  1.50000000E+00  8.00000000E-01  8.00000000E-01  1.50000000E+00  1.50000000E+00
  8.00000000E-01  8.00000000E-01  1.50000000E+00  1.50000000E+00  8.00000000E-01
  8.00000000E-01  1.50000000E+00  1.50000000E+00  8.00000000E-01  8.00000000E-01
  1.50000000E+00  1.50000000E+00  8.00000000E-01  8.00000000E-01  1.50000000E+00
  1.50000000E+00  8.00000000E-01  8.00000000E-01  1.50000000E+00  1.50000000E+00
  8.00000000E-01  8.00000000E-01  1.50000000E+00  1.50000000E+00  8.00000000E-01
  8.00000000E-01  1.50000000E+00  1.50000000E+00  8.00000000E-01  8.00000000E-01
  1.50000000E+00  1.50000000E+00  8.00000000E-01  8.00000000E-01  1.50000000E+00
  1.50000000E+00  8.00000000E-01  8.00000000E-01  1.50000000E+00  1.50000000E+00
  8.00000000E-01  8.00000000E-01  1.50000000E+00  1.50000000E+00  8.00000000E-01
  8.00000000E-01  1.50000000E+00  1.50000000E+00  8.00000000E-01  8.00000000E-01
  1.50000000E+00  1.50000000E+00  8.00000000E-01  8.00000000E-01  1.50000000E+00
  1.50000000E+00  8.00000000E-01  8.00000000E-01  1.50000000E+00  1.50000000E+00
  8.00000000E-01  8.00000000E-01  1.50000000E+00  1.50000000E+00  8.00000000E-01
  8.00000000E-01  1.50000000E+00  1.50000000E+00  8.00000000E-01  8.00000000E-01
  1.50000000E+00  1.50000000E+00  8.00000000E-01  8.00000000E-01  1.50000000E+00
  1.50000000E+00  8.00000000E-01  8.00000000E-01  1.50000000E+00  1.50000000E+00
  8.00000000E-01  8.00000000E-01  1.50000000E+00  1.50000000E+00  8.00000000E-01
  8.00000000E-01  1.50000000E+00  1.50000000E+00  8.00000000E-01  8.00000000E-01
  1.50000000E+00  1.50000000E+00  8.00000000E-01  8.00000000E-01  1.50000000E+00
  1.50000000E+00  8.00000000E-01  8.00000000E-01  1.50000000E+00  1.50000000E+00
  8.00000000E-01  8.00000000E-01  1.50000000E+00  1.50000000E+00  8.00000000E-01
  8.00000000E-01  1.50000000E+00  1.50000000E+00  8.00000000E-01  8.00000000E-01
  1.50000000E+00  1.50000000E+00  8.00000000E-01  8.00000000E-01  1.50000000E+00
  1.50000000E+00  8.00000000E-01  8.00000000E-01  1.50000000E+00  1.50000000E+00
  8.00000000E-01  8.00000000E-01  1.50000000E+00  1.50000000E+00  8.00000000E-01
  8.00000000E-01  1.50000000E+00  1.50000000E+00  8.00000000E-01  8.00000000E-01
  1.50000000E+00  1.50000000E+00  8.00000000E-01  8.00000000E-01  1.50000000E+00
  1.50000000E+00  8.00000000E-01  8.00000000E-01  1.50000000E+00  1.50000000E+00
  8.00000000E-01  8.00000000E-01  1.50000000E+00  1.50000000E+00  8.00000000E-01
  8.00000000E-01  1.50000000E+00  1.50000000E+00  8.00000000E-01  8.00000000E-01
  1.50000000E+00  1.50000000E+00  8.00000000E-01  8.00000000E-01  1.50000000E+00
  1.50000000E+00  8.00000000E-01  8.00000000E-01  1.50000000E+00  1.50000000E+00
  8.00000000E-01  8.00000000E-01  1.50000000E+00  1.50000000E+00  8.00000000E-01
  8.00000000E-01  1.50000000E+00  1.50000000E+00  8.00000000E-01  8.00000000E-01
  1.50000000E+00  1.50000000E+00  8.00000000E-01  8.00000000E-01  1.50000000E+00
  1.50000000E+00  8.00000000E-01  8.00000000E-01  1.50000000E+00  1.50000000E+00
  8.00000000E-01  8.00000000E-01  1.50000000E+00  1.50000000E+00  8.00000000E-01
  8.00000000E-01  1.50000000E+00  1.50000000E+00  8.00000000E-01  8.00000000E-01
  1.50000000E+00  1.50000000E+00  8.00000000E-01  8.00000000E-01  1.50000000E+00
  1.50000000E+00  8.00000000E-01  8.00000000E-01  1.50000000E+00  1.50000000E+00
  8.00000000E-01  8.00000000E-01  1.50000000E+00  1.50000000E+00  8.00000000E-01
  8.00000000E-01  1.50000000E+00  1.50000000E+00  8.00000000E-01  8.00000000E-01
  1.50000000E+00  1.50000000E+00  8.00000000E-01  8.00000000E-01  1.50000000E+00
  1.50000000E+00  8.00000000E-01  8.00000000E-01  1.50000000E+00  1.50000000E+00
  8.00000000E-01  8.00000000E-01  1.50000000E+00  1.50000000E+00  8.00000000E-01
  8.00000000E-01  1.50000000E+00  1.50000000E+00  8.00000000E-01  8.00000000E-01
  1.50000000E+00  1.50000000E+00  8.00000000E-01  8.00000000E-01  1.50000000E+00
  1.50000000E+00  8.00000000E-01  8.00000000E-01  1.50000000E+00  1.50000000E+00
  8.00000000E-01  8.00000000E-01  1.50000000E+00  1.50000000E+00  8.00000000E-01
  8.00000000E-01  1.50000000E+00  1.50000000E+00  8.00000000E-01  8.00000000E-01
  1.50000000E+00  1.50000000E+00  8.00000000E-01  8.00000000E-01  1.50000000E+00
  1.50000000E+00  8.00000000E-01  8.00000000E-01  1.50000000E+00  1.50000000E+00
  8.00000000E-01  8.00000000E-01  1.50000000E+00  1.50000000E+00  8.00000000E-01
  8.00000000E-01  1.50000000E+00  1.50000000E+00  8.00000000E-01  8.00000000E-01
  1.50000000E+00  1.50000000E+00  8.00000000E-01  8.00000000E-01  1.50000000E+00
  1.50000000E+00  8.00000000E-01  8.00000000E-01  1.50000000E+00  1.50000000E+00
  8.00000000E-01  8.00000000E-01  1.50000000E+00  1.50000000E+00  8.00000000E-01
  8.00000000E-01  1.50000000E+00  1.50000000E+00  8.00000000E-01  8.00000000E-01
  1.50000000E+00  1.50000000E+00  8.00000000E-01  8.00000000E-01  1.50000000E+00
  1.50000000E+00  8.00000000E-01  8.00000000E-01  1.50000000E+00  1.50000000E+00
  8.00000000E-01  8.00000000E-01  1.50000000E+00  1.50000000E+00  8.00000000E-01
  8.00000000E-01  1.50000000E+00  1.50000000E+00  8.00000000E-01  8.00000000E-01
  1.50000000E+00  1.50000000E+00  8.00000000E-01  8.00000000E-01  1.50000000E+00
  1.50000000E+00  8.00000000E-01  8.00000000E-01  1.50000000E+00  1.50000000E+00
  8.00000000E-01  8.00000000E-01  1.50000000E+00  1.50000000E+00  8.00000000E-01
  8.00000000E-01  1.50000000E+00  1.50000000E+00  8.00000000E-01  8.00000000E-01
  1.50000000E+00  1.50000000E+00  8.00000000E-01  8.00000000E-01  1.50000000E+00
  1.50000000E+00  8.00000000E-01  8.00000000E-01  1.50000000E+00  1.50000000E+00
  8.00000000E-01  8.00000000E-01  1.50000000E+00  1.50000000E+00  8.00000000E-01
  8.00000000E-01  1.50000000E+00  1.50000000E+00  8.00000000E-01  8.00000000E-01
  1.50000000E+00  1.50000000E+00  8.00000000E-01  8.00000000E-01  1.50000000E+00
  1.50000000E+00  8.00000000E-01  8.00000000E-01  1.50000000E+00  1.50000000E+00
  8.00000000E-01  8.00000000E-01  1.50000000E+00  1.50000000E+00  8.00000000E-01
  8.00000000E-01  1.50000000E+00  1.50000000E+00  8.00000000E-01  8.00000000E-01
  1.50000000E+00  1.50000000E+00  8.00000000E-01  8.00000000E-01  1.50000000E+00
  1.50000000E+00  8.00000000E-01  8.00000000E-01  1.50000000E+00  1.50000000E+00
  8.00000000E-01  8.00000000E-01  1.50000000E+00  1.50000000E+00  8.00000000E-01
  8.00000000E-01  1.50000000E+00  1.50000000E+00  8.00000000E-01  8.00000000E-01
  1.50000000E+00  1.50000000E+00  8.00000000E-01  8.00000000E-01  1.50000000E+00
  1.50000000E+00  8.00000000E-01  8.00000000E-01  1.50000000E+00  1.50000000E+00
  8.00000000E-01  8.00000000E-01  1.50000000E+00  1.50000000E+00  8.00000000E-01
  8.00000000E-01  1.50000000E+00  1.50000000E+00  8.00000000E-01  8.00000000E-01
  1.50000000E+00  1.50000000E+00  8.00000000E-01  8.00000000E-01  1.50000000E+00
  1.50000000E+00  8.00000000E-01  8.00000000E-01  1.50000000E+00  1.50000000E+00
  8.00000000E-01  8.00000000E-01  1.50000000E+00  1.50000000E+00  8.00000000E-01
  8.00000000E-01  1.50000000E+00  1.50000000E+00  8.00000000E-01  8.00000000E-01
  1.50000000E+00  1.50000000E+00  8.00000000E-01  8.00000000E-01  1.50000000E+00
  1.50000000E+00  8.00000000E-01  8.00000000E-01  1.50000000E+00  1.50000000E+00
  8.00000000E-01  8.00000000E-01  1.50000000E+00  1.50000000E+00  8.00000000E-01
  8.00000000E-01  1.50000000E+00  1.50000000E+00  8.00000000E-01  8.00000000E-01
  1.50000000E+00  1.50000000E+00  8.00000000E-01  8.00000000E-01  1.50000000E+00
  1.50000000E+00  8.00000000E-01  8.00000000E-01  1.50000000E+00  1.50000000E+00
  8.00000000E-01  8.00000000E-01  1.50000000E+00  1.50000000E+00  8.00000000E-01
  8.00000000E-01  1.50000000E+00  1.50000000E+00  8.00000000E-01  8.00000000E-01
  1.50000000E+00  1.50000000E+00  8.00000000E-01  8.00000000E-01  1.50000000E+00
  1.50000000E+00  8.00000000E-01  8.00000000E-01  1.50000000E+00  1.50000000E+00
  8.00000000E-01  8.00000000E-01  1.50000000E+00  1.50000000E+00  8.00000000E-01
  8.00000000E-01  1.50000000E+00  1.50000000E+00  8.00000000E-01  8.00000000E-01
  1.50000000E+00  1.50000000E+00  8.00000000E-01  8.00000000E-01  1.50000000E+00
  1.50000000E+00  8.00000000E-01  8.00000000E-01  1.50000000E+00  1.50000000E+00
  8.00000000E-01  8.00000000E-01  1.50000000E+00  1.50000000E+00  8.00000000E-01
  8.00000000E-01  1.50000000E+00  1.50000000E+00  8.00000000E-01  8.00000000E-01
  1.50000000E+00  1.50000000E+00  8.00000000E-01  8.00000000E-01  1.50000000E+00
  1.50000000E+00  8.00000000E-01  8.00000000E-01  1.50000000E+00  1.50000000E+00
  8.00000000E-01  8.00000000E-01  1.50000000E+00  1.50000000E+00  8.00000000E-01
  8.00000000E-01  1.50000000E+00  1.50000000E+00  8.00000000E-01  8.00000000E-01
  1.50000000E+00  1.50000000E+00  8.00000000E-01  8.00000000E-01  1.50000000E+00
  1.50000000E+00  8.00000000E-01  8.00000000E-01  1.50000000E+00  1.50000000E+00
  8.00000000E-01  8.00000000E-01  1.50000000E+00  1.50000000E+00  8.00000000E-01
  8.00000000E-01  1.50000000E+00  1.50000000E+00  8.00000000E-01  8.00000000E-01
  1.50000000E+00  1.50000000E+00  8.00000000E-01  8.00000000E-01  1.50000000E+00
  1.50000000E+00  8.00000000E-01  8.00000000E-01  1.50000000E+00  1.50000000E+00
  8.00000000E-01  8.00000000E-01  1.50000000E+00  1.50000000E+00  8.00000000E-01
  8.00000000E-01  1.50000000E+00  1.50000000E+00  8.00000000E-01  8.00000000E-01
  1.50000000E+00  1.50000000E+00  8.00000000E-01  8.00000000E-01  1.50000000E+00
  1.50000000E+00  8.00000000E-01  8.00000000E-01  1.50000000E+00  1.50000000E+00
  8.00000000E-01  8.00000000E-01  1.50000000E+00  1.50000000E+00  8.00000000E-01
  8.00000000E-01  1.50000000E+00  1.50000000E+00  8.00000000E-01  8.00000000E-01
  1.50000000E+00  1.50000000E+00  8.00000000E-01  8.00000000E-01  1.50000000E+00
  1.50000000E+00  8.00000000E-01  8.00000000E-01  1.50000000E+00  1.50000000E+00
  8.00000000E-01  8.00000000E-01  1.50000000E+00  1.50000000E+00  8.00000000E-01
  8.00000000E-01  1.50000000E+00  1.50000000E+00  8.00000000E-01  8.00000000E-01
  1.50000000E+00  1.50000000E+00  8.00000000E-01  8.00000000E-01  1.50000000E+00
  1.50000000E+00  8.00000000E-01  8.00000000E-01  1.50000000E+00  1.50000000E+00
  8.00000000E-01  8.00000000E-01  1.50000000E+00  1.50000000E+00  8.00000000E-01
  8.00000000E-01  1.50000000E+00  1.50000000E+00  8.00000000E-01  8.00000000E-01
  1.50000000E+00  1.50000000E+00  8.00000000E-01  8.00000000E-01  1.50000000E+00
  1.50000000E+00  8.00000000E-01  8.00000000E-01  1.50000000E+00  1.50000000E+00
  8.00000000E-01  8.00000000E-01  1.50000000E+00  1.50000000E+00  8.00000000E-01
  8.00000000E-01  1.50000000E+00  1.50000000E+00  8.00000000E-01  8.00000000E-01
  1.50000000E+00  1.50000000E+00  8.00000000E-01  8.00000000E-01  1.50000000E+00
  1.50000000E+00  8.00000000E-01  8.00000000E-01  1.50000000E+00  1.50000000E+00
  8.00000000E-01  8.00000000E-01  1.50000000E+00  1.50000000E+00  8.00000000E-01
  8.00000000E-01  1.50000000E+00  1.50000000E+00  8.00000000E-01  8.00000000E-01
  1.50000000E+00  1.50000000E+00  8.00000000E-01  8.00000000E-01  1.50000000E+00
  1.50000000E+00  8.00000000E-01  8.00000000E-01  1.50000000E+00  1.50000000E+00
  8.00000000E-01  8.00000000E-01  1.50000000E+00  1.50000000E+00  8.00000000E-01
  8.00000000E-01  1.50000000E+00  1.50000000E+00  8.00000000E-01  8.00000000E-01
  1.50000000E+00  1.50000000E+00  8.00000000E-01  8.00000000E-01  1.50000000E+00
  1.50000000E+00  8.00000000E-01  8.00000000E-01  1.50000000E+00  1.50000000E+00
  8.00000000E-01  8.00000000E-01  1.50000000E+00  1.50000000E+00  8.00000000E-01
  8.00000000E-01  1.50000000E+00  1.50000000E+00  8.00000000E-01  8.00000000E-01
  1.50000000E+00  1.50000000E+00  8.00000000E-01  8.00000000E-01  1.50000000E+00
  1.50000000E+00  8.00000000E-01  8.00000000E-01  1.50000000E+00  1.50000000E+00
  8.00000000E-01  8.00000000E-01  1.50000000E+00  1.50000000E+00  8.00000000E-01
  8.00000000E-01  1.50000000E+00  1.50000000E+00  8.00000000E-01  8.00000000E-01
  1.50000000E+00  1.50000000E+00  8.00000000E-01  8.00000000E-01  1.50000000E+00
  1.50000000E+00  8.00000000E-01  8.00000000E-01  1.50000000E+00  1.50000000E+00
  8.00000000E-01  8.00000000E-01  1.50000000E+00  1.50000000E+00  8.00000000E-01
  8.00000000E-01  1.50000000E+00  1.50000000E+00  8.00000000E-01  8.00000000E-01
  1.50000000E+00  1.50000000E+00  8.00000000E-01  8.00000000E-01  1.50000000E+00
  1.50000000E+00  8.00000000E-01  8.00000000E-01  1.50000000E+00  1.50000000E+00
  8.00000000E-01  8.00000000E-01  1.50000000E+00  1.50000000E+00  8.00000000E-01
  8.00000000E-01  1.50000000E+00  1.50000000E+00  8.00000000E-01  8.00000000E-01
  1.50000000E+00  1.50000000E+00  8.00000000E-01  8.00000000E-01  1.50000000E+00
  1.50000000E+00  8.00000000E-01  8.00000000E-01  1.50000000E+00  1.50000000E+00
  8.00000000E-01  8.00000000E-01  1.50000000E+00  1.50000000E+00  8.00000000E-01
  8.00000000E-01  1.50000000E+00  1.50000000E+00  8.00000000E-01  8.00000000E-01
  1.50000000E+00  1.50000000E+00  8.00000000E-01  8.00000000E-01  1.50000000E+00
  1.50000000E+00  8.00000000E-01  8.00000000E-01  1.50000000E+00  1.50000000E+00
  8.00000000E-01  8.00000000E-01  1.50000000E+00  1.50000000E+00  8.00000000E-01
  8.00000000E-01  1.50000000E+00  1.50000000E+00  8.00000000E-01  8.00000000E-01
  1.50000000E+00  1.50000000E+00  8.00000000E-01  8.00000000E-01  1.50000000E+00
  1.50000000E+00  8.00000000E-01  8.00000000E-01  1.50000000E+00  1.50000000E+00
  8.00000000E-01  8.00000000E-01  1.50000000E+00  1.50000000E+00  8.00000000E-01
  8.00000000E-01  1.50000000E+00  1.50000000E+00  8.00000000E-01  8.00000000E-01
  1.50000000E+00  1.50000000E+00  8.00000000E-01  8.00000000E-01  1.50000000E+00
  1.50000000E+00  8.00000000E-01  8.00000000E-01  1.50000000E+00  1.50000000E+00
  8.00000000E-01  8.00000000E-01  1.50000000E+00  1.50000000E+00  8.00000000E-01
  8.00000000E-01  1.50000000E+00  1.50000000E+00  8.00000000E-01  8.00000000E-01
  1.50000000E+00  1.50000000E+00  8.00000000E-01  8.00000000E-01  1.50000000E+00
  1.50000000E+00  8.00000000E-01  8.00000000E-01  1.50000000E+00  1.50000000E+00
  8.00000000E-01  8.00000000E-01  1.50000000E+00  1.50000000E+00  8.00000000E-01
  8.00000000E-01  1.50000000E+00  1.50000000E+00  8.00000000E-01  8.00000000E-01
  1.50000000E+00  1.50000000E+00  8.00000000E-01  8.00000000E-01  1.50000000E+00
  1.50000000E+00  8.00000000E-01  8.00000000E-01  1.50000000E+00  1.50000000E+00
  8.00000000E-01  8.00000000E-01  1.50000000E+00  1.50000000E+00  8.00000000E-01
  8.00000000E-01  1.50000000E+00  1.50000000E+00  8.00000000E-01  8.00000000E-01
  1.50000000E+00  1.50000000E+00  8.00000000E-01  8.00000000E-01  1.50000000E+00
  1.50000000E+00  8.00000000E-01  8.00000000E-01  1.50000000E+00  1.50000000E+00
  8.00000000E-01  8.00000000E-01  1.50000000E+00  1.50000000E+00  8.00000000E-01
  8.00000000E-01  1.50000000E+00  1.50000000E+00  8.00000000E-01  8.00000000E-01
  1.50000000E+00  1.50000000E+00  8.00000000E-01  8.00000000E-01  1.50000000E+00
  1.50000000E+00  8.00000000E-01  8.00000000E-01  1.50000000E+00  1.50000000E+00
  8.00000000E-01  8.00000000E-01  1.50000000E+00  1.50000000E+00  8.00000000E-01
  8.00000000E-01  1.50000000E+00  1.50000000E+00  8.00000000E-01  8.00000000E-01
  1.50000000E+00  1.50000000E+00  8.00000000E-01  8.00000000E-01  1.50000000E+00
  1.50000000E+00  8.00000000E-01  8.00000000E-01  1.50000000E+00  1.50000000E+00
  8.00000000E-01  8.00000000E-01  1.50000000E+00  1.50000000E+00  8.00000000E-01
  8.00000000E-01  1.50000000E+00  1.50000000E+00  8.00000000E-01  8.00000000E-01
  1.50000000E+00  1.50000000E+00  8.00000000E-01  8.00000000E-01  1.50000000E+00
  1.50000000E+00  8.00000000E-01  8.00000000E-01  1.50000000E+00  1.50000000E+00
  8.00000000E-01  8.00000000E-01  1.50000000E+00  1.50000000E+00  8.00000000E-01
  8.00000000E-01  1.50000000E+00  1.50000000E+00  8.00000000E-01  8.00000000E-01
  1.50000000E+00  1.50000000E+00  8.00000000E-01  8.00000000E-01  1.50000000E+00
  1.50000000E+00  8.00000000E-01  8.00000000E-01  1.50000000E+00  1.50000000E+00
  8.00000000E-01  8.00000000E-01  1.50000000E+00  1.50000000E+00  8.00000000E-01
  8.00000000E-01  1.50000000E+00  1.50000000E+00  8.00000000E-01  8.00000000E-01
  1.50000000E+00  1.50000000E+00  8.00000000E-01  8.00000000E-01  1.50000000E+00
  1.50000000E+00  8.00000000E-01  8.00000000E-01  1.50000000E+00  1.50000000E+00
  8.00000000E-01  8.00000000E-01  1.50000000E+00  1.50000000E+00  8.00000000E-01
  8.00000000E-01  1.50000000E+00  1.50000000E+00  8.00000000E-01  8.00000000E-01
  1.50000000E+00  1.50000000E+00  8.00000000E-01  8.00000000E-01  1.50000000E+00
  1.50000000E+00  8.00000000E-01  8.00000000E-01  1.50000000E+00  1.50000000E+00
  8.00000000E-01  8.00000000E-01  1.50000000E+00  1.50000000E+00  8.00000000E-01
  8.00000000E-01  1.50000000E+00  1.50000000E+00  8.00000000E-01  8.00000000E-01
  1.50000000E+00  1.50000000E+00  8.00000000E-01  8.00000000E-01  1.50000000E+00
  1.50000000E+00  8.00000000E-01  8.00000000E-01  1.50000000E+00  1.50000000E+00
  8.00000000E-01  8.00000000E-01  1.50000000E+00  1.50000000E+00  8.00000000E-01
  8.00000000E-01  1.50000000E+00  1.50000000E+00  8.00000000E-01  8.00000000E-01
  1.50000000E+00  1.50000000E+00  8.00000000E-01  8.00000000E-01  1.50000000E+00
  1.50000000E+00  8.00000000E-01  8.00000000E-01  1.50000000E+00  1.50000000E+00
  8.00000000E-01  8.00000000E-01  1.50000000E+00  1.50000000E+00  8.00000000E-01
  8.00000000E-01  1.50000000E+00  1.50000000E+00  8.00000000E-01  8.00000000E-01
  1.50000000E+00  1.50000000E+00  8.00000000E-01  8.00000000E-01  1.50000000E+00
  1.50000000E+00  8.00000000E-01  8.00000000E-01  1.50000000E+00  1.50000000E+00
  8.00000000E-01  8.00000000E-01  1.50000000E+00  1.50000000E+00  8.00000000E-01
  8.00000000E-01  1.50000000E+00  1.50000000E+00  8.00000000E-01  8.00000000E-01
  1.50000000E+00  1.50000000E+00  8.00000000E-01  8.00000000E-01  1.50000000E+00
  1.50000000E+00  8.00000000E-01  8.00000000E-01  1.50000000E+00  1.50000000E+00
  8.00000000E-01  8.00000000E-01  1.50000000E+00  1.50000000E+00  8.00000000E-01
  8.00000000E-01  1.50000000E+00  1.50000000E+00  8.00000000E-01  8.00000000E-01
  1.50000000E+00  1.50000000E+00  8.00000000E-01  8.00000000E-01  1.50000000E+00
  1.50000000E+00  8.00000000E-01  8.00000000E-01  1.50000000E+00  1.50000000E+00
  8.00000000E-01  8.00000000E-01  1.50000000E+00  1.50000000E+00  8.00000000E-01
  8.00000000E-01  1.50000000E+00  1.50000000E+00  8.00000000E-01  8.00000000E-01
  1.50000000E+00  1.50000000E+00  8.00000000E-01  8.00000000E-01  1.50000000E+00
  1.50000000E+00  8.00000000E-01  8.00000000E-01  1.50000000E+00  1.50000000E+00
  8.00000000E-01  8.00000000E-01  1.50000000E+00  1.50000000E+00  8.00000000E-01
  8.00000000E-01  1.50000000E+00  1.50000000E+00  8.00000000E-01  8.00000000E-01
  1.50000000E+00  1.50000000E+00  8.00000000E-01  8.00000000E-01  1.50000000E+00
  1.50000000E+00  8.00000000E-01  8.00000000E-01  1.50000000E+00  1.50000000E+00
  8.00000000E-01  8.00000000E-01  1.50000000E+00  1.50000000E+00  8.00000000E-01
  8.00000000E-01  1.50000000E+00  1.50000000E+00  8.00000000E-01  8.00000000E-01
  1.50000000E+00  1.50000000E+00  8.00000000E-01  8.00000000E-01  1.50000000E+00
  1.50000000E+00  8.00000000E-01  8.00000000E-01  1.50000000E+00  1.50000000E+00
  8.00000000E-01  8.00000000E-01  1.50000000E+00  1.50000000E+00  8.00000000E-01
  8.00000000E-01  1.50000000E+00  1.50000000E+00  8.00000000E-01  8.00000000E-01
  1.50000000E+00  1.50000000E+00  8.00000000E-01  8.00000000E-01  1.50000000E+00
  1.50000000E+00  8.00000000E-01  8.00000000E-01  1.50000000E+00  1.50000000E+00
  8.00000000E-01  8.00000000E-01  1.50000000E+00  1.50000000E+00  8.00000000E-01
  8.00000000E-01  1.50000000E+00  1.50000000E+00  8.00000000E-01  8.00000000E-01
  1.50000000E+00  1.50000000E+00  8.00000000E-01  8.00000000E-01  1.50000000E+00
  1.50000000E+00  8.00000000E-01  8.00000000E-01  1.50000000E+00  1.50000000E+00
  8.00000000E-01  8.00000000E-01  1.50000000E+00  1.50000000E+00  8.00000000E-01
  8.00000000E-01  1.50000000E+00  1.50000000E+00  8.00000000E-01  8.00000000E-01
  1.50000000E+00  1.50000000E+00  8.00000000E-01  8.00000000E-01  1.50000000E+00
  1.50000000E+00  8.00000000E-01  8.00000000E-01  1.50000000E+00  1.50000000E+00
  8.00000000E-01  8.00000000E-01  1.50000000E+00  1.50000000E+00  8.00000000E-01
  8.00000000E-01  1.50000000E+00  1.50000000E+00  8.00000000E-01  8.00000000E-01
  1.50000000E+00  1.50000000E+00  8.00000000E-01  8.00000000E-01  1.50000000E+00
  1.50000000E+00  8.00000000E-01  8.00000000E-01  1.50000000E+00  1.50000000E+00
  8.00000000E-01  8.00000000E-01  1.50000000E+00  1.50000000E+00  8.00000000E-01
  8.00000000E-01  1.50000000E+00  1.50000000E+00  8.00000000E-01  8.00000000E-01
  1.50000000E+00  1.50000000E+00  8.00000000E-01  8.00000000E-01  1.50000000E+00
  1.50000000E+00  8.00000000E-01  8.00000000E-01  1.50000000E+00  1.50000000E+00
  8.00000000E-01  8.00000000E-01  1.50000000E+00  1.50000000E+00  8.00000000E-01
  8.00000000E-01  1.50000000E+00  1.50000000E+00  8.00000000E-01  8.00000000E-01
  1.50000000E+00  1.50000000E+00  8.00000000E-01  8.00000000E-01  1.50000000E+00
  1.50000000E+00  8.00000000E-01  8.00000000E-01  1.50000000E+00  1.50000000E+00
  8.00000000E-01  8.00000000E-01  1.50000000E+00  1.50000000E+00  8.00000000E-01
  8.00000000E-01  1.50000000E+00  1.50000000E+00  8.00000000E-01  8.00000000E-01
  1.50000000E+00  1.50000000E+00  8.00000000E-01  8.00000000E-01  1.50000000E+00
  1.50000000E+00  8.00000000E-01  8.00000000E-01  1.50000000E+00  1.50000000E+00
  8.00000000E-01  8.00000000E-01  1.50000000E+00  1.50000000E+00  8.00000000E-01
  8.00000000E-01  1.50000000E+00  1.50000000E+00  8.00000000E-01  8.00000000E-01
  1.50000000E+00  1.50000000E+00  8.00000000E-01  8.00000000E-01  1.50000000E+00
  1.50000000E+00  8.00000000E-01  8.00000000E-01  1.50000000E+00  1.50000000E+00
  8.00000000E-01  8.00000000E-01  1.50000000E+00  1.50000000E+00  8.00000000E-01
  8.00000000E-01  1.50000000E+00  1.50000000E+00  8.00000000E-01  8.00000000E-01
  1.50000000E+00  1.50000000E+00  8.00000000E-01  8.00000000E-01  1.50000000E+00
  1.50000000E+00  8.00000000E-01  8.00000000E-01  1.50000000E+00  1.50000000E+00
  8.00000000E-01  8.00000000E-01  1.50000000E+00  1.50000000E+00  8.00000000E-01
  8.00000000E-01  1.50000000E+00  1.50000000E+00  8.00000000E-01  8.00000000E-01
  1.50000000E+00  1.50000000E+00  8.00000000E-01  8.00000000E-01  1.50000000E+00
  1.50000000E+00  8.00000000E-01  8.00000000E-01  1.50000000E+00  1.50000000E+00
  8.00000000E-01  8.00000000E-01  1.50000000E+00  1.50000000E+00  8.00000000E-01
  8.00000000E-01  1.50000000E+00  1.50000000E+00  8.00000000E-01  8.00000000E-01
  1.50000000E+00  1.50000000E+00  8.00000000E-01  8.00000000E-01  1.50000000E+00
  1.50000000E+00  8.00000000E-01  8.00000000E-01  1.50000000E+00  1.50000000E+00
  8.00000000E-01  8.00000000E-01  1.50000000E+00  1.50000000E+00  8.00000000E-01
  8.00000000E-01  1.50000000E+00  1.50000000E+00  8.00000000E-01  8.00000000E-01
  1.50000000E+00  1.50000000E+00  8.00000000E-01  8.00000000E-01  1.50000000E+00
  1.50000000E+00  8.00000000E-01  8.00000000E-01  1.50000000E+00  1.50000000E+00
  8.00000000E-01  8.00000000E-01  1.50000000E+00  1.50000000E+00  8.00000000E-01
  8.00000000E-01  1.50000000E+00  1.50000000E+00  8.00000000E-01  8.00000000E-01
  1.50000000E+00  1.50000000E+00  8.00000000E-01  8.00000000E-01  1.50000000E+00
  1.50000000E+00  8.00000000E-01  8.00000000E-01  1.50000000E+00  1.50000000E+00
  8.00000000E-01  8.00000000E-01  1.50000000E+00  1.50000000E+00  8.00000000E-01
  8.00000000E-01  1.50000000E+00  1.50000000E+00  8.00000000E-01  8.00000000E-01
  1.50000000E+00  1.50000000E+00  8.00000000E-01  8.00000000E-01  1.50000000E+00
  1.50000000E+00  8.00000000E-01  8.00000000E-01  1.50000000E+00  1.50000000E+00
  8.00000000E-01  8.00000000E-01  1.50000000E+00  1.50000000E+00  8.00000000E-01
  8.00000000E-01  1.50000000E+00  1.50000000E+00  8.00000000E-01  8.00000000E-01
  1.50000000E+00  1.50000000E+00  8.00000000E-01  8.00000000E-01  1.50000000E+00
  1.50000000E+00  8.00000000E-01  8.00000000E-01  1.50000000E+00  1.50000000E+00
  8.00000000E-01  8.00000000E-01  1.50000000E+00  1.50000000E+00  8.00000000E-01
  8.00000000E-01  1.50000000E+00  1.50000000E+00  8.00000000E-01  8.00000000E-01
  1.50000000E+00  1.50000000E+00  8.00000000E-01  8.00000000E-01  1.50000000E+00
  1.50000000E+00  8.00000000E-01  8.00000000E-01  1.50000000E+00  1.50000000E+00
  8.00000000E-01  8.00000000E-01  1.50000000E+00  1.50000000E+00  8.00000000E-01
  8.00000000E-01  1.50000000E+00  1.50000000E+00  8.00000000E-01  8.00000000E-01
  1.50000000E+00  1.50000000E+00  8.00000000E-01  8.00000000E-01  1.50000000E+00
  1.50000000E+00  8.00000000E-01  8.00000000E-01  1.50000000E+00  1.50000000E+00
  8.00000000E-01  8.00000000E-01  1.50000000E+00  1.50000000E+00  8.00000000E-01
  8.00000000E-01  1.50000000E+00  1.50000000E+00  8.00000000E-01  8.00000000E-01
  1.50000000E+00  1.50000000E+00  8.00000000E-01  8.00000000E-01  1.50000000E+00
  1.50000000E+00  8.00000000E-01  8.00000000E-01  1.50000000E+00  1.50000000E+00
  8.00000000E-01  8.00000000E-01  1.50000000E+00  1.50000000E+00  8.00000000E-01
  8.00000000E-01  1.50000000E+00  1.50000000E+00  8.00000000E-01  8.00000000E-01
  1.50000000E+00  1.50000000E+00  8.00000000E-01  8.00000000E-01  1.50000000E+00
  1.50000000E+00  8.00000000E-01  8.00000000E-01  1.50000000E+00  1.50000000E+00
  8.00000000E-01  8.00000000E-01  1.50000000E+00  1.50000000E+00  8.00000000E-01
  8.00000000E-01  1.50000000E+00  1.50000000E+00  8.00000000E-01  8.00000000E-01
  1.50000000E+00  1.50000000E+00  8.00000000E-01  8.00000000E-01  1.50000000E+00
  1.50000000E+00  8.00000000E-01  8.00000000E-01  1.50000000E+00  1.50000000E+00
  8.00000000E-01  8.00000000E-01  1.50000000E+00  1.50000000E+00  8.00000000E-01
  8.00000000E-01  1.50000000E+00  1.50000000E+00  8.00000000E-01  8.00000000E-01
  1.50000000E+00  1.50000000E+00  8.00000000E-01  8.00000000E-01  1.50000000E+00
  1.50000000E+00  8.00000000E-01  8.00000000E-01  1.50000000E+00  1.50000000E+00
  8.00000000E-01  8.00000000E-01  1.50000000E+00  1.50000000E+00  8.00000000E-01
  8.00000000E-01  1.50000000E+00  1.50000000E+00  8.00000000E-01  8.00000000E-01
  1.50000000E+00  1.50000000E+00  8.00000000E-01  8.00000000E-01  1.50000000E+00
  1.50000000E+00  8.00000000E-01  8.00000000E-01  1.50000000E+00  1.50000000E+00
  8.00000000E-01  8.00000000E-01  1.50000000E+00  1.50000000E+00  8.00000000E-01
  8.00000000E-01  1.50000000E+00  1.50000000E+00  8.00000000E-01  8.00000000E-01
  1.50000000E+00  1.50000000E+00  8.00000000E-01  8.00000000E-01  1.50000000E+00
  1.50000000E+00  8.00000000E-01  8.00000000E-01  1.50000000E+00  1.50000000E+00
  8.00000000E-01  8.00000000E-01  1.50000000E+00  1.50000000E+00  8.00000000E-01
  8.00000000E-01  1.50000000E+00  1.50000000E+00  8.00000000E-01  8.00000000E-01
  1.50000000E+00  1.50000000E+00  8.00000000E-01  8.00000000E-01  1.50000000E+00
  1.50000000E+00  8.00000000E-01  8.00000000E-01  1.50000000E+00  1.50000000E+00
  8.00000000E-01  8.00000000E-01  1.50000000E+00  1.50000000E+00  8.00000000E-01
  8.00000000E-01  1.50000000E+00  1.50000000E+00  8.00000000E-01  8.00000000E-01
  1.50000000E+00  1.50000000E+00  8.00000000E-01  8.00000000E-01  1.50000000E+00
  1.50000000E+00  8.00000000E-01  8.00000000E-01  1.50000000E+00  1.50000000E+00
  8.00000000E-01  8.00000000E-01  1.50000000E+00  1.50000000E+00  8.00000000E-01
  8.00000000E-01  1.50000000E+00  1.50000000E+00  8.00000000E-01  8.00000000E-01
  1.50000000E+00  1.50000000E+00  8.00000000E-01  8.00000000E-01  1.50000000E+00
  1.50000000E+00  8.00000000E-01  8.00000000E-01  1.50000000E+00  1.50000000E+00
  8.00000000E-01  8.00000000E-01  1.50000000E+00  1.50000000E+00  8.00000000E-01
  8.00000000E-01  1.50000000E+00  1.50000000E+00  8.00000000E-01  8.00000000E-01
  1.50000000E+00  1.50000000E+00  8.00000000E-01  8.00000000E-01  1.50000000E+00
  1.50000000E+00  8.00000000E-01  8.00000000E-01  1.50000000E+00  1.50000000E+00
  8.00000000E-01  8.00000000E-01  1.50000000E+00  1.50000000E+00  8.00000000E-01
  8.00000000E-01  1.50000000E+00  1.50000000E+00  8.00000000E-01  8.00000000E-01
  1.50000000E+00  1.50000000E+00  8.00000000E-01  8.00000000E-01  1.50000000E+00
  1.50000000E+00  8.00000000E-01  8.00000000E-01  1.50000000E+00  1.50000000E+00
  8.00000000E-01  8.00000000E-01  1.50000000E+00  1.50000000E+00  8.00000000E-01
  8.00000000E-01  1.50000000E+00  1.50000000E+00  8.00000000E-01  8.00000000E-01
  1.50000000E+00  1.50000000E+00  8.00000000E-01  8.00000000E-01  1.50000000E+00
  1.50000000E+00  8.00000000E-01  8.00000000E-01  1.50000000E+00  1.50000000E+00
  8.00000000E-01  8.00000000E-01  1.50000000E+00  1.50000000E+00  8.00000000E-01
  8.00000000E-01  1.50000000E+00  1.50000000E+00  8.00000000E-01  8.00000000E-01
  1.50000000E+00  1.50000000E+00  8.00000000E-01  8.00000000E-01  1.50000000E+00
  1.50000000E+00  8.00000000E-01  8.00000000E-01  1.50000000E+00  1.50000000E+00
  8.00000000E-01  8.00000000E-01  1.50000000E+00  1.50000000E+00  8.00000000E-01
  8.00000000E-01  1.50000000E+00  1.50000000E+00  8.00000000E-01  8.00000000E-01
  1.50000000E+00  1.50000000E+00  8.00000000E-01  8.00000000E-01  1.50000000E+00
  1.50000000E+00  8.00000000E-01  8.00000000E-01  1.50000000E+00  1.50000000E+00
  8.00000000E-01  8.00000000E-01  1.50000000E+00  1.50000000E+00  8.00000000E-01
  8.00000000E-01  1.50000000E+00  1.50000000E+00  8.00000000E-01  8.00000000E-01
  1.50000000E+00  1.50000000E+00  8.00000000E-01  8.00000000E-01  1.50000000E+00
  1.50000000E+00  8.00000000E-01  8.00000000E-01  1.50000000E+00  1.50000000E+00
  8.00000000E-01  8.00000000E-01  1.50000000E+00  1.50000000E+00  8.00000000E-01
  8.00000000E-01  1.50000000E+00  1.50000000E+00  8.00000000E-01  8.00000000E-01
  1.50000000E+00  1.50000000E+00  8.00000000E-01  8.00000000E-01  1.50000000E+00
  1.50000000E+00  8.00000000E-01  8.00000000E-01  1.50000000E+00  1.50000000E+00
  8.00000000E-01  8.00000000E-01  1.50000000E+00  1.50000000E+00  8.00000000E-01
  8.00000000E-01  1.50000000E+00  1.50000000E+00  8.00000000E-01  8.00000000E-01
  1.50000000E+00  1.50000000E+00  8.00000000E-01  8.00000000E-01  1.50000000E+00
  1.50000000E+00  8.00000000E-01  8.00000000E-01  1.50000000E+00  1.50000000E+00
  8.00000000E-01  8.00000000E-01  1.50000000E+00  1.50000000E+00  8.00000000E-01
  8.00000000E-01  1.50000000E+00  1.50000000E+00  8.00000000E-01  8.00000000E-01
  1.50000000E+00  1.50000000E+00  8.00000000E-01  8.00000000E-01  1.50000000E+00
  1.50000000E+00  8.00000000E-01  8.00000000E-01  1.50000000E+00  1.50000000E+00
  8.00000000E-01  8.00000000E-01  1.50000000E+00  1.50000000E+00  8.00000000E-01
  8.00000000E-01  1.50000000E+00  1.50000000E+00  8.00000000E-01  8.00000000E-01
  1.50000000E+00  1.50000000E+00  8.00000000E-01  8.00000000E-01  1.50000000E+00
  1.50000000E+00  8.00000000E-01  8.00000000E-01  1.50000000E+00  1.50000000E+00
  8.00000000E-01  8.00000000E-01  1.50000000E+00  1.50000000E+00  8.00000000E-01
  8.00000000E-01  1.50000000E+00  1.50000000E+00  8.00000000E-01  8.00000000E-01
  1.50000000E+00  1.50000000E+00  8.00000000E-01  8.00000000E-01  1.50000000E+00
  1.50000000E+00  8.00000000E-01  8.00000000E-01  1.50000000E+00  1.50000000E+00
  8.00000000E-01  8.00000000E-01  1.50000000E+00  1.50000000E+00  8.00000000E-01
  8.00000000E-01  1.50000000E+00  1.50000000E+00  8.00000000E-01  8.00000000E-01
  1.50000000E+00  1.50000000E+00  8.00000000E-01  8.00000000E-01  1.50000000E+00
  1.50000000E+00  8.00000000E-01  8.00000000E-01  1.50000000E+00  1.50000000E+00
  8.00000000E-01  8.00000000E-01  1.50000000E+00  1.50000000E+00  8.00000000E-01
  8.00000000E-01  1.50000000E+00  1.50000000E+00  8.00000000E-01  8.00000000E-01
  1.50000000E+00  1.50000000E+00  8.00000000E-01  8.00000000E-01  1.50000000E+00
  1.50000000E+00  8.00000000E-01  8.00000000E-01  1.50000000E+00  1.50000000E+00
  8.00000000E-01  8.00000000E-01  1.50000000E+00  1.50000000E+00  8.00000000E-01
  8.00000000E-01  1.50000000E+00  1.50000000E+00  8.00000000E-01  8.00000000E-01
  1.50000000E+00  1.50000000E+00  8.00000000E-01  8.00000000E-01  1.50000000E+00
  1.50000000E+00  8.00000000E-01  8.00000000E-01  1.50000000E+00  1.50000000E+00
  8.00000000E-01  8.00000000E-01  1.50000000E+00  1.50000000E+00  8.00000000E-01
  8.00000000E-01  1.50000000E+00  1.50000000E+00  8.00000000E-01  8.00000000E-01
  1.50000000E+00  1.50000000E+00  8.00000000E-01  8.00000000E-01  1.50000000E+00
  1.50000000E+00  8.00000000E-01  8.00000000E-01  1.50000000E+00  1.50000000E+00
  8.00000000E-01  8.00000000E-01  1.50000000E+00  1.50000000E+00  8.00000000E-01
  8.00000000E-01  1.50000000E+00  1.50000000E+00  8.00000000E-01  8.00000000E-01
  1.50000000E+00  1.50000000E+00  8.00000000E-01  8.00000000E-01  1.50000000E+00
  1.50000000E+00  8.00000000E-01  8.00000000E-01  1.50000000E+00  1.50000000E+00
  8.00000000E-01  8.00000000E-01  1.50000000E+00  1.50000000E+00  8.00000000E-01
  8.00000000E-01  1.50000000E+00  1.50000000E+00  8.00000000E-01  8.00000000E-01
  1.50000000E+00  1.50000000E+00  8.00000000E-01  8.00000000E-01  1.50000000E+00
  1.50000000E+00  8.00000000E-01  8.00000000E-01  1.50000000E+00  1.50000000E+00
  8.00000000E-01  8.00000000E-01  1.50000000E+00  1.50000000E+00  8.00000000E-01
  8.00000000E-01  1.50000000E+00  1.50000000E+00  8.00000000E-01  8.00000000E-01
  1.50000000E+00  1.50000000E+00  8.00000000E-01  8.00000000E-01  1.50000000E+00
  1.50000000E+00  8.00000000E-01  8.00000000E-01  1.50000000E+00  1.50000000E+00
  8.00000000E-01  8.00000000E-01  1.50000000E+00  1.50000000E+00  8.00000000E-01
  8.00000000E-01  1.50000000E+00  1.50000000E+00  8.00000000E-01  8.00000000E-01
  1.50000000E+00  1.50000000E+00  8.00000000E-01  8.00000000E-01  1.50000000E+00
  1.50000000E+00  8.00000000E-01  8.00000000E-01  1.50000000E+00  1.50000000E+00
  8.00000000E-01  8.00000000E-01  1.50000000E+00  1.50000000E+00  8.00000000E-01
  8.00000000E-01  1.50000000E+00  1.50000000E+00  8.00000000E-01  8.00000000E-01
  1.50000000E+00  1.50000000E+00  8.00000000E-01  8.00000000E-01  1.50000000E+00
  1.50000000E+00  8.00000000E-01  8.00000000E-01  1.50000000E+00  1.50000000E+00
  8.00000000E-01  8.00000000E-01  1.50000000E+00  1.50000000E+00  8.00000000E-01
  8.00000000E-01  1.50000000E+00  1.50000000E+00  8.00000000E-01  8.00000000E-01
  1.50000000E+00  1.50000000E+00  8.00000000E-01  8.00000000E-01  1.50000000E+00
  1.50000000E+00  8.00000000E-01  8.00000000E-01  1.50000000E+00  1.50000000E+00
  8.00000000E-01  8.00000000E-01  1.50000000E+00  1.50000000E+00  8.00000000E-01
  8.00000000E-01  1.50000000E+00  1.50000000E+00  8.00000000E-01  8.00000000E-01
  1.50000000E+00  1.50000000E+00  8.00000000E-01  8.00000000E-01  1.50000000E+00
  1.50000000E+00  8.00000000E-01  8.00000000E-01  1.50000000E+00  1.50000000E+00
  8.00000000E-01  8.00000000E-01  1.50000000E+00  1.50000000E+00  8.00000000E-01
  8.00000000E-01  1.50000000E+00  1.50000000E+00  8.00000000E-01  8.00000000E-01
  1.50000000E+00  1.50000000E+00  8.00000000E-01  8.00000000E-01  1.50000000E+00
  1.50000000E+00  8.00000000E-01  8.00000000E-01  1.50000000E+00  1.50000000E+00
  8.00000000E-01  8.00000000E-01  1.50000000E+00  1.50000000E+00  8.00000000E-01
  8.00000000E-01  1.50000000E+00  1.50000000E+00  8.00000000E-01  8.00000000E-01
  1.50000000E+00  1.50000000E+00  8.00000000E-01  8.00000000E-01  1.50000000E+00
  1.50000000E+00  8.00000000E-01  8.00000000E-01  1.50000000E+00  1.50000000E+00
  8.00000000E-01  8.00000000E-01  1.50000000E+00  1.50000000E+00  8.00000000E-01
  8.00000000E-01  1.50000000E+00  1.50000000E+00  8.00000000E-01  8.00000000E-01
  1.50000000E+00  1.50000000E+00  8.00000000E-01  8.00000000E-01  1.50000000E+00
  1.50000000E+00  8.00000000E-01  8.00000000E-01  1.50000000E+00  1.50000000E+00
  8.00000000E-01  8.00000000E-01  1.50000000E+00  1.50000000E+00  8.00000000E-01
  8.00000000E-01  1.50000000E+00  1.50000000E+00  8.00000000E-01  8.00000000E-01
  1.50000000E+00  1.50000000E+00  8.00000000E-01  8.00000000E-01  1.50000000E+00
  1.50000000E+00  8.00000000E-01  8.00000000E-01  1.50000000E+00  1.50000000E+00
  8.00000000E-01  8.00000000E-01  1.50000000E+00  1.50000000E+00  8.00000000E-01
  8.00000000E-01  1.50000000E+00  1.50000000E+00  8.00000000E-01  8.00000000E-01
  1.50000000E+00  1.50000000E+00  8.00000000E-01  8.00000000E-01  1.50000000E+00
  1.50000000E+00  8.00000000E-01  8.00000000E-01  1.50000000E+00  1.50000000E+00
  8.00000000E-01  8.00000000E-01  1.50000000E+00  1.50000000E+00  8.00000000E-01
  8.00000000E-01  1.50000000E+00  1.50000000E+00  8.00000000E-01  8.00000000E-01
  1.50000000E+00  1.50000000E+00  8.00000000E-01  8.00000000E-01  1.50000000E+00
  1.50000000E+00  8.00000000E-01  8.00000000E-01  1.50000000E+00  1.50000000E+00
  8.00000000E-01  8.00000000E-01  1.50000000E+00  1.50000000E+00  8.00000000E-01
  8.00000000E-01  1.50000000E+00  1.50000000E+00  8.00000000E-01  8.00000000E-01
  1.50000000E+00  1.50000000E+00  8.00000000E-01  8.00000000E-01  1.50000000E+00
  1.50000000E+00  8.00000000E-01  8.00000000E-01  1.50000000E+00  1.50000000E+00
  8.00000000E-01  8.00000000E-01  1.50000000E+00  1.50000000E+00  8.00000000E-01
  8.00000000E-01  1.50000000E+00  1.50000000E+00  8.00000000E-01  8.00000000E-01
  1.50000000E+00  1.50000000E+00  8.00000000E-01  8.00000000E-01  1.50000000E+00
  1.50000000E+00  8.00000000E-01  8.00000000E-01  1.50000000E+00  1.50000000E+00
  8.00000000E-01  8.00000000E-01  1.50000000E+00  1.50000000E+00  8.00000000E-01
  8.00000000E-01  1.50000000E+00  1.50000000E+00  8.00000000E-01  8.00000000E-01
  1.50000000E+00  1.50000000E+00  8.00000000E-01  8.00000000E-01  1.50000000E+00
  1.50000000E+00  8.00000000E-01  8.00000000E-01  1.50000000E+00  1.50000000E+00
  8.00000000E-01  8.00000000E-01  1.50000000E+00  1.50000000E+00  8.00000000E-01
  8.00000000E-01  1.50000000E+00  1.50000000E+00  8.00000000E-01  8.00000000E-01
  1.50000000E+00  1.50000000E+00  8.00000000E-01  8.00000000E-01  1.50000000E+00
  1.50000000E+00  8.00000000E-01  8.00000000E-01  1.50000000E+00  1.50000000E+00
  8.00000000E-01  8.00000000E-01  1.50000000E+00  1.50000000E+00  8.00000000E-01
  8.00000000E-01  1.50000000E+00  1.50000000E+00  8.00000000E-01  8.00000000E-01
  1.50000000E+00  1.50000000E+00  8.00000000E-01  8.00000000E-01  1.50000000E+00
  1.50000000E+00  8.00000000E-01  8.00000000E-01  1.50000000E+00  1.50000000E+00
  8.00000000E-01  8.00000000E-01  1.50000000E+00  1.50000000E+00  8.00000000E-01
  8.00000000E-01  1.50000000E+00  1.50000000E+00  8.00000000E-01  8.00000000E-01
  1.50000000E+00  1.50000000E+00  8.00000000E-01  8.00000000E-01  1.50000000E+00
  1.50000000E+00  8.00000000E-01  8.00000000E-01  1.50000000E+00  1.50000000E+00
  8.00000000E-01  8.00000000E-01  1.50000000E+00  1.50000000E+00  8.00000000E-01
  8.00000000E-01  1.50000000E+00  1.50000000E+00  8.00000000E-01  8.00000000E-01
  1.50000000E+00  1.50000000E+00  8.00000000E-01  8.00000000E-01  1.50000000E+00
  1.50000000E+00  8.00000000E-01  8.00000000E-01  1.50000000E+00  1.50000000E+00
  8.00000000E-01  8.00000000E-01  1.50000000E+00  1.50000000E+00  8.00000000E-01
  8.00000000E-01  1.50000000E+00  1.50000000E+00  8.00000000E-01  8.00000000E-01
  1.50000000E+00  1.50000000E+00  8.00000000E-01  8.00000000E-01  1.50000000E+00
  1.50000000E+00  8.00000000E-01  8.00000000E-01  1.50000000E+00  1.50000000E+00
  8.00000000E-01  8.00000000E-01  1.50000000E+00  1.50000000E+00  8.00000000E-01
  8.00000000E-01  1.50000000E+00  1.50000000E+00  8.00000000E-01  8.00000000E-01
  1.50000000E+00  1.50000000E+00  8.00000000E-01  8.00000000E-01  1.50000000E+00
  1.50000000E+00  8.00000000E-01  8.00000000E-01  1.50000000E+00  1.50000000E+00
  8.00000000E-01  8.00000000E-01  1.50000000E+00  1.50000000E+00  8.00000000E-01
  8.00000000E-01  1.50000000E+00  1.50000000E+00  8.00000000E-01  8.00000000E-01
  1.50000000E+00  1.50000000E+00  8.00000000E-01  8.00000000E-01  1.50000000E+00
  1.50000000E+00  8.00000000E-01  8.00000000E-01  1.50000000E+00  1.50000000E+00
  8.00000000E-01  8.00000000E-01  1.50000000E+00  1.50000000E+00  8.00000000E-01
  8.00000000E-01  1.50000000E+00  1.50000000E+00  8.00000000E-01  8.00000000E-01
  1.50000000E+00  1.50000000E+00  8.00000000E-01  8.00000000E-01  1.50000000E+00
  1.50000000E+00  8.00000000E-01  8.00000000E-01  1.50000000E+00  1.50000000E+00
  8.00000000E-01  8.00000000E-01  1.50000000E+00  1.50000000E+00  8.00000000E-01
  8.00000000E-01  1.50000000E+00  1.50000000E+00  8.00000000E-01  8.00000000E-01
  1.50000000E+00  1.50000000E+00  8.00000000E-01  8.00000000E-01  1.50000000E+00
  1.50000000E+00  8.00000000E-01  8.00000000E-01  1.50000000E+00  1.50000000E+00
  8.00000000E-01  8.00000000E-01  1.50000000E+00  1.50000000E+00  8.00000000E-01
  8.00000000E-01  1.50000000E+00  1.50000000E+00  8.00000000E-01  8.00000000E-01
  1.50000000E+00  1.50000000E+00  8.00000000E-01  8.00000000E-01  1.50000000E+00
  1.50000000E+00  8.00000000E-01  8.00000000E-01  1.50000000E+00  1.50000000E+00
  8.00000000E-01  8.00000000E-01  1.50000000E+00  1.50000000E+00  8.00000000E-01
  8.00000000E-01  1.50000000E+00  1.50000000E+00  8.00000000E-01  8.00000000E-01
  1.50000000E+00  1.50000000E+00  8.00000000E-01  8.00000000E-01  1.50000000E+00
  1.50000000E+00  8.00000000E-01  8.00000000E-01  1.50000000E+00  1.50000000E+00
  8.00000000E-01  8.00000000E-01  1.50000000E+00  1.50000000E+00  8.00000000E-01
  8.00000000E-01  1.50000000E+00  1.50000000E+00  8.00000000E-01  8.00000000E-01
  1.50000000E+00  1.50000000E+00  8.00000000E-01  8.00000000E-01  1.50000000E+00
  1.50000000E+00  8.00000000E-01  8.00000000E-01  1.50000000E+00  1.50000000E+00
  8.00000000E-01  8.00000000E-01  1.50000000E+00  1.50000000E+00  8.00000000E-01
  8.00000000E-01  1.50000000E+00  1.50000000E+00  8.00000000E-01  8.00000000E-01
  1.50000000E+00  1.50000000E+00  8.00000000E-01  8.00000000E-01  1.50000000E+00
  1.50000000E+00  8.00000000E-01  8.00000000E-01  1.50000000E+00  1.50000000E+00
  8.00000000E-01  8.00000000E-01  1.50000000E+00  1.50000000E+00  8.00000000E-01
  8.00000000E-01  1.50000000E+00  1.50000000E+00  8.00000000E-01  8.00000000E-01
  1.50000000E+00  1.50000000E+00  8.00000000E-01  8.00000000E-01  1.50000000E+00
  1.50000000E+00  8.00000000E-01  8.00000000E-01  1.50000000E+00  1.50000000E+00
  8.00000000E-01  8.00000000E-01  1.50000000E+00  1.50000000E+00  8.00000000E-01
  8.00000000E-01  1.50000000E+00  1.50000000E+00  8.00000000E-01  8.00000000E-01
  1.50000000E+00  1.50000000E+00  8.00000000E-01  8.00000000E-01  1.50000000E+00
  1.50000000E+00  8.00000000E-01  8.00000000E-01  1.50000000E+00  1.50000000E+00
  8.00000000E-01  8.00000000E-01  1.50000000E+00  1.50000000E+00  8.00000000E-01
  8.00000000E-01  1.50000000E+00  1.50000000E+00  8.00000000E-01  8.00000000E-01
  1.50000000E+00  1.50000000E+00  8.00000000E-01  8.00000000E-01  1.50000000E+00
  1.50000000E+00  8.00000000E-01  8.00000000E-01  1.50000000E+00  1.50000000E+00
  8.00000000E-01  8.00000000E-01  1.50000000E+00  1.50000000E+00  8.00000000E-01
  8.00000000E-01  1.50000000E+00  1.50000000E+00  8.00000000E-01  8.00000000E-01
  1.50000000E+00  1.50000000E+00  8.00000000E-01  8.00000000E-01  1.50000000E+00
  1.50000000E+00  8.00000000E-01  8.00000000E-01  1.50000000E+00  1.50000000E+00
  8.00000000E-01  8.00000000E-01  1.50000000E+00  1.50000000E+00  8.00000000E-01
  8.00000000E-01  1.50000000E+00  1.50000000E+00  8.00000000E-01  8.00000000E-01
  1.50000000E+00  1.50000000E+00  8.00000000E-01  8.00000000E-01  1.50000000E+00
  1.50000000E+00  8.00000000E-01  8.00000000E-01  1.50000000E+00  1.50000000E+00
  8.00000000E-01  8.00000000E-01  1.50000000E+00  1.50000000E+00  8.00000000E-01
  8.00000000E-01  1.50000000E+00  1.50000000E+00  8.00000000E-01  8.00000000E-01
  1.50000000E+00  1.50000000E+00  8.00000000E-01  8.00000000E-01  1.50000000E+00
  1.50000000E+00  8.00000000E-01  8.00000000E-01  1.50000000E+00  1.50000000E+00
  8.00000000E-01  8.00000000E-01  1.50000000E+00  1.50000000E+00  8.00000000E-01
  8.00000000E-01  1.50000000E+00  1.50000000E+00  8.00000000E-01  8.00000000E-01
  1.50000000E+00  1.50000000E+00  8.00000000E-01  8.00000000E-01  1.50000000E+00
  1.50000000E+00  8.00000000E-01  8.00000000E-01  1.50000000E+00  1.50000000E+00
  8.00000000E-01  8.00000000E-01  1.50000000E+00  1.50000000E+00  8.00000000E-01
  8.00000000E-01  1.50000000E+00  1.50000000E+00  8.00000000E-01  8.00000000E-01
  1.50000000E+00  1.50000000E+00  8.00000000E-01  8.00000000E-01  1.50000000E+00
  1.50000000E+00  8.00000000E-01  8.00000000E-01  1.50000000E+00  1.50000000E+00
  8.00000000E-01  8.00000000E-01  1.50000000E+00  1.50000000E+00  8.00000000E-01
  8.00000000E-01  1.50000000E+00  1.50000000E+00  8.00000000E-01  8.00000000E-01
  1.50000000E+00  1.50000000E+00  8.00000000E-01  8.00000000E-01  1.50000000E+00
  1.50000000E+00  8.00000000E-01  8.00000000E-01  1.50000000E+00  1.50000000E+00
  8.00000000E-01  8.00000000E-01  1.50000000E+00  1.50000000E+00  8.00000000E-01
  8.00000000E-01  1.50000000E+00  1.50000000E+00  8.00000000E-01  8.00000000E-01
  1.50000000E+00  1.50000000E+00  8.00000000E-01  8.00000000E-01  1.50000000E+00
  1.50000000E+00  8.00000000E-01  8.00000000E-01  1.50000000E+00  1.50000000E+00
  8.00000000E-01  8.00000000E-01  1.50000000E+00  1.50000000E+00  8.00000000E-01
  8.00000000E-01  1.50000000E+00  1.50000000E+00  8.00000000E-01  8.00000000E-01
  1.50000000E+00  1.50000000E+00  8.00000000E-01  8.00000000E-01  1.50000000E+00
  1.50000000E+00  8.00000000E-01  8.00000000E-01  1.50000000E+00  1.50000000E+00
  8.00000000E-01  8.00000000E-01  1.50000000E+00  1.50000000E+00  8.00000000E-01
  8.00000000E-01  1.50000000E+00  1.50000000E+00  8.00000000E-01  8.00000000E-01
  1.50000000E+00  1.50000000E+00  8.00000000E-01  8.00000000E-01  1.50000000E+00
  1.50000000E+00  8.00000000E-01  8.00000000E-01  1.50000000E+00  1.50000000E+00
  8.00000000E-01  8.00000000E-01  1.50000000E+00  1.50000000E+00  8.00000000E-01
  8.00000000E-01  1.50000000E+00  1.50000000E+00  8.00000000E-01  8.00000000E-01
  1.50000000E+00  1.50000000E+00  8.00000000E-01  8.00000000E-01  1.50000000E+00
  1.50000000E+00  8.00000000E-01  8.00000000E-01  1.50000000E+00  1.50000000E+00
  8.00000000E-01  8.00000000E-01  1.50000000E+00  1.50000000E+00  8.00000000E-01
  8.00000000E-01  1.50000000E+00  1.50000000E+00  8.00000000E-01  8.00000000E-01
  1.50000000E+00  1.50000000E+00  8.00000000E-01  8.00000000E-01  1.50000000E+00
  1.50000000E+00  8.00000000E-01  8.00000000E-01  1.50000000E+00  1.50000000E+00
  8.00000000E-01  8.00000000E-01  1.50000000E+00  1.50000000E+00  8.00000000E-01
  8.00000000E-01  1.50000000E+00  1.50000000E+00  8.00000000E-01  8.00000000E-01
  1.50000000E+00  1.50000000E+00  8.00000000E-01  8.00000000E-01  1.50000000E+00
  1.50000000E+00  8.00000000E-01  8.00000000E-01  1.50000000E+00  1.50000000E+00
  8.00000000E-01  8.00000000E-01  1.50000000E+00  1.50000000E+00  8.00000000E-01
  8.00000000E-01  1.50000000E+00  1.50000000E+00  8.00000000E-01  8.00000000E-01
  1.50000000E+00  1.50000000E+00  8.00000000E-01  8.00000000E-01  1.50000000E+00
  1.50000000E+00  8.00000000E-01  8.00000000E-01  1.50000000E+00  1.50000000E+00
  8.00000000E-01  8.00000000E-01  1.50000000E+00  1.50000000E+00  8.00000000E-01
  8.00000000E-01  1.50000000E+00  1.50000000E+00  8.00000000E-01  8.00000000E-01
  1.50000000E+00  1.50000000E+00  8.00000000E-01  8.00000000E-01  1.50000000E+00
  1.50000000E+00  8.00000000E-01  8.00000000E-01  1.50000000E+00  1.50000000E+00
  8.00000000E-01  8.00000000E-01  1.50000000E+00  1.50000000E+00  8.00000000E-01
  8.00000000E-01  1.50000000E+00  1.50000000E+00  8.00000000E-01  8.00000000E-01
  1.50000000E+00  1.50000000E+00  8.00000000E-01  8.00000000E-01  1.50000000E+00
  1.50000000E+00  8.00000000E-01  8.00000000E-01  1.50000000E+00  1.50000000E+00
  8.00000000E-01  8.00000000E-01  1.50000000E+00  1.50000000E+00  8.00000000E-01
  8.00000000E-01  1.50000000E+00  1.50000000E+00  8.00000000E-01  8.00000000E-01
  1.50000000E+00  1.50000000E+00  8.00000000E-01  8.00000000E-01  1.50000000E+00
  1.50000000E+00  8.00000000E-01  8.00000000E-01  1.50000000E+00  1.50000000E+00
  8.00000000E-01  8.00000000E-01  1.50000000E+00  1.50000000E+00  8.00000000E-01
  8.00000000E-01  1.50000000E+00  1.50000000E+00  8.00000000E-01  8.00000000E-01
  1.50000000E+00  1.50000000E+00  8.00000000E-01  8.00000000E-01  1.50000000E+00
  1.50000000E+00  8.00000000E-01  8.00000000E-01  1.50000000E+00  1.50000000E+00
  8.00000000E-01  8.00000000E-01  1.50000000E+00  1.50000000E+00  8.00000000E-01
  8.00000000E-01  1.50000000E+00  1.50000000E+00  8.00000000E-01  8.00000000E-01
  1.50000000E+00  1.50000000E+00  8.00000000E-01  8.00000000E-01  1.50000000E+00
  1.50000000E+00  8.00000000E-01  8.00000000E-01  1.50000000E+00  1.50000000E+00
  8.00000000E-01  8.00000000E-01  1.50000000E+00  1.50000000E+00  8.00000000E-01
  8.00000000E-01  1.50000000E+00  1.50000000E+00  8.00000000E-01  8.00000000E-01
  1.50000000E+00  1.50000000E+00  8.00000000E-01  8.00000000E-01  1.50000000E+00
  1.50000000E+00  8.00000000E-01  8.00000000E-01  1.50000000E+00  1.50000000E+00
  8.00000000E-01  8.00000000E-01  1.50000000E+00  1.50000000E+00  8.00000000E-01
  8.00000000E-01  1.50000000E+00  1.50000000E+00  8.00000000E-01  8.00000000E-01
  1.50000000E+00  1.50000000E+00  8.00000000E-01  8.00000000E-01  1.50000000E+00
  1.50000000E+00  8.00000000E-01  8.00000000E-01  1.50000000E+00  1.50000000E+00
  8.00000000E-01  8.00000000E-01  1.50000000E+00  1.50000000E+00  8.00000000E-01
  8.00000000E-01  1.50000000E+00  1.50000000E+00  8.00000000E-01  8.00000000E-01
  1.50000000E+00  1.50000000E+00  8.00000000E-01  8.00000000E-01  1.50000000E+00
  1.50000000E+00  8.00000000E-01  8.00000000E-01  1.50000000E+00  1.50000000E+00
  8.00000000E-01  8.00000000E-01  1.50000000E+00  1.50000000E+00  8.00000000E-01
  8.00000000E-01  1.50000000E+00  1.50000000E+00  8.00000000E-01  8.00000000E-01
  1.50000000E+00  1.50000000E+00  8.00000000E-01  8.00000000E-01  1.50000000E+00
  1.50000000E+00  8.00000000E-01  8.00000000E-01  1.50000000E+00  1.50000000E+00
  8.00000000E-01  8.00000000E-01  1.50000000E+00  1.50000000E+00  8.00000000E-01
  8.00000000E-01  1.50000000E+00  1.50000000E+00  8.00000000E-01  8.00000000E-01
  1.50000000E+00  1.50000000E+00  8.00000000E-01  8.00000000E-01  1.50000000E+00
  1.50000000E+00  8.00000000E-01  8.00000000E-01  1.50000000E+00  1.50000000E+00
  8.00000000E-01  8.00000000E-01  1.50000000E+00  1.50000000E+00  8.00000000E-01
  8.00000000E-01  1.50000000E+00  1.50000000E+00  8.00000000E-01  8.00000000E-01
  1.50000000E+00  1.50000000E+00  8.00000000E-01  8.00000000E-01  1.50000000E+00
  1.50000000E+00  8.00000000E-01  8.00000000E-01  1.50000000E+00  1.50000000E+00
  8.00000000E-01  8.00000000E-01  1.50000000E+00  1.50000000E+00  8.00000000E-01
  8.00000000E-01  1.50000000E+00  1.50000000E+00  8.00000000E-01  8.00000000E-01
  1.50000000E+00  1.50000000E+00  8.00000000E-01  8.00000000E-01  1.50000000E+00
  1.50000000E+00  8.00000000E-01  8.00000000E-01  1.50000000E+00  1.50000000E+00
  8.00000000E-01  8.00000000E-01  1.50000000E+00  1.50000000E+00  8.00000000E-01
  8.00000000E-01  1.50000000E+00  1.50000000E+00  8.00000000E-01  8.00000000E-01
  1.50000000E+00  1.50000000E+00  8.00000000E-01  8.00000000E-01  1.50000000E+00
  1.50000000E+00  8.00000000E-01  8.00000000E-01  1.50000000E+00  1.50000000E+00
  8.00000000E-01  8.00000000E-01  1.50000000E+00  1.50000000E+00  8.00000000E-01
  8.00000000E-01  1.50000000E+00  1.50000000E+00  8.00000000E-01  8.00000000E-01
  1.50000000E+00  1.50000000E+00  8.00000000E-01  8.00000000E-01  1.50000000E+00
  1.50000000E+00  8.00000000E-01  8.00000000E-01  1.50000000E+00  1.50000000E+00
  8.00000000E-01  8.00000000E-01  1.50000000E+00  1.50000000E+00  8.00000000E-01
  8.00000000E-01  1.50000000E+00  1.50000000E+00  8.00000000E-01  8.00000000E-01
  1.50000000E+00  1.50000000E+00  8.00000000E-01  8.00000000E-01  1.50000000E+00
  1.50000000E+00  8.00000000E-01  8.00000000E-01  1.50000000E+00  1.50000000E+00
  8.00000000E-01  8.00000000E-01  1.50000000E+00  1.50000000E+00  8.00000000E-01
  8.00000000E-01  1.50000000E+00  1.50000000E+00  8.00000000E-01  8.00000000E-01
  1.50000000E+00  1.50000000E+00  8.00000000E-01  8.00000000E-01  1.50000000E+00
  1.50000000E+00  8.00000000E-01  8.00000000E-01  1.50000000E+00  1.50000000E+00
  8.00000000E-01  8.00000000E-01  1.50000000E+00  1.50000000E+00  8.00000000E-01
  8.00000000E-01  1.50000000E+00  1.50000000E+00  8.00000000E-01  8.00000000E-01
  1.50000000E+00  1.50000000E+00  8.00000000E-01  8.00000000E-01  1.50000000E+00
  1.50000000E+00  8.00000000E-01  8.00000000E-01  1.50000000E+00  1.50000000E+00
  8.00000000E-01  8.00000000E-01  1.50000000E+00  1.50000000E+00  8.00000000E-01
  8.00000000E-01  1.50000000E+00  1.50000000E+00  8.00000000E-01  8.00000000E-01
  1.50000000E+00  1.50000000E+00  8.00000000E-01  8.00000000E-01  1.50000000E+00
  1.50000000E+00  8.00000000E-01  8.00000000E-01  1.50000000E+00  1.50000000E+00
  8.00000000E-01  8.00000000E-01  1.50000000E+00  1.50000000E+00  8.00000000E-01
  8.00000000E-01  1.50000000E+00  1.50000000E+00  8.00000000E-01  8.00000000E-01
  1.50000000E+00  1.50000000E+00  8.00000000E-01  8.00000000E-01  1.50000000E+00
  1.50000000E+00  8.00000000E-01  8.00000000E-01  1.50000000E+00  1.50000000E+00
  8.00000000E-01  8.00000000E-01  1.50000000E+00  1.50000000E+00  8.00000000E-01
  8.00000000E-01  1.50000000E+00  1.50000000E+00  8.00000000E-01  8.00000000E-01
  1.50000000E+00  1.50000000E+00  8.00000000E-01  8.00000000E-01  1.50000000E+00
  1.50000000E+00  8.00000000E-01  8.00000000E-01  1.50000000E+00  1.50000000E+00
  8.00000000E-01  8.00000000E-01  1.50000000E+00  1.50000000E+00  8.00000000E-01
  8.00000000E-01  1.50000000E+00  1.50000000E+00  8.00000000E-01  8.00000000E-01
  1.50000000E+00  1.50000000E+00  8.00000000E-01  8.00000000E-01  1.50000000E+00
  1.50000000E+00  8.00000000E-01  8.00000000E-01  1.50000000E+00  1.50000000E+00
  8.00000000E-01  8.00000000E-01  1.50000000E+00  1.50000000E+00  8.00000000E-01
  8.00000000E-01  1.50000000E+00  1.50000000E+00  8.00000000E-01  8.00000000E-01
  1.50000000E+00  1.50000000E+00  8.00000000E-01  8.00000000E-01  1.50000000E+00
  1.50000000E+00  8.00000000E-01  8.00000000E-01  1.50000000E+00  1.50000000E+00
  8.00000000E-01  8.00000000E-01  1.50000000E+00  1.50000000E+00  8.00000000E-01
  8.00000000E-01  1.50000000E+00  1.50000000E+00  8.00000000E-01  8.00000000E-01
  1.50000000E+00  1.50000000E+00  8.00000000E-01  8.00000000E-01  1.50000000E+00
  1.50000000E+00  8.00000000E-01  8.00000000E-01  1.50000000E+00  1.50000000E+00
  8.00000000E-01  8.00000000E-01  1.50000000E+00  1.50000000E+00  8.00000000E-01
  8.00000000E-01  1.50000000E+00  1.50000000E+00  8.00000000E-01  8.00000000E-01
  1.50000000E+00  1.50000000E+00  8.00000000E-01  8.00000000E-01  1.50000000E+00
  1.50000000E+00  8.00000000E-01  8.00000000E-01  1.50000000E+00  1.50000000E+00
  8.00000000E-01  8.00000000E-01  1.50000000E+00  1.50000000E+00  8.00000000E-01
  8.00000000E-01  1.50000000E+00  1.50000000E+00  8.00000000E-01  8.00000000E-01
  1.50000000E+00  1.50000000E+00  8.00000000E-01  8.00000000E-01  1.50000000E+00
  1.50000000E+00  8.00000000E-01  8.00000000E-01  1.50000000E+00  1.50000000E+00
  8.00000000E-01  8.00000000E-01  1.50000000E+00  1.50000000E+00  8.00000000E-01
  8.00000000E-01  1.50000000E+00  1.50000000E+00  8.00000000E-01  8.00000000E-01
  1.50000000E+00  1.50000000E+00  8.00000000E-01  8.00000000E-01  1.50000000E+00
  1.50000000E+00  8.00000000E-01  8.00000000E-01  1.50000000E+00  1.50000000E+00
  8.00000000E-01  8.00000000E-01  1.50000000E+00  1.50000000E+00  8.00000000E-01
  8.00000000E-01  1.50000000E+00  1.50000000E+00  8.00000000E-01  8.00000000E-01
  1.50000000E+00  1.50000000E+00  8.00000000E-01  8.00000000E-01  1.50000000E+00
  1.50000000E+00  8.00000000E-01  8.00000000E-01  1.50000000E+00  1.50000000E+00
  8.00000000E-01  8.00000000E-01  1.50000000E+00  1.50000000E+00  8.00000000E-01
  8.00000000E-01  1.50000000E+00  1.50000000E+00  8.00000000E-01  8.00000000E-01
  1.50000000E+00  1.50000000E+00  8.00000000E-01  8.00000000E-01  1.50000000E+00
  1.50000000E+00  8.00000000E-01  8.00000000E-01  1.50000000E+00  1.50000000E+00
  8.00000000E-01  8.00000000E-01  1.50000000E+00  1.50000000E+00  8.00000000E-01
  8.00000000E-01  1.50000000E+00  1.50000000E+00  8.00000000E-01  8.00000000E-01
  1.50000000E+00  1.50000000E+00  8.00000000E-01  8.00000000E-01  1.50000000E+00
  1.50000000E+00  8.00000000E-01  8.00000000E-01  1.50000000E+00  1.50000000E+00
  8.00000000E-01  8.00000000E-01  1.50000000E+00  1.50000000E+00  8.00000000E-01
  8.00000000E-01  1.50000000E+00  1.50000000E+00  8.00000000E-01  8.00000000E-01
  1.50000000E+00  1.50000000E+00  8.00000000E-01  8.00000000E-01  1.50000000E+00
  1.50000000E+00  8.00000000E-01  8.00000000E-01  1.50000000E+00  1.50000000E+00
  8.00000000E-01  8.00000000E-01  1.50000000E+00  1.50000000E+00  8.00000000E-01
  8.00000000E-01  1.50000000E+00  1.50000000E+00  8.00000000E-01  8.00000000E-01
  1.50000000E+00  1.50000000E+00  8.00000000E-01  8.00000000E-01  1.50000000E+00
  1.50000000E+00  8.00000000E-01  8.00000000E-01  1.50000000E+00  1.50000000E+00
  8.00000000E-01  8.00000000E-01  1.50000000E+00  1.50000000E+00  8.00000000E-01
  8.00000000E-01  1.50000000E+00  1.50000000E+00  8.00000000E-01  8.00000000E-01
  1.50000000E+00  1.50000000E+00  8.00000000E-01  8.00000000E-01  1.50000000E+00
  1.50000000E+00  8.00000000E-01  8.00000000E-01  1.50000000E+00  1.50000000E+00
  8.00000000E-01  8.00000000E-01  1.50000000E+00  1.50000000E+00  8.00000000E-01
  8.00000000E-01  1.50000000E+00  1.50000000E+00  8.00000000E-01  8.00000000E-01
  1.50000000E+00  1.50000000E+00  8.00000000E-01  8.00000000E-01  1.50000000E+00
  1.50000000E+00  8.00000000E-01  8.00000000E-01  1.50000000E+00  1.50000000E+00
  8.00000000E-01  8.00000000E-01  1.50000000E+00  1.50000000E+00  8.00000000E-01
  8.00000000E-01  1.50000000E+00  1.50000000E+00  8.00000000E-01  8.00000000E-01
  1.50000000E+00  1.50000000E+00  8.00000000E-01  8.00000000E-01  1.50000000E+00
  1.50000000E+00  8.00000000E-01  8.00000000E-01  1.50000000E+00  1.50000000E+00
  8.00000000E-01  8.00000000E-01  1.50000000E+00  1.50000000E+00  8.00000000E-01
  8.00000000E-01  1.50000000E+00  1.50000000E+00  8.00000000E-01  8.00000000E-01
  1.50000000E+00  1.50000000E+00  8.00000000E-01  8.00000000E-01  1.50000000E+00
  1.50000000E+00  8.00000000E-01  8.00000000E-01  1.50000000E+00  1.50000000E+00
  8.00000000E-01  8.00000000E-01  1.50000000E+00  1.50000000E+00  8.00000000E-01
  8.00000000E-01  1.50000000E+00  1.50000000E+00  8.00000000E-01  8.00000000E-01
  1.50000000E+00  1.50000000E+00  8.00000000E-01  8.00000000E-01  1.50000000E+00
  1.50000000E+00  8.00000000E-01  8.00000000E-01  1.50000000E+00  1.50000000E+00
  8.00000000E-01  8.00000000E-01  1.50000000E+00  1.50000000E+00  8.00000000E-01
  8.00000000E-01  1.50000000E+00  1.50000000E+00  8.00000000E-01  8.00000000E-01
  1.50000000E+00  1.50000000E+00  8.00000000E-01  8.00000000E-01  1.50000000E+00
  1.50000000E+00  8.00000000E-01  8.00000000E-01  1.50000000E+00  1.50000000E+00
  8.00000000E-01  8.00000000E-01  1.50000000E+00  1.50000000E+00  8.00000000E-01
  8.00000000E-01  1.50000000E+00  1.50000000E+00  8.00000000E-01  8.00000000E-01
  1.50000000E+00  1.50000000E+00  8.00000000E-01  8.00000000E-01  1.50000000E+00
  1.50000000E+00  8.00000000E-01  8.00000000E-01  1.50000000E+00  1.50000000E+00
  8.00000000E-01  8.00000000E-01  1.50000000E+00  1.50000000E+00  8.00000000E-01
  8.00000000E-01  1.50000000E+00  1.50000000E+00  8.00000000E-01  8.00000000E-01
  1.50000000E+00  1.50000000E+00  8.00000000E-01  8.00000000E-01  1.50000000E+00
  1.50000000E+00  8.00000000E-01  8.00000000E-01  1.50000000E+00  1.50000000E+00
  8.00000000E-01  8.00000000E-01  1.50000000E+00  1.50000000E+00  8.00000000E-01
  8.00000000E-01  1.50000000E+00  1.50000000E+00  8.00000000E-01  8.00000000E-01
  1.50000000E+00  1.50000000E+00  8.00000000E-01  8.00000000E-01  1.50000000E+00
  1.50000000E+00  8.00000000E-01  8.00000000E-01  1.50000000E+00  1.50000000E+00
  8.00000000E-01  8.00000000E-01  1.50000000E+00  1.50000000E+00  8.00000000E-01
  8.00000000E-01  1.50000000E+00  1.50000000E+00  8.00000000E-01  8.00000000E-01
  1.50000000E+00  1.50000000E+00  8.00000000E-01  8.00000000E-01  1.50000000E+00
  1.50000000E+00  8.00000000E-01  8.00000000E-01  1.50000000E+00  1.50000000E+00
  8.00000000E-01  8.00000000E-01  1.50000000E+00  1.50000000E+00  8.00000000E-01
  8.00000000E-01  1.50000000E+00  1.50000000E+00  8.00000000E-01  8.00000000E-01
  1.50000000E+00  1.50000000E+00  8.00000000E-01  8.00000000E-01  1.50000000E+00
  1.50000000E+00  8.00000000E-01  8.00000000E-01  1.50000000E+00  1.50000000E+00
  8.00000000E-01  8.00000000E-01  1.50000000E+00  1.50000000E+00  8.00000000E-01
  8.00000000E-01  1.50000000E+00  1.50000000E+00  8.00000000E-01  8.00000000E-01
  1.50000000E+00  1.50000000E+00  8.00000000E-01  8.00000000E-01  1.50000000E+00
  1.50000000E+00  8.00000000E-01  8.00000000E-01  1.50000000E+00  1.50000000E+00
  8.00000000E-01  8.00000000E-01  1.50000000E+00  1.50000000E+00  8.00000000E-01
  8.00000000E-01  1.50000000E+00  1.50000000E+00  8.00000000E-01  8.00000000E-01
  1.50000000E+00  1.50000000E+00  8.00000000E-01  8.00000000E-01  1.50000000E+00
  1.50000000E+00  8.00000000E-01  8.00000000E-01  1.50000000E+00  1.50000000E+00
  8.00000000E-01  8.00000000E-01  1.50000000E+00  1.50000000E+00  8.00000000E-01
  8.00000000E-01  1.50000000E+00  1.50000000E+00  8.00000000E-01  8.00000000E-01
  1.50000000E+00  1.50000000E+00  8.00000000E-01  8.00000000E-01  1.50000000E+00
  1.50000000E+00  8.00000000E-01  8.00000000E-01  1.50000000E+00  1.50000000E+00
  8.00000000E-01  8.00000000E-01  1.50000000E+00  1.50000000E+00  8.00000000E-01
  8.00000000E-01  1.50000000E+00  1.50000000E+00  8.00000000E-01  8.00000000E-01
  1.50000000E+00  1.50000000E+00  8.00000000E-01  8.00000000E-01  1.50000000E+00
  1.50000000E+00  8.00000000E-01  8.00000000E-01  1.50000000E+00  1.50000000E+00
  8.00000000E-01  8.00000000E-01  1.50000000E+00  1.50000000E+00  8.00000000E-01
  8.00000000E-01  1.50000000E+00  1.50000000E+00  8.00000000E-01  8.00000000E-01
  1.50000000E+00  1.50000000E+00  8.00000000E-01  8.00000000E-01  1.50000000E+00
  1.50000000E+00  8.00000000E-01  8.00000000E-01  1.50000000E+00  1.50000000E+00
  8.00000000E-01  8.00000000E-01  1.50000000E+00  1.50000000E+00  8.00000000E-01
  8.00000000E-01  1.50000000E+00  1.50000000E+00  8.00000000E-01  8.00000000E-01
  1.50000000E+00  1.50000000E+00  8.00000000E-01  8.00000000E-01  1.50000000E+00
  1.50000000E+00  8.00000000E-01  8.00000000E-01  1.50000000E+00  1.50000000E+00
  8.00000000E-01  8.00000000E-01  1.50000000E+00  1.50000000E+00  8.00000000E-01
  8.00000000E-01  1.50000000E+00  1.50000000E+00  8.00000000E-01  8.00000000E-01
  1.50000000E+00  1.50000000E+00  8.00000000E-01  8.00000000E-01  1.50000000E+00
  1.50000000E+00  8.00000000E-01  8.00000000E-01  1.50000000E+00  1.50000000E+00
  8.00000000E-01  8.00000000E-01  1.50000000E+00  1.50000000E+00  8.00000000E-01
  8.00000000E-01  1.50000000E+00  1.50000000E+00  8.00000000E-01  8.00000000E-01
  1.50000000E+00  1.50000000E+00  8.00000000E-01  8.00000000E-01  1.50000000E+00
  1.50000000E+00  8.00000000E-01  8.00000000E-01  1.50000000E+00  1.50000000E+00
  8.00000000E-01  8.00000000E-01  1.50000000E+00  1.50000000E+00  8.00000000E-01
  8.00000000E-01  1.50000000E+00  1.50000000E+00  8.00000000E-01  8.00000000E-01
  1.50000000E+00  1.50000000E+00  8.00000000E-01  8.00000000E-01  1.50000000E+00
  1.50000000E+00  8.00000000E-01  8.00000000E-01  1.50000000E+00  1.50000000E+00
  8.00000000E-01  8.00000000E-01  1.50000000E+00  1.50000000E+00  8.00000000E-01
  8.00000000E-01  1.50000000E+00  1.50000000E+00  8.00000000E-01  8.00000000E-01
  1.50000000E+00  1.50000000E+00  8.00000000E-01  8.00000000E-01  1.50000000E+00
  1.50000000E+00  8.00000000E-01  8.00000000E-01  1.50000000E+00  1.50000000E+00
  8.00000000E-01  8.00000000E-01  1.50000000E+00  1.50000000E+00  8.00000000E-01
  8.00000000E-01  1.50000000E+00  1.50000000E+00  8.00000000E-01  8.00000000E-01
  1.50000000E+00  1.50000000E+00  8.00000000E-01  8.00000000E-01  1.50000000E+00
  1.50000000E+00  8.00000000E-01  8.00000000E-01  1.50000000E+00  1.50000000E+00
  8.00000000E-01  8.00000000E-01  1.50000000E+00  1.50000000E+00  8.00000000E-01
  8.00000000E-01  1.50000000E+00  1.50000000E+00  8.00000000E-01  8.00000000E-01
  1.50000000E+00  1.50000000E+00  8.00000000E-01  8.00000000E-01  1.50000000E+00
  1.50000000E+00  8.00000000E-01  8.00000000E-01  1.50000000E+00  1.50000000E+00
  8.00000000E-01  8.00000000E-01  1.50000000E+00  1.50000000E+00  8.00000000E-01
  8.00000000E-01  1.50000000E+00  1.50000000E+00  8.00000000E-01  8.00000000E-01
  1.50000000E+00  1.50000000E+00  8.00000000E-01  8.00000000E-01  1.50000000E+00
  1.50000000E+00  8.00000000E-01  8.00000000E-01  1.50000000E+00  1.50000000E+00
  8.00000000E-01  8.00000000E-01  1.50000000E+00  1.50000000E+00  8.00000000E-01
  8.00000000E-01  1.50000000E+00  1.50000000E+00  8.00000000E-01  8.00000000E-01
  1.50000000E+00  1.50000000E+00  8.00000000E-01  8.00000000E-01  1.50000000E+00
  1.50000000E+00  8.00000000E-01  8.00000000E-01  1.50000000E+00  1.50000000E+00
  8.00000000E-01  8.00000000E-01  1.50000000E+00  1.50000000E+00  8.00000000E-01
  8.00000000E-01  1.50000000E+00  1.50000000E+00  8.00000000E-01  8.00000000E-01
  1.50000000E+00  1.50000000E+00  8.00000000E-01  8.00000000E-01  1.50000000E+00
  1.50000000E+00  8.00000000E-01  8.00000000E-01  1.50000000E+00  1.50000000E+00
  8.00000000E-01  8.00000000E-01  1.50000000E+00  1.50000000E+00  8.00000000E-01
  8.00000000E-01  1.50000000E+00  1.50000000E+00  8.00000000E-01  8.00000000E-01
  1.50000000E+00  1.50000000E+00  8.00000000E-01  8.00000000E-01  1.50000000E+00
  1.50000000E+00  8.00000000E-01  8.00000000E-01  1.50000000E+00  1.50000000E+00
  8.00000000E-01  8.00000000E-01  1.50000000E+00  1.50000000E+00  8.00000000E-01
  8.00000000E-01  1.50000000E+00  1.50000000E+00  8.00000000E-01  8.00000000E-01
  1.50000000E+00  1.50000000E+00  8.00000000E-01  8.00000000E-01  1.50000000E+00
  1.50000000E+00  8.00000000E-01  8.00000000E-01  1.50000000E+00  1.50000000E+00
  8.00000000E-01  8.00000000E-01  1.50000000E+00  1.50000000E+00  8.00000000E-01
  8.00000000E-01  1.50000000E+00  1.50000000E+00  8.00000000E-01  8.00000000E-01
  1.50000000E+00  1.50000000E+00  8.00000000E-01  8.00000000E-01  1.50000000E+00
  1.50000000E+00  8.00000000E-01  8.00000000E-01  1.50000000E+00  1.50000000E+00
  8.00000000E-01  8.00000000E-01  1.50000000E+00  1.50000000E+00  8.00000000E-01
  8.00000000E-01  1.50000000E+00  1.50000000E+00  8.00000000E-01  8.00000000E-01
  1.50000000E+00  1.50000000E+00  8.00000000E-01  8.00000000E-01  1.50000000E+00
  1.50000000E+00  8.00000000E-01  8.00000000E-01  1.50000000E+00  1.50000000E+00
  8.00000000E-01  8.00000000E-01  1.50000000E+00  1.50000000E+00  8.00000000E-01
  8.00000000E-01  1.50000000E+00  1.50000000E+00  8.00000000E-01  8.00000000E-01
  1.50000000E+00  1.50000000E+00  8.00000000E-01  8.00000000E-01  1.50000000E+00
  1.50000000E+00  8.00000000E-01  8.00000000E-01  1.50000000E+00  1.50000000E+00
  8.00000000E-01  8.00000000E-01  1.50000000E+00  1.50000000E+00  8.00000000E-01
  8.00000000E-01  1.50000000E+00  1.50000000E+00  8.00000000E-01  8.00000000E-01
  1.50000000E+00  1.50000000E+00  8.00000000E-01  8.00000000E-01  1.50000000E+00
  1.50000000E+00  8.00000000E-01  8.00000000E-01  1.50000000E+00  1.50000000E+00
  8.00000000E-01  8.00000000E-01  1.50000000E+00  1.50000000E+00  8.00000000E-01
  8.00000000E-01  1.50000000E+00  1.50000000E+00  8.00000000E-01  8.00000000E-01
  1.50000000E+00  1.50000000E+00  8.00000000E-01  8.00000000E-01  1.50000000E+00
  1.50000000E+00  8.00000000E-01  8.00000000E-01  1.50000000E+00  1.50000000E+00
  8.00000000E-01  8.00000000E-01  1.50000000E+00  1.50000000E+00  8.00000000E-01
  8.00000000E-01  1.50000000E+00  1.50000000E+00  8.00000000E-01  8.00000000E-01
  1.50000000E+00  1.50000000E+00  8.00000000E-01  8.00000000E-01  1.50000000E+00
  1.50000000E+00  8.00000000E-01  8.00000000E-01  1.50000000E+00  1.50000000E+00
  8.00000000E-01  8.00000000E-01  1.50000000E+00  1.50000000E+00  8.00000000E-01
  8.00000000E-01  1.50000000E+00  1.50000000E+00  8.00000000E-01  8.00000000E-01
  1.50000000E+00  1.50000000E+00  8.00000000E-01  8.00000000E-01  1.50000000E+00
  1.50000000E+00  8.00000000E-01  8.00000000E-01  1.50000000E+00  1.50000000E+00
  8.00000000E-01  8.00000000E-01  1.50000000E+00  1.50000000E+00  8.00000000E-01
  8.00000000E-01  1.50000000E+00  1.50000000E+00  8.00000000E-01  8.00000000E-01
  1.50000000E+00  1.50000000E+00  8.00000000E-01  8.00000000E-01  1.50000000E+00
  1.50000000E+00  8.00000000E-01  8.00000000E-01  1.50000000E+00  1.50000000E+00
  8.00000000E-01  8.00000000E-01  1.50000000E+00  1.50000000E+00  8.00000000E-01
  8.00000000E-01  1.50000000E+00  1.50000000E+00  8.00000000E-01  8.00000000E-01
  1.50000000E+00  1.50000000E+00  8.00000000E-01  8.00000000E-01  1.50000000E+00
  1.50000000E+00  8.00000000E-01  8.00000000E-01  1.50000000E+00  1.50000000E+00
  8.00000000E-01  8.00000000E-01  1.50000000E+00  1.50000000E+00  8.00000000E-01
  8.00000000E-01  1.50000000E+00  1.50000000E+00  8.00000000E-01  8.00000000E-01
  1.50000000E+00  1.50000000E+00  8.00000000E-01  8.00000000E-01  1.50000000E+00
  1.50000000E+00  8.00000000E-01  8.00000000E-01  1.50000000E+00  1.50000000E+00
  8.00000000E-01  8.00000000E-01  1.50000000E+00  1.50000000E+00  8.00000000E-01
  8.00000000E-01  1.50000000E+00  1.50000000E+00  8.00000000E-01  8.00000000E-01
  1.50000000E+00  1.50000000E+00  8.00000000E-01  8.00000000E-01  1.50000000E+00
  1.50000000E+00  8.00000000E-01  8.00000000E-01  1.50000000E+00  1.50000000E+00
  8.00000000E-01  8.00000000E-01  1.50000000E+00  1.50000000E+00  8.00000000E-01
  8.00000000E-01  1.50000000E+00  1.50000000E+00  8.00000000E-01  8.00000000E-01
  1.50000000E+00  1.50000000E+00  8.00000000E-01  8.00000000E-01  1.50000000E+00
  1.50000000E+00  8.00000000E-01  8.00000000E-01  1.50000000E+00  1.50000000E+00
  8.00000000E-01  8.00000000E-01  1.50000000E+00  1.50000000E+00  8.00000000E-01
  8.00000000E-01  1.50000000E+00  1.50000000E+00  8.00000000E-01  8.00000000E-01
  1.50000000E+00  1.50000000E+00  8.00000000E-01  8.00000000E-01  1.50000000E+00
  1.50000000E+00  8.00000000E-01  8.00000000E-01  1.50000000E+00  1.50000000E+00
  8.00000000E-01  8.00000000E-01  1.50000000E+00  1.50000000E+00  8.00000000E-01
  8.00000000E-01  1.50000000E+00  1.50000000E+00  8.00000000E-01  8.00000000E-01
  1.50000000E+00  1.50000000E+00  8.00000000E-01  8.00000000E-01  1.50000000E+00
  1.50000000E+00  8.00000000E-01  8.00000000E-01  1.50000000E+00  1.50000000E+00
  8.00000000E-01  8.00000000E-01  1.50000000E+00  1.50000000E+00  8.00000000E-01
  8.00000000E-01  1.50000000E+00  1.50000000E+00  8.00000000E-01  8.00000000E-01
  1.50000000E+00  1.50000000E+00  8.00000000E-01  8.00000000E-01  1.50000000E+00
  1.50000000E+00  8.00000000E-01  8.00000000E-01  1.50000000E+00  1.50000000E+00
  8.00000000E-01  8.00000000E-01  1.50000000E+00  1.50000000E+00  8.00000000E-01
  8.00000000E-01  1.50000000E+00  1.50000000E+00  8.00000000E-01  8.00000000E-01
  1.50000000E+00  1.50000000E+00  8.00000000E-01  8.00000000E-01  1.50000000E+00
  1.50000000E+00  8.00000000E-01  8.00000000E-01  1.50000000E+00  1.50000000E+00
  8.00000000E-01  8.00000000E-01  1.50000000E+00  1.50000000E+00  8.00000000E-01
  8.00000000E-01  1.50000000E+00  1.50000000E+00  8.00000000E-01  8.00000000E-01
  1.50000000E+00  1.50000000E+00  8.00000000E-01  8.00000000E-01  1.50000000E+00
  1.50000000E+00  8.00000000E-01  8.00000000E-01  1.50000000E+00  1.50000000E+00
  8.00000000E-01  8.00000000E-01  1.50000000E+00  1.50000000E+00  8.00000000E-01
  8.00000000E-01  1.50000000E+00  1.50000000E+00  8.00000000E-01  8.00000000E-01
  1.50000000E+00  1.50000000E+00  8.00000000E-01  8.00000000E-01  1.50000000E+00
  1.50000000E+00  8.00000000E-01  8.00000000E-01  1.50000000E+00  1.50000000E+00
  8.00000000E-01  8.00000000E-01  1.50000000E+00  1.50000000E+00  8.00000000E-01
  8.00000000E-01  1.50000000E+00  1.50000000E+00  8.00000000E-01  8.00000000E-01
  1.50000000E+00  1.50000000E+00  8.00000000E-01  8.00000000E-01  1.50000000E+00
  1.50000000E+00  8.00000000E-01  8.00000000E-01  1.50000000E+00  1.50000000E+00
  8.00000000E-01  8.00000000E-01  1.50000000E+00  1.50000000E+00  8.00000000E-01
  8.00000000E-01  1.50000000E+00  1.50000000E+00  8.00000000E-01  8.00000000E-01
  1.50000000E+00  1.50000000E+00  8.00000000E-01  8.00000000E-01  1.50000000E+00
  1.50000000E+00  8.00000000E-01  8.00000000E-01  1.50000000E+00  1.50000000E+00
  8.00000000E-01  8.00000000E-01  1.50000000E+00  1.50000000E+00  8.00000000E-01
  8.00000000E-01  1.50000000E+00  1.50000000E+00  8.00000000E-01  8.00000000E-01
  1.50000000E+00  1.50000000E+00  8.00000000E-01  8.00000000E-01  1.50000000E+00
  1.50000000E+00  8.00000000E-01  8.00000000E-01  1.50000000E+00  1.50000000E+00
  8.00000000E-01  8.00000000E-01  1.50000000E+00  1.50000000E+00  8.00000000E-01
  8.00000000E-01  1.50000000E+00  1.50000000E+00  8.00000000E-01  8.00000000E-01
  1.50000000E+00  1.50000000E+00  8.00000000E-01  8.00000000E-01  1.50000000E+00
  1.50000000E+00  8.00000000E-01  8.00000000E-01  1.50000000E+00  1.50000000E+00
  8.00000000E-01  8.00000000E-01  1.50000000E+00  1.50000000E+00  8.00000000E-01
  8.00000000E-01  1.50000000E+00  1.50000000E+00  8.00000000E-01  8.00000000E-01
  1.50000000E+00  1.50000000E+00  8.00000000E-01  8.00000000E-01  1.50000000E+00
  1.50000000E+00  8.00000000E-01  8.00000000E-01  1.50000000E+00  1.50000000E+00
  8.00000000E-01  8.00000000E-01  1.50000000E+00  1.50000000E+00  8.00000000E-01
  8.00000000E-01  1.50000000E+00  1.50000000E+00  8.00000000E-01  8.00000000E-01
  1.50000000E+00  1.50000000E+00  8.00000000E-01  8.00000000E-01  1.50000000E+00
  1.50000000E+00  8.00000000E-01  8.00000000E-01  1.50000000E+00  1.50000000E+00
  8.00000000E-01  8.00000000E-01  1.50000000E+00  1.50000000E+00  8.00000000E-01
  8.00000000E-01  1.50000000E+00  1.50000000E+00  8.00000000E-01  8.00000000E-01
  1.50000000E+00  1.50000000E+00  8.00000000E-01  8.00000000E-01  1.50000000E+00
  1.50000000E+00  8.00000000E-01  8.00000000E-01  1.50000000E+00  1.50000000E+00
  8.00000000E-01  8.00000000E-01  1.50000000E+00  1.50000000E+00  8.00000000E-01
  8.00000000E-01  1.50000000E+00  1.50000000E+00  8.00000000E-01  8.00000000E-01
  1.50000000E+00  1.50000000E+00  8.00000000E-01  8.00000000E-01  1.50000000E+00
  1.50000000E+00  8.00000000E-01  8.00000000E-01  1.50000000E+00  1.50000000E+00
  8.00000000E-01  8.00000000E-01  1.50000000E+00  1.50000000E+00  8.00000000E-01
  8.00000000E-01  1.50000000E+00  1.50000000E+00  8.00000000E-01  8.00000000E-01
  1.50000000E+00  1.50000000E+00  8.00000000E-01  8.00000000E-01  1.50000000E+00
  1.50000000E+00  8.00000000E-01  8.00000000E-01  1.50000000E+00  1.50000000E+00
  8.00000000E-01  8.00000000E-01  1.50000000E+00  1.50000000E+00  8.00000000E-01
  8.00000000E-01  1.50000000E+00  1.50000000E+00  8.00000000E-01  8.00000000E-01
  1.50000000E+00  1.50000000E+00  8.00000000E-01  8.00000000E-01  1.50000000E+00
  1.50000000E+00  8.00000000E-01  8.00000000E-01  1.50000000E+00  1.50000000E+00
  8.00000000E-01  8.00000000E-01  1.50000000E+00  1.50000000E+00  8.00000000E-01
  8.00000000E-01  1.50000000E+00  1.50000000E+00  8.00000000E-01  8.00000000E-01
  1.50000000E+00  1.50000000E+00  8.00000000E-01  8.00000000E-01  1.50000000E+00
  1.50000000E+00  8.00000000E-01  8.00000000E-01  1.50000000E+00  1.50000000E+00
  8.00000000E-01  8.00000000E-01  1.50000000E+00  1.50000000E+00  8.00000000E-01
  8.00000000E-01  1.50000000E+00  1.50000000E+00  8.00000000E-01  8.00000000E-01
  1.50000000E+00  1.50000000E+00  8.00000000E-01  8.00000000E-01  1.50000000E+00
  1.50000000E+00  8.00000000E-01  8.00000000E-01  1.50000000E+00  1.50000000E+00
  8.00000000E-01  8.00000000E-01  1.50000000E+00  1.50000000E+00  8.00000000E-01
  8.00000000E-01  1.50000000E+00  1.50000000E+00  8.00000000E-01  8.00000000E-01
  1.50000000E+00  1.50000000E+00  8.00000000E-01  8.00000000E-01  1.50000000E+00
  1.50000000E+00  8.00000000E-01  8.00000000E-01  1.50000000E+00  1.50000000E+00
  8.00000000E-01  8.00000000E-01  1.50000000E+00  1.50000000E+00  8.00000000E-01
  8.00000000E-01  1.50000000E+00  1.50000000E+00  8.00000000E-01  8.00000000E-01
  1.50000000E+00  1.50000000E+00  8.00000000E-01  8.00000000E-01  1.50000000E+00
  1.50000000E+00  8.00000000E-01  8.00000000E-01  1.50000000E+00  1.50000000E+00
  8.00000000E-01  8.00000000E-01  1.50000000E+00  1.50000000E+00  8.00000000E-01
  8.00000000E-01  1.50000000E+00  1.50000000E+00  8.00000000E-01  8.00000000E-01
  1.50000000E+00  1.50000000E+00  8.00000000E-01  8.00000000E-01  1.50000000E+00
  1.50000000E+00  8.00000000E-01  8.00000000E-01  1.50000000E+00  1.50000000E+00
  8.00000000E-01  8.00000000E-01  1.50000000E+00  1.50000000E+00  8.00000000E-01
  8.00000000E-01  1.50000000E+00  1.50000000E+00  8.00000000E-01  8.00000000E-01
  1.50000000E+00  1.50000000E+00  8.00000000E-01  8.00000000E-01  1.50000000E+00
  1.50000000E+00  8.00000000E-01  8.00000000E-01  1.50000000E+00  1.50000000E+00
  8.00000000E-01  8.00000000E-01  1.50000000E+00  1.50000000E+00  8.00000000E-01
  8.00000000E-01  1.50000000E+00  1.50000000E+00  8.00000000E-01  8.00000000E-01
  1.50000000E+00  1.50000000E+00  8.00000000E-01  8.00000000E-01  1.50000000E+00
  1.50000000E+00  8.00000000E-01  8.00000000E-01  1.50000000E+00  1.50000000E+00
  8.00000000E-01  8.00000000E-01  1.50000000E+00  1.50000000E+00  8.00000000E-01
  8.00000000E-01  1.50000000E+00  1.50000000E+00  8.00000000E-01  8.00000000E-01
  1.50000000E+00  1.50000000E+00  8.00000000E-01  8.00000000E-01  1.50000000E+00
  1.50000000E+00  8.00000000E-01  8.00000000E-01  1.50000000E+00  1.50000000E+00
  8.00000000E-01  8.00000000E-01  1.50000000E+00  1.50000000E+00  8.00000000E-01
  8.00000000E-01  1.50000000E+00  1.50000000E+00  8.00000000E-01  8.00000000E-01
  1.50000000E+00  1.50000000E+00  8.00000000E-01  8.00000000E-01  1.50000000E+00
  1.50000000E+00  8.00000000E-01  8.00000000E-01  1.50000000E+00  1.50000000E+00
  8.00000000E-01  8.00000000E-01  1.50000000E+00  1.50000000E+00  8.00000000E-01
  8.00000000E-01  1.50000000E+00  1.50000000E+00  8.00000000E-01  8.00000000E-01
  1.50000000E+00  1.50000000E+00  8.00000000E-01  8.00000000E-01  1.50000000E+00
  1.50000000E+00  8.00000000E-01  8.00000000E-01  1.50000000E+00  1.50000000E+00
  8.00000000E-01  8.00000000E-01  1.50000000E+00  1.50000000E+00  8.00000000E-01
  8.00000000E-01  1.50000000E+00  1.50000000E+00  8.00000000E-01  8.00000000E-01
  1.50000000E+00  1.50000000E+00  8.00000000E-01  8.00000000E-01  1.50000000E+00
  1.50000000E+00  8.00000000E-01  8.00000000E-01  1.50000000E+00  1.50000000E+00
  8.00000000E-01  8.00000000E-01  1.50000000E+00  1.50000000E+00  8.00000000E-01
  8.00000000E-01  1.50000000E+00  1.50000000E+00  8.00000000E-01  8.00000000E-01
  1.50000000E+00  1.50000000E+00  8.00000000E-01  8.00000000E-01  1.50000000E+00
  1.50000000E+00  8.00000000E-01  8.00000000E-01  1.50000000E+00  1.50000000E+00
  8.00000000E-01  8.00000000E-01  1.50000000E+00  1.50000000E+00  8.00000000E-01
  8.00000000E-01  1.50000000E+00  1.50000000E+00  8.00000000E-01  8.00000000E-01
  1.50000000E+00  1.50000000E+00  8.00000000E-01  8.00000000E-01  1.50000000E+00
  1.50000000E+00  8.00000000E-01  8.00000000E-01  1.50000000E+00  1.50000000E+00
  8.00000000E-01  8.00000000E-01  1.50000000E+00  1.50000000E+00  8.00000000E-01
  8.00000000E-01  1.50000000E+00  1.50000000E+00  8.00000000E-01  8.00000000E-01
  1.50000000E+00  1.50000000E+00  8.00000000E-01  8.00000000E-01  1.50000000E+00
  1.50000000E+00  8.00000000E-01  8.00000000E-01  1.50000000E+00  1.50000000E+00
  8.00000000E-01  8.00000000E-01  1.50000000E+00  1.50000000E+00  8.00000000E-01
  8.00000000E-01  1.50000000E+00  1.50000000E+00  8.00000000E-01  8.00000000E-01
  1.50000000E+00  1.50000000E+00  8.00000000E-01  8.00000000E-01  1.50000000E+00
  1.50000000E+00  8.00000000E-01  8.00000000E-01  1.50000000E+00  1.50000000E+00
  8.00000000E-01  8.00000000E-01  1.50000000E+00  1.50000000E+00  8.00000000E-01
  8.00000000E-01  1.50000000E+00  1.50000000E+00  8.00000000E-01  8.00000000E-01
  1.50000000E+00  1.50000000E+00  8.00000000E-01  8.00000000E-01  1.50000000E+00
  1.50000000E+00  8.00000000E-01  8.00000000E-01  1.50000000E+00  1.50000000E+00
  8.00000000E-01  8.00000000E-01  1.50000000E+00  1.50000000E+00  8.00000000E-01
  8.00000000E-01  1.50000000E+00  1.50000000E+00  8.00000000E-01  8.00000000E-01
  1.50000000E+00  1.50000000E+00  8.00000000E-01  8.00000000E-01  1.50000000E+00
  1.50000000E+00  8.00000000E-01  8.00000000E-01  1.50000000E+00  1.50000000E+00
  8.00000000E-01  8.00000000E-01  1.50000000E+00  1.50000000E+00  8.00000000E-01
  8.00000000E-01  1.50000000E+00  1.50000000E+00  8.00000000E-01  8.00000000E-01
  1.50000000E+00  1.50000000E+00  8.00000000E-01  8.00000000E-01  1.50000000E+00
  1.50000000E+00  8.00000000E-01  8.00000000E-01  1.50000000E+00  1.50000000E+00
  8.00000000E-01  8.00000000E-01  1.50000000E+00  1.50000000E+00  8.00000000E-01
  8.00000000E-01  1.50000000E+00  1.50000000E+00  8.00000000E-01  8.00000000E-01
  1.50000000E+00  1.50000000E+00  8.00000000E-01  8.00000000E-01  1.50000000E+00
  1.50000000E+00  8.00000000E-01  8.00000000E-01  1.50000000E+00  1.50000000E+00
  8.00000000E-01  8.00000000E-01  1.50000000E+00  1.50000000E+00  8.00000000E-01
  8.00000000E-01  1.50000000E+00  1.50000000E+00  8.00000000E-01  8.00000000E-01
  1.50000000E+00  1.50000000E+00  8.00000000E-01  8.00000000E-01  1.50000000E+00
  1.50000000E+00  8.00000000E-01  8.00000000E-01  1.50000000E+00  1.50000000E+00
  8.00000000E-01  8.00000000E-01  1.50000000E+00  1.50000000E+00  8.00000000E-01
  8.00000000E-01  1.50000000E+00  1.50000000E+00  8.00000000E-01  8.00000000E-01
  1.50000000E+00  1.50000000E+00  8.00000000E-01  8.00000000E-01  1.50000000E+00
  1.50000000E+00  8.00000000E-01  8.00000000E-01  1.50000000E+00  1.50000000E+00
  8.00000000E-01  8.00000000E-01  1.50000000E+00  1.50000000E+00  8.00000000E-01
  8.00000000E-01  1.50000000E+00  1.50000000E+00  8.00000000E-01  8.00000000E-01
  1.50000000E+00  1.50000000E+00  8.00000000E-01  8.00000000E-01  1.50000000E+00
  1.50000000E+00  8.00000000E-01  8.00000000E-01  1.50000000E+00  1.50000000E+00
  8.00000000E-01  8.00000000E-01  1.50000000E+00  1.50000000E+00  8.00000000E-01
  8.00000000E-01  1.50000000E+00  1.50000000E+00  8.00000000E-01  8.00000000E-01
  1.50000000E+00  1.50000000E+00  8.00000000E-01  8.00000000E-01  1.50000000E+00
  1.50000000E+00  8.00000000E-01  8.00000000E-01  1.50000000E+00  1.50000000E+00
  8.00000000E-01  8.00000000E-01  1.50000000E+00  1.50000000E+00  8.00000000E-01
  8.00000000E-01  1.50000000E+00  1.50000000E+00  8.00000000E-01  8.00000000E-01
  1.50000000E+00  1.50000000E+00  8.00000000E-01  8.00000000E-01  1.50000000E+00
  1.50000000E+00  8.00000000E-01  8.00000000E-01  1.50000000E+00  1.50000000E+00
  8.00000000E-01  8.00000000E-01  1.50000000E+00  1.50000000E+00  8.00000000E-01
  8.00000000E-01  1.50000000E+00  1.50000000E+00  8.00000000E-01  8.00000000E-01
  1.50000000E+00  1.50000000E+00  8.00000000E-01  8.00000000E-01  1.50000000E+00
  1.50000000E+00  8.00000000E-01  8.00000000E-01  1.50000000E+00  1.50000000E+00
  8.00000000E-01  8.00000000E-01  1.50000000E+00  1.50000000E+00  8.00000000E-01
  8.00000000E-01  1.50000000E+00  1.50000000E+00  8.00000000E-01  8.00000000E-01
  1.50000000E+00  1.50000000E+00  8.00000000E-01  8.00000000E-01  1.50000000E+00
  1.50000000E+00  8.00000000E-01  8.00000000E-01  1.50000000E+00  1.50000000E+00
  8.00000000E-01  8.00000000E-01  1.50000000E+00  1.50000000E+00  8.00000000E-01
  8.00000000E-01  1.50000000E+00  1.50000000E+00  8.00000000E-01  8.00000000E-01
  1.50000000E+00  1.50000000E+00  8.00000000E-01  8.00000000E-01  1.50000000E+00
  1.50000000E+00  8.00000000E-01  8.00000000E-01  1.50000000E+00  1.50000000E+00
  8.00000000E-01  8.00000000E-01  1.50000000E+00  1.50000000E+00  8.00000000E-01
  8.00000000E-01  1.50000000E+00  1.50000000E+00  8.00000000E-01  8.00000000E-01
  1.50000000E+00  1.50000000E+00  8.00000000E-01  8.00000000E-01  1.50000000E+00
  1.50000000E+00  8.00000000E-01  8.00000000E-01  1.50000000E+00  1.50000000E+00
  8.00000000E-01  8.00000000E-01  1.50000000E+00  1.50000000E+00  8.00000000E-01
  8.00000000E-01  1.50000000E+00  1.50000000E+00  8.00000000E-01  8.00000000E-01
  1.50000000E+00  1.50000000E+00  8.00000000E-01  8.00000000E-01  1.50000000E+00
  1.50000000E+00  8.00000000E-01  8.00000000E-01  1.50000000E+00  1.50000000E+00
  8.00000000E-01  8.00000000E-01  1.50000000E+00  1.50000000E+00  8.00000000E-01
  8.00000000E-01  1.50000000E+00  1.50000000E+00  8.00000000E-01  8.00000000E-01
  1.50000000E+00  1.50000000E+00  8.00000000E-01  8.00000000E-01  1.50000000E+00
  1.50000000E+00  8.00000000E-01  8.00000000E-01  1.50000000E+00  1.50000000E+00
  8.00000000E-01  8.00000000E-01  1.50000000E+00  1.50000000E+00  8.00000000E-01
  8.00000000E-01  1.50000000E+00  1.50000000E+00  8.00000000E-01  8.00000000E-01
  1.50000000E+00  1.50000000E+00  8.00000000E-01  8.00000000E-01  1.50000000E+00
  1.50000000E+00  8.00000000E-01  8.00000000E-01  1.50000000E+00  1.50000000E+00
  8.00000000E-01  8.00000000E-01  1.50000000E+00  1.50000000E+00  8.00000000E-01
  8.00000000E-01  1.50000000E+00  1.50000000E+00  8.00000000E-01  8.00000000E-01
  1.50000000E+00  1.50000000E+00  8.00000000E-01  8.00000000E-01  1.50000000E+00
  1.50000000E+00  8.00000000E-01  8.00000000E-01  1.50000000E+00  1.50000000E+00
  8.00000000E-01  8.00000000E-01  1.50000000E+00  1.50000000E+00  8.00000000E-01
  8.00000000E-01  1.50000000E+00  1.50000000E+00  8.00000000E-01  8.00000000E-01
  1.50000000E+00  1.50000000E+00  8.00000000E-01  8.00000000E-01  1.50000000E+00
  1.50000000E+00  8.00000000E-01  8.00000000E-01  1.50000000E+00  1.50000000E+00
  8.00000000E-01  8.00000000E-01  1.50000000E+00  1.50000000E+00  8.00000000E-01
  8.00000000E-01  1.50000000E+00  1.50000000E+00  8.00000000E-01  8.00000000E-01
  1.50000000E+00  1.50000000E+00  8.00000000E-01  8.00000000E-01  1.50000000E+00
  1.50000000E+00  8.00000000E-01  8.00000000E-01  1.50000000E+00  1.50000000E+00
  8.00000000E-01  8.00000000E-01  1.50000000E+00  1.50000000E+00  8.00000000E-01
  8.00000000E-01  1.50000000E+00  1.50000000E+00  8.00000000E-01  8.00000000E-01
  1.50000000E+00  1.50000000E+00  8.00000000E-01  8.00000000E-01  1.50000000E+00
  1.50000000E+00  8.00000000E-01  8.00000000E-01  1.50000000E+00  1.50000000E+00
  8.00000000E-01  8.00000000E-01  1.50000000E+00  1.50000000E+00  8.00000000E-01
  8.00000000E-01  1.50000000E+00  1.50000000E+00  8.00000000E-01  8.00000000E-01
  1.50000000E+00  1.50000000E+00  8.00000000E-01  8.00000000E-01  1.50000000E+00
  1.50000000E+00  8.00000000E-01  8.00000000E-01  1.50000000E+00  1.50000000E+00
  8.00000000E-01  8.00000000E-01  1.50000000E+00  1.50000000E+00  8.00000000E-01
  8.00000000E-01  1.50000000E+00  1.50000000E+00  8.00000000E-01  8.00000000E-01
  1.50000000E+00  1.50000000E+00  8.00000000E-01  8.00000000E-01  1.50000000E+00
  1.50000000E+00  8.00000000E-01  8.00000000E-01  1.50000000E+00  1.50000000E+00
  8.00000000E-01  8.00000000E-01  1.50000000E+00  1.50000000E+00  8.00000000E-01
  8.00000000E-01  1.50000000E+00  1.50000000E+00  8.00000000E-01  8.00000000E-01
  1.50000000E+00  1.50000000E+00  8.00000000E-01  8.00000000E-01  1.50000000E+00
  1.50000000E+00  8.00000000E-01  8.00000000E-01  1.50000000E+00  1.50000000E+00
  8.00000000E-01  8.00000000E-01  1.50000000E+00  1.50000000E+00  8.00000000E-01
  8.00000000E-01  1.50000000E+00  1.50000000E+00  8.00000000E-01  8.00000000E-01
  1.50000000E+00  1.50000000E+00  8.00000000E-01  8.00000000E-01  1.50000000E+00
  1.50000000E+00  8.00000000E-01  8.00000000E-01  1.50000000E+00  1.50000000E+00
  8.00000000E-01  8.00000000E-01  1.50000000E+00  1.50000000E+00  8.00000000E-01
  8.00000000E-01  1.50000000E+00  1.50000000E+00  8.00000000E-01  8.00000000E-01
  1.50000000E+00  1.50000000E+00  8.00000000E-01  8.00000000E-01  1.50000000E+00
  1.50000000E+00  8.00000000E-01  8.00000000E-01  1.50000000E+00  1.50000000E+00
  8.00000000E-01  8.00000000E-01  1.50000000E+00  1.50000000E+00  8.00000000E-01
  8.00000000E-01  1.50000000E+00  1.50000000E+00  8.00000000E-01  8.00000000E-01
  1.50000000E+00  1.50000000E+00  8.00000000E-01  8.00000000E-01  1.50000000E+00
  1.50000000E+00  8.00000000E-01  8.00000000E-01  1.50000000E+00  1.50000000E+00
  8.00000000E-01  8.00000000E-01  1.50000000E+00  1.50000000E+00  8.00000000E-01
  8.00000000E-01  1.50000000E+00  1.50000000E+00  8.00000000E-01  8.00000000E-01
  1.50000000E+00  1.50000000E+00  8.00000000E-01  8.00000000E-01  1.50000000E+00
  1.50000000E+00  8.00000000E-01  8.00000000E-01  1.50000000E+00  1.50000000E+00
  8.00000000E-01  8.00000000E-01  1.50000000E+00  1.50000000E+00  8.00000000E-01
  8.00000000E-01  1.50000000E+00  1.50000000E+00  8.00000000E-01  8.00000000E-01
  1.50000000E+00  1.50000000E+00  8.00000000E-01  8.00000000E-01  1.50000000E+00
  1.50000000E+00  8.00000000E-01  8.00000000E-01  1.50000000E+00  1.50000000E+00
  8.00000000E-01  8.00000000E-01  1.50000000E+00  1.50000000E+00  8.00000000E-01
  8.00000000E-01  1.50000000E+00  1.50000000E+00  8.00000000E-01  8.00000000E-01
  1.50000000E+00  1.50000000E+00  8.00000000E-01  8.00000000E-01  1.50000000E+00
  1.50000000E+00  8.00000000E-01  8.00000000E-01  1.50000000E+00  1.50000000E+00
  8.00000000E-01  8.00000000E-01  1.50000000E+00  1.50000000E+00  8.00000000E-01
  8.00000000E-01  1.50000000E+00  1.50000000E+00  8.00000000E-01  8.00000000E-01
  1.50000000E+00  1.50000000E+00  8.00000000E-01  8.00000000E-01  1.50000000E+00
  1.50000000E+00  8.00000000E-01  8.00000000E-01  1.50000000E+00  1.50000000E+00
  8.00000000E-01  8.00000000E-01  1.50000000E+00  1.50000000E+00  8.00000000E-01
  8.00000000E-01  1.50000000E+00  1.50000000E+00  8.00000000E-01  8.00000000E-01
  1.50000000E+00  1.50000000E+00  8.00000000E-01  8.00000000E-01  1.50000000E+00
  1.50000000E+00  8.00000000E-01  8.00000000E-01  1.50000000E+00  1.50000000E+00
  8.00000000E-01  8.00000000E-01  1.50000000E+00  1.50000000E+00  8.00000000E-01
  8.00000000E-01  1.50000000E+00  1.50000000E+00  8.00000000E-01  8.00000000E-01
  1.50000000E+00  1.50000000E+00  8.00000000E-01  8.00000000E-01  1.50000000E+00
  1.50000000E+00  8.00000000E-01  8.00000000E-01  1.50000000E+00  1.50000000E+00
  8.00000000E-01  8.00000000E-01  1.50000000E+00  1.50000000E+00  8.00000000E-01
  8.00000000E-01  1.50000000E+00  1.50000000E+00  8.00000000E-01  8.00000000E-01
  1.50000000E+00  1.50000000E+00  8.00000000E-01  8.00000000E-01  1.50000000E+00
  1.50000000E+00  8.00000000E-01  8.00000000E-01  1.50000000E+00  1.50000000E+00
  8.00000000E-01  8.00000000E-01  1.50000000E+00  1.50000000E+00  8.00000000E-01
  8.00000000E-01  1.50000000E+00  1.50000000E+00  8.00000000E-01  8.00000000E-01
  1.50000000E+00  1.50000000E+00  8.00000000E-01  8.00000000E-01  1.50000000E+00
  1.50000000E+00  8.00000000E-01  8.00000000E-01  1.50000000E+00  1.50000000E+00
  8.00000000E-01  8.00000000E-01  1.50000000E+00  1.50000000E+00  8.00000000E-01
  8.00000000E-01  1.50000000E+00  1.50000000E+00  8.00000000E-01  8.00000000E-01
  1.50000000E+00  1.50000000E+00  8.00000000E-01  8.00000000E-01  1.50000000E+00
  1.50000000E+00  8.00000000E-01  8.00000000E-01  1.50000000E+00  1.50000000E+00
  8.00000000E-01  8.00000000E-01  1.50000000E+00  1.50000000E+00  8.00000000E-01
  8.00000000E-01  1.50000000E+00  1.50000000E+00  8.00000000E-01  8.00000000E-01
  1.50000000E+00  1.50000000E+00  8.00000000E-01  8.00000000E-01  1.50000000E+00
  1.50000000E+00  8.00000000E-01  8.00000000E-01  1.50000000E+00  1.50000000E+00
  8.00000000E-01  8.00000000E-01  1.50000000E+00  1.50000000E+00  8.00000000E-01
  8.00000000E-01  1.50000000E+00  1.50000000E+00  8.00000000E-01  8.00000000E-01
  1.50000000E+00  1.50000000E+00  8.00000000E-01  8.00000000E-01  1.50000000E+00
  1.50000000E+00  8.00000000E-01  8.00000000E-01  1.50000000E+00  1.50000000E+00
  8.00000000E-01  8.00000000E-01  1.50000000E+00  1.50000000E+00  8.00000000E-01
  8.00000000E-01  1.50000000E+00  1.50000000E+00  8.00000000E-01  8.00000000E-01
  1.50000000E+00  1.50000000E+00  8.00000000E-01  8.00000000E-01  1.50000000E+00
  1.50000000E+00  8.00000000E-01  8.00000000E-01  1.50000000E+00  1.50000000E+00
  8.00000000E-01  8.00000000E-01  1.50000000E+00  1.50000000E+00  8.00000000E-01
  8.00000000E-01  1.50000000E+00  1.50000000E+00  8.00000000E-01  8.00000000E-01
  1.50000000E+00  1.50000000E+00  8.00000000E-01  8.00000000E-01  1.50000000E+00
  1.50000000E+00  8.00000000E-01  8.00000000E-01  1.50000000E+00  1.50000000E+00
  8.00000000E-01  8.00000000E-01  1.50000000E+00  1.50000000E+00  8.00000000E-01
  8.00000000E-01  1.50000000E+00  1.50000000E+00  8.00000000E-01  8.00000000E-01
  1.50000000E+00  1.50000000E+00  8.00000000E-01  8.00000000E-01  1.50000000E+00
  1.50000000E+00  8.00000000E-01  8.00000000E-01  1.50000000E+00  1.50000000E+00
  8.00000000E-01  8.00000000E-01  1.50000000E+00  1.50000000E+00  8.00000000E-01
  8.00000000E-01  1.50000000E+00  1.50000000E+00  8.00000000E-01  8.00000000E-01
  1.50000000E+00  1.50000000E+00  8.00000000E-01  8.00000000E-01  1.50000000E+00
  1.50000000E+00  8.00000000E-01  8.00000000E-01  1.50000000E+00  1.50000000E+00
  8.00000000E-01  8.00000000E-01  1.50000000E+00  1.50000000E+00  8.00000000E-01
  8.00000000E-01  1.50000000E+00  1.50000000E+00  8.00000000E-01  8.00000000E-01
  1.50000000E+00  1.50000000E+00  8.00000000E-01  8.00000000E-01  1.50000000E+00
  1.50000000E+00  8.00000000E-01  8.00000000E-01  1.50000000E+00  1.50000000E+00
  8.00000000E-01  8.00000000E-01  1.50000000E+00  1.50000000E+00  8.00000000E-01
  8.00000000E-01  1.50000000E+00  1.50000000E+00  8.00000000E-01  8.00000000E-01
  1.50000000E+00  1.50000000E+00  8.00000000E-01  8.00000000E-01  1.50000000E+00
  1.50000000E+00  8.00000000E-01  8.00000000E-01  1.50000000E+00  1.50000000E+00
  8.00000000E-01  8.00000000E-01  1.50000000E+00  1.50000000E+00  8.00000000E-01
  8.00000000E-01  1.50000000E+00  1.50000000E+00  8.00000000E-01  8.00000000E-01
  1.50000000E+00  1.50000000E+00  8.00000000E-01  8.00000000E-01  1.50000000E+00
  1.50000000E+00  8.00000000E-01  8.00000000E-01  1.50000000E+00  1.50000000E+00
  8.00000000E-01  8.00000000E-01  1.50000000E+00  1.50000000E+00  8.00000000E-01
  8.00000000E-01  1.50000000E+00  1.50000000E+00  8.00000000E-01  8.00000000E-01
  1.50000000E+00  1.50000000E+00  8.00000000E-01  8.00000000E-01  1.50000000E+00
  1.50000000E+00  8.00000000E-01  8.00000000E-01  1.50000000E+00  1.50000000E+00
  8.00000000E-01  8.00000000E-01  1.50000000E+00  1.50000000E+00  8.00000000E-01
  8.00000000E-01  1.50000000E+00  1.50000000E+00  8.00000000E-01  8.00000000E-01
  1.50000000E+00  1.50000000E+00  8.00000000E-01  8.00000000E-01  1.50000000E+00
  1.50000000E+00  8.00000000E-01  8.00000000E-01  1.50000000E+00  1.50000000E+00
  8.00000000E-01  8.00000000E-01  1.50000000E+00  1.50000000E+00  8.00000000E-01
  8.00000000E-01  1.50000000E+00  1.50000000E+00  8.00000000E-01  8.00000000E-01
  1.50000000E+00  1.50000000E+00  8.00000000E-01  8.00000000E-01  1.50000000E+00
  1.50000000E+00  8.00000000E-01  8.00000000E-01  1.50000000E+00  1.50000000E+00
  8.00000000E-01  8.00000000E-01  1.50000000E+00  1.50000000E+00  8.00000000E-01
  8.00000000E-01  1.50000000E+00  1.50000000E+00  8.00000000E-01  8.00000000E-01
  1.50000000E+00  1.50000000E+00  8.00000000E-01  8.00000000E-01  1.50000000E+00
  1.50000000E+00  8.00000000E-01  8.00000000E-01  1.50000000E+00  1.50000000E+00
  8.00000000E-01  8.00000000E-01  1.50000000E+00  1.50000000E+00  8.00000000E-01
  8.00000000E-01  1.50000000E+00  1.50000000E+00  8.00000000E-01  8.00000000E-01
  1.50000000E+00  1.50000000E+00  8.00000000E-01  8.00000000E-01  1.50000000E+00
  1.50000000E+00  8.00000000E-01  8.00000000E-01  1.50000000E+00  1.50000000E+00
  8.00000000E-01  8.00000000E-01  1.50000000E+00  1.50000000E+00  8.00000000E-01
  8.00000000E-01  1.50000000E+00  1.50000000E+00  8.00000000E-01  8.00000000E-01
  1.50000000E+00  1.50000000E+00  8.00000000E-01  8.00000000E-01  1.50000000E+00
  1.50000000E+00  8.00000000E-01  8.00000000E-01  1.50000000E+00  1.50000000E+00
  8.00000000E-01  8.00000000E-01  1.50000000E+00  1.50000000E+00  8.00000000E-01
  8.00000000E-01  1.50000000E+00  1.50000000E+00  8.00000000E-01  8.00000000E-01
  1.50000000E+00  1.50000000E+00  8.00000000E-01  8.00000000E-01  1.50000000E+00
  1.50000000E+00  8.00000000E-01  8.00000000E-01  1.50000000E+00  1.50000000E+00
  8.00000000E-01  8.00000000E-01  1.50000000E+00  1.50000000E+00  8.00000000E-01
  8.00000000E-01  1.50000000E+00  1.50000000E+00  8.00000000E-01  8.00000000E-01
  1.50000000E+00  1.50000000E+00  8.00000000E-01  8.00000000E-01  1.50000000E+00
  1.50000000E+00  8.00000000E-01  8.00000000E-01  1.50000000E+00  1.50000000E+00
  8.00000000E-01  8.00000000E-01  1.50000000E+00  1.50000000E+00  8.00000000E-01
  8.00000000E-01  1.50000000E+00  1.50000000E+00  8.00000000E-01  8.00000000E-01
  1.50000000E+00  1.50000000E+00  8.00000000E-01  8.00000000E-01  1.50000000E+00
  1.50000000E+00  8.00000000E-01  8.00000000E-01  1.50000000E+00  1.50000000E+00
  8.00000000E-01  8.00000000E-01  1.50000000E+00  1.50000000E+00  8.00000000E-01
  8.00000000E-01  1.50000000E+00  1.50000000E+00  8.00000000E-01  8.00000000E-01
  1.50000000E+00  1.50000000E+00  8.00000000E-01  8.00000000E-01  1.50000000E+00
  1.50000000E+00  8.00000000E-01  8.00000000E-01  1.50000000E+00  1.50000000E+00
  8.00000000E-01  8.00000000E-01  1.50000000E+00  1.50000000E+00  8.00000000E-01
  8.00000000E-01  1.50000000E+00  1.50000000E+00  8.00000000E-01  8.00000000E-01
  1.50000000E+00  1.50000000E+00  8.00000000E-01  8.00000000E-01  1.50000000E+00
  1.50000000E+00  8.00000000E-01  8.00000000E-01  1.50000000E+00  1.50000000E+00
  8.00000000E-01  8.00000000E-01  1.50000000E+00  1.50000000E+00  8.00000000E-01
  8.00000000E-01  1.50000000E+00  1.50000000E+00  8.00000000E-01  8.00000000E-01
  1.50000000E+00  1.50000000E+00  8.00000000E-01  8.00000000E-01  1.50000000E+00
  1.50000000E+00  8.00000000E-01  8.00000000E-01  1.50000000E+00  1.50000000E+00
  8.00000000E-01  8.00000000E-01  1.50000000E+00  1.50000000E+00  8.00000000E-01
  8.00000000E-01  1.50000000E+00  1.50000000E+00  8.00000000E-01  8.00000000E-01
  1.50000000E+00  1.50000000E+00  8.00000000E-01  8.00000000E-01  1.50000000E+00
  1.50000000E+00  8.00000000E-01  8.00000000E-01  1.50000000E+00  1.50000000E+00
  8.00000000E-01  8.00000000E-01  1.50000000E+00  1.50000000E+00  8.00000000E-01
  8.00000000E-01  1.50000000E+00  1.50000000E+00  8.00000000E-01  8.00000000E-01
  1.50000000E+00  1.50000000E+00  8.00000000E-01  8.00000000E-01  1.50000000E+00
  1.50000000E+00  8.00000000E-01  8.00000000E-01  1.50000000E+00  1.50000000E+00
  8.00000000E-01  8.00000000E-01  1.50000000E+00  1.50000000E+00  8.00000000E-01
  8.00000000E-01  1.50000000E+00  1.50000000E+00  8.00000000E-01  8.00000000E-01
  1.50000000E+00  1.50000000E+00  8.00000000E-01  8.00000000E-01  1.50000000E+00
  1.50000000E+00  8.00000000E-01  8.00000000E-01  1.50000000E+00  1.50000000E+00
  8.00000000E-01  8.00000000E-01  1.50000000E+00  1.50000000E+00  8.00000000E-01
  8.00000000E-01  1.50000000E+00  1.50000000E+00  8.00000000E-01  8.00000000E-01
  1.50000000E+00  1.50000000E+00  8.00000000E-01  8.00000000E-01  1.50000000E+00
  1.50000000E+00  8.00000000E-01  8.00000000E-01  1.50000000E+00  1.50000000E+00
  8.00000000E-01  8.00000000E-01  1.50000000E+00  1.50000000E+00  8.00000000E-01
  8.00000000E-01  1.50000000E+00  1.50000000E+00  8.00000000E-01  8.00000000E-01
  1.50000000E+00  1.50000000E+00  8.00000000E-01  8.00000000E-01  1.50000000E+00
  1.50000000E+00  8.00000000E-01  8.00000000E-01  1.50000000E+00  1.50000000E+00
  8.00000000E-01  8.00000000E-01  1.50000000E+00  1.50000000E+00  8.00000000E-01
  8.00000000E-01  1.50000000E+00  1.50000000E+00  8.00000000E-01  8.00000000E-01
  1.50000000E+00  1.50000000E+00  8.00000000E-01  8.00000000E-01  1.50000000E+00
  1.50000000E+00  8.00000000E-01  8.00000000E-01  1.50000000E+00  1.50000000E+00
  8.00000000E-01  8.00000000E-01  1.50000000E+00  1.50000000E+00  8.00000000E-01
  8.00000000E-01  1.50000000E+00  1.50000000E+00  8.00000000E-01  8.00000000E-01
  1.50000000E+00  1.50000000E+00  8.00000000E-01  8.00000000E-01  1.50000000E+00
  1.50000000E+00  8.00000000E-01  8.00000000E-01  1.50000000E+00  1.50000000E+00
  8.00000000E-01  8.00000000E-01  1.50000000E+00  1.50000000E+00  8.00000000E-01
  8.00000000E-01  1.50000000E+00  1.50000000E+00  8.00000000E-01  8.00000000E-01
  1.50000000E+00  1.50000000E+00  8.00000000E-01  8.00000000E-01  1.50000000E+00
  1.50000000E+00  8.00000000E-01  8.00000000E-01  1.50000000E+00  1.50000000E+00
  8.00000000E-01  8.00000000E-01  1.50000000E+00  1.50000000E+00  8.00000000E-01
  8.00000000E-01  1.50000000E+00  1.50000000E+00  8.00000000E-01  8.00000000E-01
  1.50000000E+00  1.50000000E+00  8.00000000E-01  8.00000000E-01  1.50000000E+00
  1.50000000E+00  8.00000000E-01  8.00000000E-01  1.50000000E+00  1.50000000E+00
  8.00000000E-01  8.00000000E-01  1.50000000E+00  1.50000000E+00  8.00000000E-01
  8.00000000E-01  1.50000000E+00  1.50000000E+00  8.00000000E-01  8.00000000E-01
  1.50000000E+00  1.50000000E+00  8.00000000E-01  8.00000000E-01  1.50000000E+00
  1.50000000E+00  8.00000000E-01  8.00000000E-01  1.50000000E+00  1.50000000E+00
  8.00000000E-01  8.00000000E-01  1.50000000E+00  1.50000000E+00  8.00000000E-01
  8.00000000E-01  1.50000000E+00  1.50000000E+00  8.00000000E-01  8.00000000E-01
  1.50000000E+00  1.50000000E+00  8.00000000E-01  8.00000000E-01  1.50000000E+00
  1.50000000E+00  8.00000000E-01  8.00000000E-01  1.50000000E+00  1.50000000E+00
  8.00000000E-01  8.00000000E-01  1.50000000E+00  1.50000000E+00  8.00000000E-01
  8.00000000E-01  1.50000000E+00  1.50000000E+00  8.00000000E-01  8.00000000E-01
  1.50000000E+00  1.50000000E+00  8.00000000E-01  8.00000000E-01  1.50000000E+00
  1.50000000E+00  8.00000000E-01  8.00000000E-01  1.50000000E+00  1.50000000E+00
  8.00000000E-01  8.00000000E-01  1.50000000E+00  1.50000000E+00  8.00000000E-01
  8.00000000E-01  1.50000000E+00  1.50000000E+00  8.00000000E-01  8.00000000E-01
  1.50000000E+00  1.50000000E+00  8.00000000E-01  8.00000000E-01  1.50000000E+00
  1.50000000E+00  8.00000000E-01  8.00000000E-01  1.50000000E+00  1.50000000E+00
  8.00000000E-01  8.00000000E-01  1.50000000E+00  1.50000000E+00  8.00000000E-01
  8.00000000E-01  1.50000000E+00  1.50000000E+00  8.00000000E-01  8.00000000E-01
  1.50000000E+00  1.50000000E+00  8.00000000E-01  8.00000000E-01  1.50000000E+00
  1.50000000E+00  8.00000000E-01  8.00000000E-01  1.50000000E+00  1.50000000E+00
  8.00000000E-01  8.00000000E-01  1.50000000E+00  1.50000000E+00  8.00000000E-01
  8.00000000E-01  1.50000000E+00  1.50000000E+00  8.00000000E-01  8.00000000E-01
  1.50000000E+00  1.50000000E+00  8.00000000E-01  8.00000000E-01  1.50000000E+00
  1.50000000E+00  8.00000000E-01  8.00000000E-01  1.50000000E+00  1.50000000E+00
  8.00000000E-01  8.00000000E-01  1.50000000E+00  1.50000000E+00  8.00000000E-01
  8.00000000E-01  1.50000000E+00  1.50000000E+00  8.00000000E-01  8.00000000E-01
  1.50000000E+00  1.50000000E+00  8.00000000E-01  8.00000000E-01  1.50000000E+00
  1.50000000E+00  8.00000000E-01  8.00000000E-01  1.50000000E+00  1.50000000E+00
  8.00000000E-01  8.00000000E-01  1.50000000E+00  1.50000000E+00  8.00000000E-01
  8.00000000E-01  1.50000000E+00  1.50000000E+00  8.00000000E-01  8.00000000E-01
  1.50000000E+00  1.50000000E+00  8.00000000E-01  8.00000000E-01  1.50000000E+00
  1.50000000E+00  8.00000000E-01  8.00000000E-01  1.50000000E+00  1.50000000E+00
  8.00000000E-01  8.00000000E-01  1.50000000E+00  1.50000000E+00  8.00000000E-01
  8.00000000E-01  1.50000000E+00  1.50000000E+00  8.00000000E-01  8.00000000E-01
  1.50000000E+00  1.50000000E+00  8.00000000E-01  8.00000000E-01  1.50000000E+00
  1.50000000E+00  8.00000000E-01  8.00000000E-01  1.50000000E+00  1.50000000E+00
  8.00000000E-01  8.00000000E-01  1.50000000E+00  1.50000000E+00  8.00000000E-01
  8.00000000E-01  1.50000000E+00  1.50000000E+00  8.00000000E-01  8.00000000E-01
  1.50000000E+00  1.50000000E+00  8.00000000E-01  8.00000000E-01  1.50000000E+00
  1.50000000E+00  8.00000000E-01  8.00000000E-01  1.50000000E+00  1.50000000E+00
  8.00000000E-01  8.00000000E-01  1.50000000E+00  1.50000000E+00  8.00000000E-01
  8.00000000E-01  1.50000000E+00  1.50000000E+00  8.00000000E-01  8.00000000E-01
  1.50000000E+00  1.50000000E+00  8.00000000E-01  8.00000000E-01  1.50000000E+00
  1.50000000E+00  8.00000000E-01  8.00000000E-01  1.50000000E+00  1.50000000E+00
  8.00000000E-01  8.00000000E-01  1.50000000E+00  1.50000000E+00  8.00000000E-01
  8.00000000E-01  1.50000000E+00  1.50000000E+00  8.00000000E-01  8.00000000E-01
  1.50000000E+00  1.50000000E+00  8.00000000E-01  8.00000000E-01  1.50000000E+00
  1.50000000E+00  8.00000000E-01  8.00000000E-01  1.50000000E+00  1.50000000E+00
  8.00000000E-01  8.00000000E-01  1.50000000E+00  1.50000000E+00  8.00000000E-01
  8.00000000E-01  1.50000000E+00  1.50000000E+00  8.00000000E-01  8.00000000E-01
  1.50000000E+00  1.50000000E+00  8.00000000E-01  8.00000000E-01  1.50000000E+00
  1.50000000E+00  8.00000000E-01  8.00000000E-01  1.50000000E+00  1.50000000E+00
  8.00000000E-01  8.00000000E-01  1.50000000E+00  1.50000000E+00  8.00000000E-01
  8.00000000E-01  1.50000000E+00  1.50000000E+00  8.00000000E-01  8.00000000E-01
  1.50000000E+00  1.50000000E+00  8.00000000E-01  8.00000000E-01  1.50000000E+00
  1.50000000E+00  8.00000000E-01  8.00000000E-01  1.50000000E+00  1.50000000E+00
  8.00000000E-01  8.00000000E-01  1.50000000E+00  1.50000000E+00  8.00000000E-01
  8.00000000E-01  1.50000000E+00  1.50000000E+00  8.00000000E-01  8.00000000E-01
  1.50000000E+00  1.50000000E+00  8.00000000E-01  8.00000000E-01  1.50000000E+00
  1.50000000E+00  8.00000000E-01  8.00000000E-01  1.50000000E+00  1.50000000E+00
  8.00000000E-01  8.00000000E-01  1.50000000E+00  1.50000000E+00  8.00000000E-01
  8.00000000E-01  1.50000000E+00  1.50000000E+00  8.00000000E-01  8.00000000E-01
  1.50000000E+00  1.50000000E+00  8.00000000E-01  8.00000000E-01  1.50000000E+00
  1.50000000E+00  8.00000000E-01  8.00000000E-01  1.50000000E+00  1.50000000E+00
  8.00000000E-01  8.00000000E-01  1.50000000E+00  1.50000000E+00  8.00000000E-01
  8.00000000E-01  1.50000000E+00  1.50000000E+00  8.00000000E-01  8.00000000E-01
  1.50000000E+00  1.50000000E+00  8.00000000E-01  8.00000000E-01  1.50000000E+00
  1.50000000E+00  8.00000000E-01  8.00000000E-01  1.50000000E+00  1.50000000E+00
  8.00000000E-01  8.00000000E-01  1.50000000E+00  1.50000000E+00  8.00000000E-01
  8.00000000E-01  1.50000000E+00  1.50000000E+00  8.00000000E-01  8.00000000E-01
  1.50000000E+00  1.50000000E+00  8.00000000E-01  8.00000000E-01  1.50000000E+00
  1.50000000E+00  8.00000000E-01  8.00000000E-01  1.50000000E+00  1.50000000E+00
  8.00000000E-01  8.00000000E-01  1.50000000E+00  1.50000000E+00  8.00000000E-01
  8.00000000E-01  1.50000000E+00  1.50000000E+00  8.00000000E-01  8.00000000E-01
  1.50000000E+00  1.50000000E+00  8.00000000E-01  8.00000000E-01  1.50000000E+00
  1.50000000E+00  8.00000000E-01  8.00000000E-01  1.50000000E+00  1.50000000E+00
  8.00000000E-01  8.00000000E-01  1.50000000E+00  1.50000000E+00  8.00000000E-01
  8.00000000E-01  1.50000000E+00  1.50000000E+00  8.00000000E-01  8.00000000E-01
  1.50000000E+00  1.50000000E+00  8.00000000E-01  8.00000000E-01  1.50000000E+00
  1.50000000E+00  8.00000000E-01  8.00000000E-01  1.50000000E+00  1.50000000E+00
  8.00000000E-01  8.00000000E-01  1.50000000E+00  1.50000000E+00  8.00000000E-01
  8.00000000E-01  1.50000000E+00  1.50000000E+00  8.00000000E-01  8.00000000E-01
  1.50000000E+00  1.50000000E+00  8.00000000E-01  8.00000000E-01  1.50000000E+00
  1.50000000E+00  8.00000000E-01  8.00000000E-01  1.50000000E+00  1.50000000E+00
  8.00000000E-01  8.00000000E-01  1.50000000E+00  1.50000000E+00  8.00000000E-01
  8.00000000E-01  1.50000000E+00  1.50000000E+00  8.00000000E-01  8.00000000E-01
  1.50000000E+00  1.50000000E+00  8.00000000E-01  8.00000000E-01  1.50000000E+00
  1.50000000E+00  8.00000000E-01  8.00000000E-01  1.50000000E+00  1.50000000E+00
  8.00000000E-01  8.00000000E-01  1.50000000E+00  1.50000000E+00  8.00000000E-01
  8.00000000E-01  1.50000000E+00  1.50000000E+00  8.00000000E-01  8.00000000E-01
  1.50000000E+00  1.50000000E+00  8.00000000E-01  8.00000000E-01  1.50000000E+00
  1.50000000E+00  8.00000000E-01  8.00000000E-01  1.50000000E+00  1.50000000E+00
  8.00000000E-01  8.00000000E-01  1.50000000E+00  1.50000000E+00  8.00000000E-01
  8.00000000E-01  1.50000000E+00  1.50000000E+00  8.00000000E-01  8.00000000E-01
  1.50000000E+00  1.50000000E+00  8.00000000E-01  8.00000000E-01  1.50000000E+00
  1.50000000E+00  8.00000000E-01  8.00000000E-01  1.50000000E+00  1.50000000E+00
  8.00000000E-01  8.00000000E-01  1.50000000E+00  1.50000000E+00  8.00000000E-01
  8.00000000E-01  1.50000000E+00  1.50000000E+00  8.00000000E-01  8.00000000E-01
  1.50000000E+00  1.50000000E+00  8.00000000E-01  8.00000000E-01  1.50000000E+00
  1.50000000E+00  8.00000000E-01  8.00000000E-01  1.50000000E+00  1.50000000E+00
  8.00000000E-01  8.00000000E-01  1.50000000E+00  1.50000000E+00  8.00000000E-01
  8.00000000E-01  1.50000000E+00  1.50000000E+00  8.00000000E-01  8.00000000E-01
  1.50000000E+00  1.50000000E+00  8.00000000E-01  8.00000000E-01  1.50000000E+00
  1.50000000E+00  8.00000000E-01  8.00000000E-01  1.50000000E+00  1.50000000E+00
  8.00000000E-01  8.00000000E-01  1.50000000E+00  1.50000000E+00  8.00000000E-01
  8.00000000E-01  1.50000000E+00  1.50000000E+00  8.00000000E-01  8.00000000E-01
  1.50000000E+00  1.50000000E+00  8.00000000E-01  8.00000000E-01  1.50000000E+00
  1.50000000E+00  8.00000000E-01  8.00000000E-01  1.50000000E+00  1.50000000E+00
  8.00000000E-01  8.00000000E-01  1.50000000E+00  1.50000000E+00  8.00000000E-01
  8.00000000E-01  1.50000000E+00  1.50000000E+00  8.00000000E-01  8.00000000E-01
  1.50000000E+00  1.50000000E+00  8.00000000E-01  8.00000000E-01  1.50000000E+00
  1.50000000E+00  8.00000000E-01  8.00000000E-01  1.50000000E+00  1.50000000E+00
  8.00000000E-01  8.00000000E-01  1.50000000E+00  1.50000000E+00  8.00000000E-01
  8.00000000E-01  1.50000000E+00  1.50000000E+00  8.00000000E-01  8.00000000E-01
  1.50000000E+00  1.50000000E+00  8.00000000E-01  8.00000000E-01  1.50000000E+00
  1.50000000E+00  8.00000000E-01  8.00000000E-01  1.50000000E+00  1.50000000E+00
  8.00000000E-01  8.00000000E-01  1.50000000E+00  1.50000000E+00  8.00000000E-01
  8.00000000E-01  1.50000000E+00  1.50000000E+00  8.00000000E-01  8.00000000E-01
  1.50000000E+00  1.50000000E+00  8.00000000E-01  8.00000000E-01  1.50000000E+00
  1.50000000E+00  8.00000000E-01  8.00000000E-01  1.50000000E+00  1.50000000E+00
  8.00000000E-01  8.00000000E-01  1.50000000E+00  1.50000000E+00  8.00000000E-01
  8.00000000E-01  1.50000000E+00  1.50000000E+00  8.00000000E-01  8.00000000E-01
  1.50000000E+00  1.50000000E+00  8.00000000E-01  8.00000000E-01  1.50000000E+00
  1.50000000E+00  8.00000000E-01  8.00000000E-01  1.50000000E+00  1.50000000E+00
  8.00000000E-01  8.00000000E-01  1.50000000E+00  1.50000000E+00  8.00000000E-01
  8.00000000E-01  1.50000000E+00  1.50000000E+00  8.00000000E-01  8.00000000E-01
  1.50000000E+00  1.50000000E+00  8.00000000E-01  8.00000000E-01  1.50000000E+00
  1.50000000E+00  8.00000000E-01  8.00000000E-01  1.50000000E+00  1.50000000E+00
  8.00000000E-01  8.00000000E-01  1.50000000E+00  1.50000000E+00  8.00000000E-01
  8.00000000E-01  1.50000000E+00  1.50000000E+00  8.00000000E-01  8.00000000E-01
  1.50000000E+00  1.50000000E+00  8.00000000E-01  8.00000000E-01  1.50000000E+00
  1.50000000E+00  8.00000000E-01  8.00000000E-01  1.50000000E+00  1.50000000E+00
  8.00000000E-01  8.00000000E-01  1.50000000E+00  1.50000000E+00  8.00000000E-01
  8.00000000E-01  1.50000000E+00  1.50000000E+00  8.00000000E-01  8.00000000E-01
  1.50000000E+00  1.50000000E+00  8.00000000E-01  8.00000000E-01  1.50000000E+00
  1.50000000E+00  8.00000000E-01  8.00000000E-01  1.50000000E+00  1.50000000E+00
  8.00000000E-01  8.00000000E-01  1.50000000E+00  1.50000000E+00  8.00000000E-01
  8.00000000E-01  1.50000000E+00  1.50000000E+00  8.00000000E-01  8.00000000E-01
  1.50000000E+00  1.50000000E+00  8.00000000E-01  8.00000000E-01  1.50000000E+00
  1.50000000E+00  8.00000000E-01  8.00000000E-01  1.50000000E+00  1.50000000E+00
  8.00000000E-01  8.00000000E-01  1.50000000E+00  1.50000000E+00  8.00000000E-01
  8.00000000E-01  1.50000000E+00  1.50000000E+00  8.00000000E-01  8.00000000E-01
  1.50000000E+00  1.50000000E+00  8.00000000E-01  8.00000000E-01  1.50000000E+00
  1.50000000E+00  8.00000000E-01  8.00000000E-01  1.50000000E+00  1.50000000E+00
  8.00000000E-01  8.00000000E-01  1.50000000E+00  1.50000000E+00  8.00000000E-01
  8.00000000E-01  1.50000000E+00  1.50000000E+00  8.00000000E-01  8.00000000E-01
  1.50000000E+00  1.50000000E+00  8.00000000E-01  8.00000000E-01  1.50000000E+00
  1.50000000E+00  8.00000000E-01  8.00000000E-01  1.50000000E+00  1.50000000E+00
  8.00000000E-01  8.00000000E-01  1.50000000E+00  1.50000000E+00  8.00000000E-01
  8.00000000E-01  1.50000000E+00  1.50000000E+00  8.00000000E-01  8.00000000E-01
  1.50000000E+00  1.50000000E+00  8.00000000E-01  8.00000000E-01  1.50000000E+00
  1.50000000E+00  8.00000000E-01  8.00000000E-01  1.50000000E+00  1.50000000E+00
  8.00000000E-01  8.00000000E-01  1.50000000E+00  1.50000000E+00  8.00000000E-01
  8.00000000E-01  1.50000000E+00  1.50000000E+00  8.00000000E-01  8.00000000E-01
  1.50000000E+00  1.50000000E+00  8.00000000E-01  8.00000000E-01  1.50000000E+00
  1.50000000E+00  8.00000000E-01  8.00000000E-01  1.50000000E+00  1.50000000E+00
  8.00000000E-01  8.00000000E-01  1.50000000E+00  1.50000000E+00  8.00000000E-01
  8.00000000E-01  1.50000000E+00  1.50000000E+00  8.00000000E-01  8.00000000E-01
  1.50000000E+00  1.50000000E+00  8.00000000E-01  8.00000000E-01  1.50000000E+00
  1.50000000E+00  8.00000000E-01  8.00000000E-01  1.50000000E+00  1.50000000E+00
  8.00000000E-01  8.00000000E-01  1.50000000E+00  1.50000000E+00  8.00000000E-01
  8.00000000E-01  1.50000000E+00  1.50000000E+00  8.00000000E-01  8.00000000E-01
  1.50000000E+00  1.50000000E+00  8.00000000E-01  8.00000000E-01  1.50000000E+00
  1.50000000E+00  8.00000000E-01  8.00000000E-01  1.50000000E+00  1.50000000E+00
  8.00000000E-01  8.00000000E-01  1.50000000E+00  1.50000000E+00  8.00000000E-01
  8.00000000E-01  1.50000000E+00  1.50000000E+00  8.00000000E-01  8.00000000E-01
  1.50000000E+00  1.50000000E+00  8.00000000E-01  8.00000000E-01  1.50000000E+00
  1.50000000E+00  8.00000000E-01  8.00000000E-01  1.50000000E+00  1.50000000E+00
  8.00000000E-01  8.00000000E-01  1.50000000E+00  1.50000000E+00  8.00000000E-01
  8.00000000E-01  1.50000000E+00  1.50000000E+00  8.00000000E-01  8.00000000E-01
  1.50000000E+00  1.50000000E+00  8.00000000E-01  8.00000000E-01  1.50000000E+00
  1.50000000E+00  8.00000000E-01  8.00000000E-01  1.50000000E+00  1.50000000E+00
  8.00000000E-01  8.00000000E-01  1.50000000E+00  1.50000000E+00  8.00000000E-01
  8.00000000E-01  1.50000000E+00  1.50000000E+00  8.00000000E-01  8.00000000E-01
  1.50000000E+00  1.50000000E+00  8.00000000E-01  8.00000000E-01  1.50000000E+00
  1.50000000E+00  8.00000000E-01  8.00000000E-01  1.50000000E+00  1.50000000E+00
  8.00000000E-01  8.00000000E-01  1.50000000E+00  1.50000000E+00  8.00000000E-01
  8.00000000E-01  1.50000000E+00  1.50000000E+00  8.00000000E-01  8.00000000E-01
  1.50000000E+00  1.50000000E+00  8.00000000E-01  8.00000000E-01  1.50000000E+00
  1.50000000E+00  8.00000000E-01  8.00000000E-01  1.50000000E+00  1.50000000E+00
  8.00000000E-01  8.00000000E-01  1.50000000E+00  1.50000000E+00  8.00000000E-01
  8.00000000E-01  1.50000000E+00  1.50000000E+00  8.00000000E-01  8.00000000E-01
  1.50000000E+00  1.50000000E+00  8.00000000E-01  8.00000000E-01  1.50000000E+00
  1.50000000E+00  8.00000000E-01  8.00000000E-01  1.50000000E+00  1.50000000E+00
  8.00000000E-01  8.00000000E-01  1.50000000E+00  1.50000000E+00  8.00000000E-01
  8.00000000E-01  1.50000000E+00  1.50000000E+00  8.00000000E-01  8.00000000E-01
  1.50000000E+00  1.50000000E+00  8.00000000E-01  8.00000000E-01  1.50000000E+00
  1.50000000E+00  8.00000000E-01  8.00000000E-01  1.50000000E+00  1.50000000E+00
  8.00000000E-01  8.00000000E-01  1.50000000E+00  1.50000000E+00  8.00000000E-01
  8.00000000E-01  1.50000000E+00  1.50000000E+00  8.00000000E-01  8.00000000E-01
  1.50000000E+00  1.50000000E+00  8.00000000E-01  8.00000000E-01  1.50000000E+00
  1.50000000E+00  8.00000000E-01  8.00000000E-01  1.50000000E+00  1.50000000E+00
  8.00000000E-01  8.00000000E-01  1.50000000E+00  1.50000000E+00  8.00000000E-01
  8.00000000E-01  1.50000000E+00  1.50000000E+00  8.00000000E-01  8.00000000E-01
  1.50000000E+00  1.50000000E+00  8.00000000E-01  8.00000000E-01  1.50000000E+00
  1.50000000E+00  8.00000000E-01  8.00000000E-01  1.50000000E+00  1.50000000E+00
  8.00000000E-01  8.00000000E-01  1.50000000E+00  1.50000000E+00  8.00000000E-01
  8.00000000E-01  1.50000000E+00  1.50000000E+00  8.00000000E-01  8.00000000E-01
  1.50000000E+00  1.50000000E+00  8.00000000E-01  8.00000000E-01  1.50000000E+00
  1.50000000E+00  8.00000000E-01  8.00000000E-01  1.50000000E+00  1.50000000E+00
  8.00000000E-01  8.00000000E-01  1.50000000E+00  1.50000000E+00  8.00000000E-01
  8.00000000E-01  1.50000000E+00  1.50000000E+00  8.00000000E-01  8.00000000E-01
  1.50000000E+00  1.50000000E+00  8.00000000E-01  8.00000000E-01  1.50000000E+00
  1.50000000E+00  8.00000000E-01  8.00000000E-01  1.50000000E+00  1.50000000E+00
  8.00000000E-01  8.00000000E-01  1.50000000E+00  1.50000000E+00  8.00000000E-01
  8.00000000E-01  1.50000000E+00  1.50000000E+00  8.00000000E-01  8.00000000E-01
  1.50000000E+00  1.50000000E+00  8.00000000E-01  8.00000000E-01  1.50000000E+00
  1.50000000E+00  8.00000000E-01  8.00000000E-01  1.50000000E+00  1.50000000E+00
  8.00000000E-01  8.00000000E-01  1.50000000E+00  1.50000000E+00  8.00000000E-01
  8.00000000E-01  1.50000000E+00  1.50000000E+00  8.00000000E-01  8.00000000E-01
  1.50000000E+00  1.50000000E+00  8.00000000E-01  8.00000000E-01  1.50000000E+00
  1.50000000E+00  8.00000000E-01  8.00000000E-01  1.50000000E+00  1.50000000E+00
  8.00000000E-01  8.00000000E-01  1.50000000E+00  1.50000000E+00  8.00000000E-01
  8.00000000E-01  1.50000000E+00  1.50000000E+00  8.00000000E-01  8.00000000E-01
  1.50000000E+00  1.50000000E+00  8.00000000E-01  8.00000000E-01  1.50000000E+00
  1.50000000E+00  8.00000000E-01  8.00000000E-01  1.50000000E+00  1.50000000E+00
  8.00000000E-01  8.00000000E-01  1.50000000E+00  1.50000000E+00  8.00000000E-01
  8.00000000E-01  1.50000000E+00  1.50000000E+00  8.00000000E-01  8.00000000E-01
  1.50000000E+00  1.50000000E+00  8.00000000E-01  8.00000000E-01  1.50000000E+00
  1.50000000E+00  8.00000000E-01  8.00000000E-01  1.50000000E+00  1.50000000E+00
  8.00000000E-01  8.00000000E-01  1.50000000E+00  1.50000000E+00  8.00000000E-01
  8.00000000E-01  1.50000000E+00  1.50000000E+00  8.00000000E-01  8.00000000E-01
  1.50000000E+00  1.50000000E+00  8.00000000E-01  8.00000000E-01  1.50000000E+00
  1.50000000E+00  8.00000000E-01  8.00000000E-01  1.50000000E+00  1.50000000E+00
  8.00000000E-01  8.00000000E-01  1.50000000E+00  1.50000000E+00  8.00000000E-01
  8.00000000E-01  1.50000000E+00  1.50000000E+00  8.00000000E-01  8.00000000E-01
  1.50000000E+00  1.50000000E+00  8.00000000E-01  8.00000000E-01  1.50000000E+00
  1.50000000E+00  8.00000000E-01  8.00000000E-01  1.50000000E+00  1.50000000E+00
  8.00000000E-01  8.00000000E-01  1.50000000E+00  1.50000000E+00  8.00000000E-01
  8.00000000E-01  1.50000000E+00  1.50000000E+00  8.00000000E-01  8.00000000E-01
  1.50000000E+00  1.50000000E+00  8.00000000E-01  8.00000000E-01  1.50000000E+00
  1.50000000E+00  8.00000000E-01  8.00000000E-01  1.50000000E+00  1.50000000E+00
  8.00000000E-01  8.00000000E-01  1.50000000E+00  1.50000000E+00  8.00000000E-01
  8.00000000E-01  1.50000000E+00  1.50000000E+00  8.00000000E-01  8.00000000E-01
  1.50000000E+00  1.50000000E+00  8.00000000E-01  8.00000000E-01  1.50000000E+00
  1.50000000E+00  8.00000000E-01  8.00000000E-01  1.50000000E+00  1.50000000E+00
  8.00000000E-01  8.00000000E-01  1.50000000E+00  1.50000000E+00  8.00000000E-01
  8.00000000E-01  1.50000000E+00  1.50000000E+00  8.00000000E-01  8.00000000E-01
  1.50000000E+00  1.50000000E+00  8.00000000E-01  8.00000000E-01  1.50000000E+00
  1.50000000E+00  8.00000000E-01  8.00000000E-01  1.50000000E+00  1.50000000E+00
  8.00000000E-01  8.00000000E-01  1.50000000E+00  1.50000000E+00  8.00000000E-01
  8.00000000E-01  1.50000000E+00  1.50000000E+00  8.00000000E-01  8.00000000E-01
  1.50000000E+00  1.50000000E+00  8.00000000E-01  8.00000000E-01  1.50000000E+00
  1.50000000E+00  8.00000000E-01  8.00000000E-01  1.50000000E+00  1.50000000E+00
  8.00000000E-01  8.00000000E-01  1.50000000E+00  1.50000000E+00  8.00000000E-01
  8.00000000E-01  1.50000000E+00  1.50000000E+00  8.00000000E-01  8.00000000E-01
  1.50000000E+00  1.50000000E+00  8.00000000E-01  8.00000000E-01  1.50000000E+00
  1.50000000E+00  8.00000000E-01  8.00000000E-01  1.50000000E+00  1.50000000E+00
  8.00000000E-01  8.00000000E-01  1.50000000E+00  1.50000000E+00  8.00000000E-01
  8.00000000E-01  1.50000000E+00  1.50000000E+00  8.00000000E-01  8.00000000E-01
  1.50000000E+00  1.50000000E+00  8.00000000E-01  8.00000000E-01  1.50000000E+00
  1.50000000E+00  8.00000000E-01  8.00000000E-01  1.50000000E+00  1.50000000E+00
  8.00000000E-01  8.00000000E-01  1.50000000E+00  1.50000000E+00  8.00000000E-01
  8.00000000E-01  1.50000000E+00  1.50000000E+00  8.00000000E-01  8.00000000E-01
  1.50000000E+00  1.50000000E+00  8.00000000E-01  8.00000000E-01  1.50000000E+00
  1.50000000E+00  8.00000000E-01  8.00000000E-01  1.50000000E+00  1.50000000E+00
  8.00000000E-01  8.00000000E-01  1.50000000E+00  1.50000000E+00  8.00000000E-01
  8.00000000E-01  1.50000000E+00  1.50000000E+00  8.00000000E-01  8.00000000E-01
  1.50000000E+00  1.50000000E+00  8.00000000E-01  8.00000000E-01  1.50000000E+00
  1.50000000E+00  8.00000000E-01  8.00000000E-01  1.50000000E+00  1.50000000E+00
  8.00000000E-01  8.00000000E-01  1.50000000E+00  1.50000000E+00  8.00000000E-01
  8.00000000E-01  1.50000000E+00  1.50000000E+00  8.00000000E-01  8.00000000E-01
  1.50000000E+00  1.50000000E+00  8.00000000E-01  8.00000000E-01  1.50000000E+00
  1.50000000E+00  8.00000000E-01  8.00000000E-01  1.50000000E+00  1.50000000E+00
  8.00000000E-01  8.00000000E-01  1.50000000E+00  1.50000000E+00  8.00000000E-01
  8.00000000E-01  1.50000000E+00  1.50000000E+00  8.00000000E-01  8.00000000E-01
  1.50000000E+00  1.50000000E+00  8.00000000E-01  8.00000000E-01  1.50000000E+00
  1.50000000E+00  8.00000000E-01  8.00000000E-01  1.50000000E+00  1.50000000E+00
  8.00000000E-01  8.00000000E-01  1.50000000E+00  1.50000000E+00  8.00000000E-01
  8.00000000E-01  1.50000000E+00  1.50000000E+00  8.00000000E-01  8.00000000E-01
  1.50000000E+00  1.50000000E+00  8.00000000E-01  8.00000000E-01  1.50000000E+00
  1.50000000E+00  8.00000000E-01  8.00000000E-01  1.50000000E+00  1.50000000E+00
  8.00000000E-01  8.00000000E-01  1.50000000E+00  1.50000000E+00  8.00000000E-01
  8.00000000E-01  1.50000000E+00  1.50000000E+00  8.00000000E-01  8.00000000E-01
  1.50000000E+00  1.50000000E+00  8.00000000E-01  8.00000000E-01  1.50000000E+00
  1.50000000E+00  8.00000000E-01  8.00000000E-01  1.50000000E+00  1.50000000E+00
  8.00000000E-01  8.00000000E-01  1.50000000E+00  1.50000000E+00  8.00000000E-01
  8.00000000E-01  1.50000000E+00  1.50000000E+00  8.00000000E-01  8.00000000E-01
  1.50000000E+00  1.50000000E+00  8.00000000E-01  8.00000000E-01  1.50000000E+00
  1.50000000E+00  8.00000000E-01  8.00000000E-01  1.50000000E+00  1.50000000E+00
  8.00000000E-01  8.00000000E-01  1.50000000E+00  1.50000000E+00  8.00000000E-01
  8.00000000E-01  1.50000000E+00  1.50000000E+00  8.00000000E-01  8.00000000E-01
  1.50000000E+00  1.50000000E+00  8.00000000E-01  8.00000000E-01  1.50000000E+00
  1.50000000E+00  8.00000000E-01  8.00000000E-01  1.50000000E+00  1.50000000E+00
  8.00000000E-01  8.00000000E-01  1.50000000E+00  1.50000000E+00  8.00000000E-01
  8.00000000E-01  1.50000000E+00  1.50000000E+00  8.00000000E-01  8.00000000E-01
  1.50000000E+00  1.50000000E+00  8.00000000E-01  8.00000000E-01  1.50000000E+00
  1.50000000E+00  8.00000000E-01  8.00000000E-01  1.50000000E+00  1.50000000E+00
  8.00000000E-01  8.00000000E-01  1.50000000E+00  1.50000000E+00  8.00000000E-01
  8.00000000E-01  1.50000000E+00  1.50000000E+00  8.00000000E-01  8.00000000E-01
  1.50000000E+00  1.50000000E+00  8.00000000E-01  8.00000000E-01  1.50000000E+00
  1.50000000E+00  8.00000000E-01  8.00000000E-01  1.50000000E+00  1.50000000E+00
  8.00000000E-01  8.00000000E-01  1.50000000E+00  1.50000000E+00  8.00000000E-01
  8.00000000E-01  1.50000000E+00  1.50000000E+00  8.00000000E-01  8.00000000E-01
  1.50000000E+00  1.50000000E+00  8.00000000E-01  8.00000000E-01  1.50000000E+00
  1.50000000E+00  8.00000000E-01  8.00000000E-01  1.50000000E+00  1.50000000E+00
  8.00000000E-01  8.00000000E-01  1.50000000E+00  1.50000000E+00  8.00000000E-01
  8.00000000E-01  1.50000000E+00  1.50000000E+00  8.00000000E-01  8.00000000E-01
  1.50000000E+00  1.50000000E+00  8.00000000E-01  8.00000000E-01  1.50000000E+00
  1.50000000E+00  8.00000000E-01  8.00000000E-01  1.50000000E+00  1.50000000E+00
  8.00000000E-01  8.00000000E-01  1.50000000E+00  1.50000000E+00  8.00000000E-01
  8.00000000E-01  1.50000000E+00  1.50000000E+00  8.00000000E-01  8.00000000E-01
  1.50000000E+00  1.50000000E+00  8.00000000E-01  8.00000000E-01  1.50000000E+00
  1.50000000E+00  8.00000000E-01  8.00000000E-01  1.50000000E+00  1.50000000E+00
  8.00000000E-01  8.00000000E-01  1.50000000E+00  1.50000000E+00  8.00000000E-01
  8.00000000E-01  1.50000000E+00  1.50000000E+00  8.00000000E-01  8.00000000E-01
  1.50000000E+00  1.50000000E+00  8.00000000E-01  8.00000000E-01  1.50000000E+00
  1.50000000E+00  8.00000000E-01  8.00000000E-01  1.50000000E+00  1.50000000E+00
  8.00000000E-01  8.00000000E-01  1.50000000E+00  1.50000000E+00  8.00000000E-01
  8.00000000E-01  1.50000000E+00  1.50000000E+00  8.00000000E-01  8.00000000E-01
  1.50000000E+00  1.50000000E+00  8.00000000E-01  8.00000000E-01  1.50000000E+00
  1.50000000E+00  8.00000000E-01  8.00000000E-01  1.50000000E+00  1.50000000E+00
  8.00000000E-01  8.00000000E-01  1.50000000E+00  1.50000000E+00  8.00000000E-01
  8.00000000E-01  1.50000000E+00  1.50000000E+00  8.00000000E-01  8.00000000E-01
  1.50000000E+00  1.50000000E+00  8.00000000E-01  8.00000000E-01  1.50000000E+00
  1.50000000E+00  8.00000000E-01  8.00000000E-01  1.50000000E+00  1.50000000E+00
  8.00000000E-01  8.00000000E-01  1.50000000E+00  1.50000000E+00  8.00000000E-01
  8.00000000E-01  1.50000000E+00  1.50000000E+00  8.00000000E-01  8.00000000E-01
  1.50000000E+00  1.50000000E+00  8.00000000E-01  8.00000000E-01  1.50000000E+00
  1.50000000E+00  8.00000000E-01  8.00000000E-01  1.50000000E+00  1.50000000E+00
  8.00000000E-01  8.00000000E-01  1.50000000E+00  1.50000000E+00  8.00000000E-01
  8.00000000E-01  1.50000000E+00  1.50000000E+00  8.00000000E-01  8.00000000E-01
  1.50000000E+00  1.50000000E+00  8.00000000E-01  8.00000000E-01  1.50000000E+00
  1.50000000E+00  8.00000000E-01  8.00000000E-01  1.50000000E+00  1.50000000E+00
  8.00000000E-01  8.00000000E-01  1.50000000E+00  1.50000000E+00  8.00000000E-01
  8.00000000E-01  1.50000000E+00  1.50000000E+00  8.00000000E-01  8.00000000E-01
  1.50000000E+00  1.50000000E+00  8.00000000E-01  8.00000000E-01  1.50000000E+00
  1.50000000E+00  8.00000000E-01  8.00000000E-01  1.50000000E+00  1.50000000E+00
  8.00000000E-01  8.00000000E-01  1.50000000E+00  1.50000000E+00  8.00000000E-01
  8.00000000E-01  1.50000000E+00  1.50000000E+00  8.00000000E-01  8.00000000E-01
  1.50000000E+00  1.50000000E+00  8.00000000E-01  8.00000000E-01  1.50000000E+00
  1.50000000E+00  8.00000000E-01  8.00000000E-01  1.50000000E+00  1.50000000E+00
  8.00000000E-01  8.00000000E-01  1.50000000E+00  1.50000000E+00  8.00000000E-01
  8.00000000E-01  1.50000000E+00  1.50000000E+00  8.00000000E-01  8.00000000E-01
  1.50000000E+00  1.50000000E+00  8.00000000E-01  8.00000000E-01  1.50000000E+00
  1.50000000E+00  8.00000000E-01  8.00000000E-01  1.50000000E+00  1.50000000E+00
  8.00000000E-01  8.00000000E-01  1.50000000E+00  1.50000000E+00  8.00000000E-01
  8.00000000E-01  1.50000000E+00  1.50000000E+00  8.00000000E-01  8.00000000E-01
  1.50000000E+00  1.50000000E+00  8.00000000E-01  8.00000000E-01  1.50000000E+00
  1.50000000E+00  8.00000000E-01  8.00000000E-01  1.50000000E+00  1.50000000E+00
  8.00000000E-01  8.00000000E-01  1.50000000E+00  1.50000000E+00  8.00000000E-01
  8.00000000E-01  1.50000000E+00  1.50000000E+00  8.00000000E-01  8.00000000E-01
  1.50000000E+00  1.50000000E+00  8.00000000E-01  8.00000000E-01  1.50000000E+00
  1.50000000E+00  8.00000000E-01  8.00000000E-01  1.50000000E+00  1.50000000E+00
  8.00000000E-01  8.00000000E-01  1.50000000E+00  1.50000000E+00  8.00000000E-01
  8.00000000E-01  1.50000000E+00  1.50000000E+00  8.00000000E-01  8.00000000E-01
  1.50000000E+00  1.50000000E+00  8.00000000E-01  8.00000000E-01  1.50000000E+00
  1.50000000E+00  8.00000000E-01  8.00000000E-01  1.50000000E+00  1.50000000E+00
  8.00000000E-01  8.00000000E-01  1.50000000E+00  1.50000000E+00  8.00000000E-01
  8.00000000E-01  1.50000000E+00  1.50000000E+00  8.00000000E-01  8.00000000E-01
  1.50000000E+00  1.50000000E+00  8.00000000E-01  8.00000000E-01  1.50000000E+00
  1.50000000E+00  8.00000000E-01  8.00000000E-01  1.50000000E+00  1.50000000E+00
  8.00000000E-01  8.00000000E-01  1.50000000E+00  1.50000000E+00  8.00000000E-01
  8.00000000E-01  1.50000000E+00  1.50000000E+00  8.00000000E-01  8.00000000E-01
  1.50000000E+00  1.50000000E+00  8.00000000E-01  8.00000000E-01  1.50000000E+00
  1.50000000E+00  8.00000000E-01  8.00000000E-01  1.50000000E+00  1.50000000E+00
  8.00000000E-01  8.00000000E-01  1.50000000E+00  1.50000000E+00  8.00000000E-01
  8.00000000E-01  1.50000000E+00  1.50000000E+00  8.00000000E-01  8.00000000E-01
  1.50000000E+00  1.50000000E+00  8.00000000E-01  8.00000000E-01  1.50000000E+00
  1.50000000E+00  8.00000000E-01  8.00000000E-01  1.50000000E+00  1.50000000E+00
  8.00000000E-01  8.00000000E-01  1.50000000E+00  1.50000000E+00  8.00000000E-01
  8.00000000E-01  1.50000000E+00  1.50000000E+00  8.00000000E-01  8.00000000E-01
  1.50000000E+00  1.50000000E+00  8.00000000E-01  8.00000000E-01  1.50000000E+00
  1.50000000E+00  8.00000000E-01  8.00000000E-01  1.50000000E+00  1.50000000E+00
  8.00000000E-01  8.00000000E-01  1.50000000E+00  1.50000000E+00  8.00000000E-01
  8.00000000E-01  1.50000000E+00  1.50000000E+00  8.00000000E-01  8.00000000E-01
  1.50000000E+00  1.50000000E+00  8.00000000E-01  8.00000000E-01  1.50000000E+00
  1.50000000E+00  8.00000000E-01  8.00000000E-01  1.50000000E+00  1.50000000E+00
  8.00000000E-01  8.00000000E-01  1.50000000E+00  1.50000000E+00  8.00000000E-01
  8.00000000E-01  1.50000000E+00  1.50000000E+00  8.00000000E-01  8.00000000E-01
  1.50000000E+00  1.50000000E+00  8.00000000E-01  8.00000000E-01  1.50000000E+00
  1.50000000E+00  8.00000000E-01  8.00000000E-01  1.50000000E+00  1.50000000E+00
  8.00000000E-01  8.00000000E-01  1.50000000E+00  1.50000000E+00  8.00000000E-01
  8.00000000E-01  1.50000000E+00  1.50000000E+00  8.00000000E-01  8.00000000E-01
  1.50000000E+00  1.50000000E+00  8.00000000E-01  8.00000000E-01  1.50000000E+00
  1.50000000E+00  8.00000000E-01  8.00000000E-01  1.50000000E+00  1.50000000E+00
  8.00000000E-01  8.00000000E-01  1.50000000E+00  1.50000000E+00  8.00000000E-01
  8.00000000E-01  1.50000000E+00  1.50000000E+00  8.00000000E-01  8.00000000E-01
  1.50000000E+00  1.50000000E+00  8.00000000E-01  8.00000000E-01  1.50000000E+00
  1.50000000E+00  8.00000000E-01  8.00000000E-01  1.50000000E+00  1.50000000E+00
  8.00000000E-01  8.00000000E-01  1.50000000E+00  1.50000000E+00  8.00000000E-01
  8.00000000E-01  1.50000000E+00  1.50000000E+00  8.00000000E-01  8.00000000E-01
  1.50000000E+00  1.50000000E+00  8.00000000E-01  8.00000000E-01  1.50000000E+00
  1.50000000E+00  8.00000000E-01  8.00000000E-01  1.50000000E+00  1.50000000E+00
  8.00000000E-01  8.00000000E-01  1.50000000E+00  1.50000000E+00  8.00000000E-01
  8.00000000E-01  1.50000000E+00  1.50000000E+00  8.00000000E-01  8.00000000E-01
  1.50000000E+00  1.50000000E+00  8.00000000E-01  8.00000000E-01  1.50000000E+00
  1.50000000E+00  8.00000000E-01  8.00000000E-01  1.50000000E+00  1.50000000E+00
  8.00000000E-01  8.00000000E-01  1.50000000E+00  1.50000000E+00  8.00000000E-01
  8.00000000E-01  1.50000000E+00  1.50000000E+00  8.00000000E-01  8.00000000E-01
  1.50000000E+00  1.50000000E+00  8.00000000E-01  8.00000000E-01  1.50000000E+00
  1.50000000E+00  8.00000000E-01  8.00000000E-01  1.50000000E+00  1.50000000E+00
  8.00000000E-01  8.00000000E-01  1.50000000E+00  1.50000000E+00  8.00000000E-01
  8.00000000E-01  1.50000000E+00  1.50000000E+00  8.00000000E-01  8.00000000E-01
  1.50000000E+00  1.50000000E+00  8.00000000E-01  8.00000000E-01  1.50000000E+00
  1.50000000E+00  8.00000000E-01  8.00000000E-01  1.50000000E+00  1.50000000E+00
  8.00000000E-01  8.00000000E-01  1.50000000E+00  1.50000000E+00  8.00000000E-01
  8.00000000E-01  1.50000000E+00  1.50000000E+00  8.00000000E-01  8.00000000E-01
  1.50000000E+00  1.50000000E+00  8.00000000E-01  8.00000000E-01  1.50000000E+00
  1.50000000E+00  8.00000000E-01  8.00000000E-01  1.50000000E+00  1.50000000E+00
  8.00000000E-01  8.00000000E-01  1.50000000E+00  1.50000000E+00  8.00000000E-01
  8.00000000E-01  1.50000000E+00  1.50000000E+00  8.00000000E-01  8.00000000E-01
  1.50000000E+00  1.50000000E+00  8.00000000E-01  8.00000000E-01  1.50000000E+00
  1.50000000E+00  8.00000000E-01  8.00000000E-01  1.50000000E+00  1.50000000E+00
  8.00000000E-01  8.00000000E-01  1.50000000E+00  1.50000000E+00  8.00000000E-01
  8.00000000E-01  1.50000000E+00  1.50000000E+00  8.00000000E-01  8.00000000E-01
  1.50000000E+00  1.50000000E+00  8.00000000E-01  8.00000000E-01  1.50000000E+00
  1.50000000E+00  8.00000000E-01  8.00000000E-01  1.50000000E+00  1.50000000E+00
  8.00000000E-01  8.00000000E-01  1.50000000E+00  1.50000000E+00  8.00000000E-01
  8.00000000E-01  1.50000000E+00  1.50000000E+00  8.00000000E-01  8.00000000E-01
  1.50000000E+00  1.50000000E+00  8.00000000E-01  8.00000000E-01  1.50000000E+00
  1.50000000E+00  8.00000000E-01  8.00000000E-01  1.50000000E+00  1.50000000E+00
  8.00000000E-01  8.00000000E-01  1.50000000E+00  1.50000000E+00  8.00000000E-01
  8.00000000E-01  1.50000000E+00  1.50000000E+00  8.00000000E-01  8.00000000E-01
  1.50000000E+00  1.50000000E+00  8.00000000E-01  8.00000000E-01  1.50000000E+00
  1.50000000E+00  8.00000000E-01  8.00000000E-01  1.50000000E+00  1.50000000E+00
  8.00000000E-01  8.00000000E-01  1.50000000E+00  1.50000000E+00  8.00000000E-01
  8.00000000E-01  1.50000000E+00  1.50000000E+00  8.00000000E-01  8.00000000E-01
  1.50000000E+00  1.50000000E+00  8.00000000E-01  8.00000000E-01  1.50000000E+00
  1.50000000E+00  8.00000000E-01  8.00000000E-01  1.50000000E+00  1.50000000E+00
  8.00000000E-01  8.00000000E-01  1.50000000E+00  1.50000000E+00  8.00000000E-01
  8.00000000E-01  1.50000000E+00  1.50000000E+00  8.00000000E-01  8.00000000E-01
  1.50000000E+00  1.50000000E+00  8.00000000E-01  8.00000000E-01  1.50000000E+00
  1.50000000E+00  8.00000000E-01  8.00000000E-01  1.50000000E+00  1.50000000E+00
  8.00000000E-01  8.00000000E-01  1.50000000E+00  1.50000000E+00  8.00000000E-01
  8.00000000E-01  1.50000000E+00  1.50000000E+00  8.00000000E-01  8.00000000E-01
  1.50000000E+00  1.50000000E+00  8.00000000E-01  8.00000000E-01  1.50000000E+00
  1.50000000E+00  8.00000000E-01  8.00000000E-01  1.50000000E+00  1.50000000E+00
  8.00000000E-01  8.00000000E-01  1.50000000E+00  1.50000000E+00  8.00000000E-01
  8.00000000E-01  1.50000000E+00  1.50000000E+00  8.00000000E-01  8.00000000E-01
  1.50000000E+00  1.50000000E+00  8.00000000E-01  8.00000000E-01  1.50000000E+00
  1.50000000E+00  8.00000000E-01  8.00000000E-01  1.50000000E+00  1.50000000E+00
  8.00000000E-01  8.00000000E-01  1.50000000E+00  1.50000000E+00  8.00000000E-01
  8.00000000E-01  1.50000000E+00  1.50000000E+00  8.00000000E-01  8.00000000E-01
  1.50000000E+00  1.50000000E+00  8.00000000E-01  8.00000000E-01  1.50000000E+00
  1.50000000E+00  8.00000000E-01  8.00000000E-01  1.50000000E+00  1.50000000E+00
  8.00000000E-01  8.00000000E-01  1.50000000E+00  1.50000000E+00  8.00000000E-01
  8.00000000E-01  1.50000000E+00  1.50000000E+00  8.00000000E-01  8.00000000E-01
  1.50000000E+00  1.50000000E+00  8.00000000E-01  8.00000000E-01  1.50000000E+00
  1.50000000E+00  8.00000000E-01  8.00000000E-01  1.50000000E+00  1.50000000E+00
  8.00000000E-01  8.00000000E-01  1.50000000E+00  1.50000000E+00  8.00000000E-01
  8.00000000E-01  1.50000000E+00  1.50000000E+00  8.00000000E-01  8.00000000E-01
  1.50000000E+00  1.50000000E+00  8.00000000E-01  8.00000000E-01  1.50000000E+00
  1.50000000E+00  8.00000000E-01  8.00000000E-01  1.50000000E+00  1.50000000E+00
  8.00000000E-01  8.00000000E-01  1.50000000E+00  1.50000000E+00  8.00000000E-01
  8.00000000E-01  1.50000000E+00  1.50000000E+00  8.00000000E-01  8.00000000E-01
  1.50000000E+00  1.50000000E+00  8.00000000E-01  8.00000000E-01  1.50000000E+00
  1.50000000E+00  8.00000000E-01  8.00000000E-01  1.50000000E+00  1.50000000E+00
  8.00000000E-01  8.00000000E-01  1.50000000E+00  1.50000000E+00  8.00000000E-01
  8.00000000E-01  1.50000000E+00  1.50000000E+00  8.00000000E-01  8.00000000E-01
  1.50000000E+00  1.50000000E+00  8.00000000E-01  8.00000000E-01  1.50000000E+00
  1.50000000E+00  8.00000000E-01  8.00000000E-01  1.50000000E+00  1.50000000E+00
  8.00000000E-01  8.00000000E-01  1.50000000E+00  1.50000000E+00  8.00000000E-01
  8.00000000E-01  1.50000000E+00  1.50000000E+00  8.00000000E-01  8.00000000E-01
  1.50000000E+00  1.50000000E+00  8.00000000E-01  8.00000000E-01  1.50000000E+00
  1.50000000E+00  8.00000000E-01  8.00000000E-01  1.50000000E+00  1.50000000E+00
  8.00000000E-01  8.00000000E-01  1.50000000E+00  1.50000000E+00  8.00000000E-01
  8.00000000E-01  1.50000000E+00  1.50000000E+00  8.00000000E-01  8.00000000E-01
  1.50000000E+00  1.50000000E+00  8.00000000E-01  8.00000000E-01  1.50000000E+00
  1.50000000E+00  8.00000000E-01  8.00000000E-01  1.50000000E+00  1.50000000E+00
  8.00000000E-01  8.00000000E-01  1.50000000E+00  1.50000000E+00  8.00000000E-01
  8.00000000E-01  1.50000000E+00  1.50000000E+00  8.00000000E-01  8.00000000E-01
  1.50000000E+00  1.50000000E+00  8.00000000E-01  8.00000000E-01  1.50000000E+00
  1.50000000E+00  8.00000000E-01  8.00000000E-01  1.50000000E+00  1.50000000E+00
  8.00000000E-01  8.00000000E-01  1.50000000E+00  1.50000000E+00  8.00000000E-01
  8.00000000E-01  1.50000000E+00  1.50000000E+00  8.00000000E-01  8.00000000E-01
  1.50000000E+00  1.50000000E+00  8.00000000E-01  8.00000000E-01  1.50000000E+00
  1.50000000E+00  8.00000000E-01  8.00000000E-01  1.50000000E+00  1.50000000E+00
  8.00000000E-01  8.00000000E-01  1.50000000E+00  1.50000000E+00  8.00000000E-01
  8.00000000E-01  1.50000000E+00  1.50000000E+00  8.00000000E-01  8.00000000E-01
  1.50000000E+00  1.50000000E+00  8.00000000E-01  8.00000000E-01  1.50000000E+00
  1.50000000E+00  8.00000000E-01  8.00000000E-01  1.50000000E+00  1.50000000E+00
  8.00000000E-01  8.00000000E-01  1.50000000E+00  1.50000000E+00  8.00000000E-01
  8.00000000E-01  1.50000000E+00  1.50000000E+00  8.00000000E-01  8.00000000E-01
  1.50000000E+00  1.50000000E+00  8.00000000E-01  8.00000000E-01  1.50000000E+00
  1.50000000E+00  8.00000000E-01  8.00000000E-01  1.50000000E+00  1.50000000E+00
  8.00000000E-01  8.00000000E-01  1.50000000E+00  1.50000000E+00  8.00000000E-01
  8.00000000E-01  1.50000000E+00  1.50000000E+00  8.00000000E-01  8.00000000E-01
  1.50000000E+00  1.50000000E+00  8.00000000E-01  8.00000000E-01  1.50000000E+00
  1.50000000E+00  8.00000000E-01  8.00000000E-01  1.50000000E+00  1.50000000E+00
  8.00000000E-01  8.00000000E-01  1.50000000E+00  1.50000000E+00  8.00000000E-01
  8.00000000E-01  1.50000000E+00  1.50000000E+00  8.00000000E-01  8.00000000E-01
  1.50000000E+00  1.50000000E+00  8.00000000E-01  8.00000000E-01  1.50000000E+00
  1.50000000E+00  8.00000000E-01  8.00000000E-01  1.50000000E+00  1.50000000E+00
  8.00000000E-01  8.00000000E-01  1.50000000E+00  1.50000000E+00  8.00000000E-01
  8.00000000E-01  1.50000000E+00  1.50000000E+00  8.00000000E-01  8.00000000E-01
  1.50000000E+00  1.50000000E+00  8.00000000E-01  8.00000000E-01  1.50000000E+00
  1.50000000E+00  8.00000000E-01  8.00000000E-01  1.50000000E+00  1.50000000E+00
  8.00000000E-01  8.00000000E-01  1.50000000E+00  1.50000000E+00  8.00000000E-01
  8.00000000E-01  1.50000000E+00  1.50000000E+00  8.00000000E-01  8.00000000E-01
  1.50000000E+00  1.50000000E+00  8.00000000E-01  8.00000000E-01  1.50000000E+00
  1.50000000E+00  8.00000000E-01  8.00000000E-01  1.50000000E+00  1.50000000E+00
  8.00000000E-01  8.00000000E-01  1.50000000E+00  1.50000000E+00  8.00000000E-01
  8.00000000E-01  1.50000000E+00  1.50000000E+00  8.00000000E-01  8.00000000E-01
  1.50000000E+00  1.50000000E+00  8.00000000E-01  8.00000000E-01  1.50000000E+00
  1.50000000E+00  8.00000000E-01  8.00000000E-01  1.50000000E+00  1.50000000E+00
  8.00000000E-01  8.00000000E-01  1.50000000E+00  1.50000000E+00  8.00000000E-01
  8.00000000E-01  1.50000000E+00  1.50000000E+00  8.00000000E-01  8.00000000E-01
  1.50000000E+00  1.50000000E+00  8.00000000E-01  8.00000000E-01  1.50000000E+00
  1.50000000E+00  8.00000000E-01  8.00000000E-01  1.50000000E+00  1.50000000E+00
  8.00000000E-01  8.00000000E-01  1.50000000E+00  1.50000000E+00  8.00000000E-01
  8.00000000E-01  1.50000000E+00  1.50000000E+00  8.00000000E-01  8.00000000E-01
  1.50000000E+00  1.50000000E+00  8.00000000E-01  8.00000000E-01  1.50000000E+00
  1.50000000E+00  8.00000000E-01  8.00000000E-01  1.50000000E+00  1.50000000E+00
  8.00000000E-01  8.00000000E-01  1.50000000E+00  1.50000000E+00  8.00000000E-01
  8.00000000E-01  1.50000000E+00  1.50000000E+00  8.00000000E-01  8.00000000E-01
  1.50000000E+00  1.50000000E+00  8.00000000E-01  8.00000000E-01  1.50000000E+00
  1.50000000E+00  8.00000000E-01  8.00000000E-01  1.50000000E+00  1.50000000E+00
  8.00000000E-01  8.00000000E-01  1.50000000E+00  1.50000000E+00  8.00000000E-01
  8.00000000E-01  1.50000000E+00  1.50000000E+00  8.00000000E-01  8.00000000E-01
  1.50000000E+00  1.50000000E+00  8.00000000E-01  8.00000000E-01  1.50000000E+00
  1.50000000E+00  8.00000000E-01  8.00000000E-01  1.50000000E+00  1.50000000E+00
  8.00000000E-01  8.00000000E-01  1.50000000E+00  1.50000000E+00  8.00000000E-01
  8.00000000E-01  1.50000000E+00  1.50000000E+00  8.00000000E-01  8.00000000E-01
  1.50000000E+00  1.50000000E+00  8.00000000E-01  8.00000000E-01  1.50000000E+00
  1.50000000E+00  8.00000000E-01  8.00000000E-01  1.50000000E+00  1.50000000E+00
  8.00000000E-01  8.00000000E-01  1.50000000E+00  1.50000000E+00  8.00000000E-01
  8.00000000E-01  1.50000000E+00  1.50000000E+00  8.00000000E-01  8.00000000E-01
  1.50000000E+00  1.50000000E+00  8.00000000E-01  8.00000000E-01  1.50000000E+00
  1.50000000E+00  8.00000000E-01  8.00000000E-01  1.50000000E+00  1.50000000E+00
  8.00000000E-01  8.00000000E-01  1.50000000E+00  1.50000000E+00  8.00000000E-01
  8.00000000E-01  1.50000000E+00  1.50000000E+00  8.00000000E-01  8.00000000E-01
  1.50000000E+00  1.50000000E+00  8.00000000E-01  8.00000000E-01  1.50000000E+00
  1.50000000E+00  8.00000000E-01  8.00000000E-01  1.50000000E+00  1.50000000E+00
  8.00000000E-01  8.00000000E-01  1.50000000E+00  1.50000000E+00  8.00000000E-01
  8.00000000E-01  1.50000000E+00  1.50000000E+00  8.00000000E-01  8.00000000E-01
  1.50000000E+00  1.50000000E+00  8.00000000E-01  8.00000000E-01  1.50000000E+00
  1.50000000E+00  8.00000000E-01  8.00000000E-01  1.50000000E+00  1.50000000E+00
  8.00000000E-01  8.00000000E-01  1.50000000E+00  1.50000000E+00  8.00000000E-01
  8.00000000E-01  1.50000000E+00  1.50000000E+00  8.00000000E-01  8.00000000E-01
  1.50000000E+00  1.50000000E+00  8.00000000E-01  8.00000000E-01  1.50000000E+00
  1.50000000E+00  8.00000000E-01  8.00000000E-01  1.50000000E+00  1.50000000E+00
  8.00000000E-01  8.00000000E-01  1.50000000E+00  1.50000000E+00  8.00000000E-01
  8.00000000E-01  1.50000000E+00  1.50000000E+00  8.00000000E-01  8.00000000E-01
  1.50000000E+00  1.50000000E+00  8.00000000E-01  8.00000000E-01  1.50000000E+00
  1.50000000E+00  8.00000000E-01  8.00000000E-01  1.50000000E+00  1.50000000E+00
  8.00000000E-01  8.00000000E-01  1.50000000E+00  1.50000000E+00  8.00000000E-01
  8.00000000E-01  1.50000000E+00  1.50000000E+00  8.00000000E-01  8.00000000E-01
  1.50000000E+00  1.50000000E+00  8.00000000E-01  8.00000000E-01  1.50000000E+00
  1.50000000E+00  8.00000000E-01  8.00000000E-01  1.50000000E+00  1.50000000E+00
  8.00000000E-01  8.00000000E-01  1.50000000E+00  1.50000000E+00  8.00000000E-01
  8.00000000E-01  1.50000000E+00  1.50000000E+00  8.00000000E-01  8.00000000E-01
  1.50000000E+00  1.50000000E+00  8.00000000E-01  8.00000000E-01  1.50000000E+00
  1.50000000E+00  8.00000000E-01  8.00000000E-01  1.50000000E+00  1.50000000E+00
  8.00000000E-01  8.00000000E-01  1.50000000E+00  1.50000000E+00  8.00000000E-01
  8.00000000E-01  1.50000000E+00  1.50000000E+00  8.00000000E-01  8.00000000E-01
  1.50000000E+00  1.50000000E+00  8.00000000E-01  8.00000000E-01  1.50000000E+00
  1.50000000E+00  8.00000000E-01  8.00000000E-01  1.50000000E+00  1.50000000E+00
  8.00000000E-01  8.00000000E-01  1.50000000E+00  1.50000000E+00  8.00000000E-01
  8.00000000E-01  1.50000000E+00  1.50000000E+00  8.00000000E-01  8.00000000E-01
  1.50000000E+00  1.50000000E+00  8.00000000E-01  8.00000000E-01  1.50000000E+00
  1.50000000E+00  8.00000000E-01  8.00000000E-01  1.50000000E+00  1.50000000E+00
  8.00000000E-01  8.00000000E-01  1.50000000E+00  1.50000000E+00  8.00000000E-01
  8.00000000E-01  1.50000000E+00  1.50000000E+00  8.00000000E-01  8.00000000E-01
  1.50000000E+00  1.50000000E+00  8.00000000E-01  8.00000000E-01  1.50000000E+00
  1.50000000E+00  8.00000000E-01  8.00000000E-01  1.50000000E+00  1.50000000E+00
  8.00000000E-01  8.00000000E-01  1.50000000E+00  1.50000000E+00  8.00000000E-01
  8.00000000E-01  1.50000000E+00  1.50000000E+00  8.00000000E-01  8.00000000E-01
  1.50000000E+00  1.50000000E+00  8.00000000E-01  8.00000000E-01  1.50000000E+00
  1.50000000E+00  8.00000000E-01  8.00000000E-01  1.50000000E+00  1.50000000E+00
  8.00000000E-01  8.00000000E-01  1.50000000E+00  1.50000000E+00  8.00000000E-01
  8.00000000E-01  1.50000000E+00  1.50000000E+00  8.00000000E-01  8.00000000E-01
  1.50000000E+00  1.50000000E+00  8.00000000E-01  8.00000000E-01  1.50000000E+00
  1.50000000E+00  8.00000000E-01  8.00000000E-01  1.50000000E+00  1.50000000E+00
  8.00000000E-01  8.00000000E-01  1.50000000E+00  1.50000000E+00  8.00000000E-01
  8.00000000E-01  1.50000000E+00  1.50000000E+00  8.00000000E-01  8.00000000E-01
  1.50000000E+00  1.50000000E+00  8.00000000E-01  8.00000000E-01  1.50000000E+00
  1.50000000E+00  8.00000000E-01  8.00000000E-01  1.50000000E+00  1.50000000E+00
  8.00000000E-01  8.00000000E-01  1.50000000E+00  1.50000000E+00  8.00000000E-01
  8.00000000E-01  1.50000000E+00  1.50000000E+00  8.00000000E-01  8.00000000E-01
  1.50000000E+00  1.50000000E+00  8.00000000E-01  8.00000000E-01  1.50000000E+00
  1.50000000E+00  8.00000000E-01  8.00000000E-01  1.50000000E+00  1.50000000E+00
  8.00000000E-01  8.00000000E-01  1.50000000E+00  1.50000000E+00  8.00000000E-01
  8.00000000E-01  1.50000000E+00  1.50000000E+00  8.00000000E-01  8.00000000E-01
  1.50000000E+00  1.50000000E+00  8.00000000E-01  8.00000000E-01  1.50000000E+00
  1.50000000E+00  8.00000000E-01  8.00000000E-01  1.50000000E+00  1.50000000E+00
  8.00000000E-01  8.00000000E-01  1.50000000E+00  1.50000000E+00  8.00000000E-01
  8.00000000E-01  1.50000000E+00  1.50000000E+00  8.00000000E-01  8.00000000E-01
  1.50000000E+00  1.50000000E+00  8.00000000E-01  8.00000000E-01  1.50000000E+00
  1.50000000E+00  8.00000000E-01  8.00000000E-01  1.50000000E+00  1.50000000E+00
  8.00000000E-01  8.00000000E-01  1.50000000E+00  1.50000000E+00  8.00000000E-01
  8.00000000E-01  1.50000000E+00  1.50000000E+00  8.00000000E-01  8.00000000E-01
  1.50000000E+00  1.50000000E+00  8.00000000E-01  8.00000000E-01  1.50000000E+00
  1.50000000E+00  8.00000000E-01  8.00000000E-01  1.50000000E+00  1.50000000E+00
  8.00000000E-01  8.00000000E-01  1.50000000E+00  1.50000000E+00  8.00000000E-01
  8.00000000E-01  1.50000000E+00  1.50000000E+00  8.00000000E-01  8.00000000E-01
  1.50000000E+00  1.50000000E+00  8.00000000E-01  8.00000000E-01  1.50000000E+00
  1.50000000E+00  8.00000000E-01  8.00000000E-01  1.50000000E+00  1.50000000E+00
  8.00000000E-01  8.00000000E-01  1.50000000E+00  1.50000000E+00  8.00000000E-01
  8.00000000E-01  1.50000000E+00  1.50000000E+00  8.00000000E-01  8.00000000E-01
  1.50000000E+00  1.50000000E+00  8.00000000E-01  8.00000000E-01  1.50000000E+00
  1.50000000E+00  8.00000000E-01  8.00000000E-01  1.50000000E+00  1.50000000E+00
  8.00000000E-01  8.00000000E-01  1.50000000E+00  1.50000000E+00  8.00000000E-01
  8.00000000E-01  1.50000000E+00  1.50000000E+00  8.00000000E-01  8.00000000E-01
  1.50000000E+00  1.50000000E+00  8.00000000E-01  8.00000000E-01  1.50000000E+00
  1.50000000E+00  8.00000000E-01  8.00000000E-01  1.50000000E+00  1.50000000E+00
  8.00000000E-01  8.00000000E-01  1.50000000E+00  1.50000000E+00  8.00000000E-01
  8.00000000E-01  1.50000000E+00  1.50000000E+00  8.00000000E-01  8.00000000E-01
  1.50000000E+00  1.50000000E+00  8.00000000E-01  8.00000000E-01  1.50000000E+00
  1.50000000E+00  8.00000000E-01  8.00000000E-01  1.50000000E+00  1.50000000E+00
  8.00000000E-01  8.00000000E-01  1.50000000E+00  1.50000000E+00  8.00000000E-01
  8.00000000E-01  1.50000000E+00  1.50000000E+00  8.00000000E-01  8.00000000E-01
  1.50000000E+00  1.50000000E+00  8.00000000E-01  8.00000000E-01  1.50000000E+00
  1.50000000E+00  8.00000000E-01  8.00000000E-01  1.50000000E+00  1.50000000E+00
  8.00000000E-01  8.00000000E-01  1.50000000E+00  1.50000000E+00  8.00000000E-01
  8.00000000E-01  1.50000000E+00  1.50000000E+00  8.00000000E-01  8.00000000E-01
  1.50000000E+00  1.50000000E+00  8.00000000E-01  8.00000000E-01  1.50000000E+00
  1.50000000E+00  8.00000000E-01  8.00000000E-01  1.50000000E+00  1.50000000E+00
  8.00000000E-01  8.00000000E-01  1.50000000E+00  1.50000000E+00  8.00000000E-01
  8.00000000E-01  1.50000000E+00  1.50000000E+00  8.00000000E-01  8.00000000E-01
  1.50000000E+00  1.50000000E+00  8.00000000E-01  8.00000000E-01  1.50000000E+00
  1.50000000E+00  8.00000000E-01  8.00000000E-01  1.50000000E+00  1.50000000E+00
  8.00000000E-01  8.00000000E-01  1.50000000E+00  1.50000000E+00  8.00000000E-01
  8.00000000E-01  1.50000000E+00  1.50000000E+00  8.00000000E-01  8.00000000E-01
  1.50000000E+00  1.50000000E+00  8.00000000E-01  8.00000000E-01  1.50000000E+00
  1.50000000E+00  8.00000000E-01  8.00000000E-01  1.50000000E+00  1.50000000E+00
  8.00000000E-01  8.00000000E-01  1.50000000E+00  1.50000000E+00  8.00000000E-01
  8.00000000E-01  1.50000000E+00  1.50000000E+00  8.00000000E-01  8.00000000E-01
  1.50000000E+00  1.50000000E+00  8.00000000E-01  8.00000000E-01  1.50000000E+00
  1.50000000E+00  8.00000000E-01  8.00000000E-01  1.50000000E+00  1.50000000E+00
  8.00000000E-01  8.00000000E-01  1.50000000E+00  1.50000000E+00  8.00000000E-01
  8.00000000E-01  1.50000000E+00  1.50000000E+00  8.00000000E-01  8.00000000E-01
  1.50000000E+00  1.50000000E+00  8.00000000E-01  8.00000000E-01  1.50000000E+00
  1.50000000E+00  8.00000000E-01  8.00000000E-01  1.50000000E+00  1.50000000E+00
  8.00000000E-01  8.00000000E-01  1.50000000E+00  1.50000000E+00  8.00000000E-01
  8.00000000E-01  1.50000000E+00  1.50000000E+00  8.00000000E-01  8.00000000E-01
  1.50000000E+00  1.50000000E+00  8.00000000E-01  8.00000000E-01  1.50000000E+00
  1.50000000E+00  8.00000000E-01  8.00000000E-01  1.50000000E+00  1.50000000E+00
  8.00000000E-01  8.00000000E-01  1.50000000E+00  1.50000000E+00  8.00000000E-01
  8.00000000E-01  1.50000000E+00  1.50000000E+00  8.00000000E-01  8.00000000E-01
  1.50000000E+00  1.50000000E+00  8.00000000E-01  8.00000000E-01  1.50000000E+00
  1.50000000E+00  8.00000000E-01  8.00000000E-01  1.50000000E+00  1.50000000E+00
  8.00000000E-01  8.00000000E-01  1.50000000E+00  1.50000000E+00  8.00000000E-01
  8.00000000E-01  1.50000000E+00  1.50000000E+00  8.00000000E-01  8.00000000E-01
  1.50000000E+00  1.50000000E+00  8.00000000E-01  8.00000000E-01  1.50000000E+00
  1.50000000E+00  8.00000000E-01  8.00000000E-01  1.50000000E+00  1.50000000E+00
  8.00000000E-01  8.00000000E-01  1.50000000E+00  1.50000000E+00  8.00000000E-01
  8.00000000E-01  1.50000000E+00  1.50000000E+00  8.00000000E-01  8.00000000E-01
  1.50000000E+00  1.50000000E+00  8.00000000E-01  8.00000000E-01  1.50000000E+00
  1.50000000E+00  8.00000000E-01  8.00000000E-01  1.50000000E+00  1.50000000E+00
  8.00000000E-01  8.00000000E-01  1.50000000E+00  1.50000000E+00  8.00000000E-01
  8.00000000E-01  1.50000000E+00  1.50000000E+00  8.00000000E-01  8.00000000E-01
  1.50000000E+00  1.50000000E+00  8.00000000E-01  8.00000000E-01  1.50000000E+00
  1.50000000E+00  8.00000000E-01  8.00000000E-01  1.50000000E+00  1.50000000E+00
  8.00000000E-01  8.00000000E-01  1.50000000E+00  1.50000000E+00  8.00000000E-01
  8.00000000E-01  1.50000000E+00  1.50000000E+00  8.00000000E-01  8.00000000E-01
  1.50000000E+00  1.50000000E+00  8.00000000E-01  8.00000000E-01  1.50000000E+00
  1.50000000E+00  8.00000000E-01  8.00000000E-01  1.50000000E+00  1.50000000E+00
  8.00000000E-01  8.00000000E-01  1.50000000E+00  1.50000000E+00  8.00000000E-01
  8.00000000E-01  1.50000000E+00  1.50000000E+00  8.00000000E-01  8.00000000E-01
  1.50000000E+00  1.50000000E+00  8.00000000E-01  8.00000000E-01  1.50000000E+00
  1.50000000E+00  8.00000000E-01  8.00000000E-01  1.50000000E+00  1.50000000E+00
  8.00000000E-01  8.00000000E-01  1.50000000E+00  1.50000000E+00  8.00000000E-01
  8.00000000E-01  1.50000000E+00  1.50000000E+00  8.00000000E-01  8.00000000E-01
  1.50000000E+00  1.50000000E+00  8.00000000E-01  8.00000000E-01  1.50000000E+00
  1.50000000E+00  8.00000000E-01  8.00000000E-01  1.50000000E+00  1.50000000E+00
  8.00000000E-01  8.00000000E-01  1.50000000E+00  1.50000000E+00  8.00000000E-01
  8.00000000E-01  1.50000000E+00  1.50000000E+00  8.00000000E-01  8.00000000E-01
  1.50000000E+00  1.50000000E+00  8.00000000E-01  8.00000000E-01  1.50000000E+00
  1.50000000E+00  8.00000000E-01  8.00000000E-01  1.50000000E+00  1.50000000E+00
  8.00000000E-01  8.00000000E-01  1.50000000E+00  1.50000000E+00  8.00000000E-01
  8.00000000E-01  1.50000000E+00  1.50000000E+00  8.00000000E-01  8.00000000E-01
  1.50000000E+00  1.50000000E+00  8.00000000E-01  8.00000000E-01  1.50000000E+00
  1.50000000E+00  8.00000000E-01  8.00000000E-01  1.50000000E+00  1.50000000E+00
  8.00000000E-01  8.00000000E-01  1.50000000E+00  1.50000000E+00  8.00000000E-01
  8.00000000E-01  1.50000000E+00  1.50000000E+00  8.00000000E-01  8.00000000E-01
  1.50000000E+00  1.50000000E+00  8.00000000E-01  8.00000000E-01  1.50000000E+00
  1.50000000E+00  8.00000000E-01  8.00000000E-01  1.50000000E+00  1.50000000E+00
  8.00000000E-01  8.00000000E-01  1.50000000E+00  1.50000000E+00  8.00000000E-01
  8.00000000E-01  1.50000000E+00  1.50000000E+00  8.00000000E-01  8.00000000E-01
  1.50000000E+00  1.50000000E+00  8.00000000E-01  8.00000000E-01  1.50000000E+00
  1.50000000E+00  8.00000000E-01  8.00000000E-01  1.50000000E+00  1.50000000E+00
  8.00000000E-01  8.00000000E-01  1.50000000E+00  1.50000000E+00  8.00000000E-01
  8.00000000E-01  1.50000000E+00  1.50000000E+00  8.00000000E-01  8.00000000E-01
  1.50000000E+00  1.50000000E+00  8.00000000E-01  8.00000000E-01  1.50000000E+00
  1.50000000E+00  8.00000000E-01  8.00000000E-01  1.50000000E+00  1.50000000E+00
  8.00000000E-01  8.00000000E-01  1.50000000E+00  1.50000000E+00  8.00000000E-01
  8.00000000E-01  1.50000000E+00  1.50000000E+00  8.00000000E-01  8.00000000E-01
  1.50000000E+00  1.50000000E+00  8.00000000E-01  8.00000000E-01  1.50000000E+00
  1.50000000E+00  8.00000000E-01  8.00000000E-01  1.50000000E+00  1.50000000E+00
  8.00000000E-01  8.00000000E-01  1.50000000E+00  1.50000000E+00  8.00000000E-01
  8.00000000E-01  1.50000000E+00  1.50000000E+00  8.00000000E-01  8.00000000E-01
  1.50000000E+00  1.50000000E+00  8.00000000E-01  8.00000000E-01  1.50000000E+00
  1.50000000E+00  8.00000000E-01  8.00000000E-01  1.50000000E+00  1.50000000E+00
  8.00000000E-01  8.00000000E-01  1.50000000E+00  1.50000000E+00  8.00000000E-01
  8.00000000E-01  1.50000000E+00  1.50000000E+00  8.00000000E-01  8.00000000E-01
  1.50000000E+00  1.50000000E+00  8.00000000E-01  8.00000000E-01  1.50000000E+00
  1.50000000E+00  8.00000000E-01  8.00000000E-01  1.50000000E+00  1.50000000E+00
  8.00000000E-01  8.00000000E-01  1.50000000E+00  1.50000000E+00  8.00000000E-01
  8.00000000E-01  1.50000000E+00  1.50000000E+00  8.00000000E-01  8.00000000E-01
  1.50000000E+00  1.50000000E+00  8.00000000E-01  8.00000000E-01  1.50000000E+00
  1.50000000E+00  8.00000000E-01  8.00000000E-01  1.50000000E+00  1.50000000E+00
  8.00000000E-01  8.00000000E-01  1.50000000E+00  1.50000000E+00  8.00000000E-01
  8.00000000E-01  1.50000000E+00  1.50000000E+00  8.00000000E-01  8.00000000E-01
  1.50000000E+00  1.50000000E+00  8.00000000E-01  8.00000000E-01  1.50000000E+00
  1.50000000E+00  8.00000000E-01  8.00000000E-01  1.50000000E+00  1.50000000E+00
  8.00000000E-01  8.00000000E-01  1.50000000E+00  1.50000000E+00  8.00000000E-01
  8.00000000E-01  1.50000000E+00  1.50000000E+00  8.00000000E-01  8.00000000E-01
  1.50000000E+00  1.50000000E+00  8.00000000E-01  8.00000000E-01  1.50000000E+00
  1.50000000E+00  8.00000000E-01  8.00000000E-01  1.50000000E+00  1.50000000E+00
  8.00000000E-01  8.00000000E-01  1.50000000E+00  1.50000000E+00  8.00000000E-01
  8.00000000E-01  1.50000000E+00  1.50000000E+00  8.00000000E-01  8.00000000E-01
  1.50000000E+00  1.50000000E+00  8.00000000E-01  8.00000000E-01  1.50000000E+00
  1.50000000E+00  8.00000000E-01  8.00000000E-01  1.50000000E+00  1.50000000E+00
  8.00000000E-01  8.00000000E-01  1.50000000E+00  1.50000000E+00  8.00000000E-01
  8.00000000E-01  1.50000000E+00  1.50000000E+00  8.00000000E-01  8.00000000E-01
  1.50000000E+00  1.50000000E+00  8.00000000E-01  8.00000000E-01  1.50000000E+00
  1.50000000E+00  8.00000000E-01  8.00000000E-01  1.50000000E+00  1.50000000E+00
  8.00000000E-01  8.00000000E-01  1.50000000E+00  1.50000000E+00  8.00000000E-01
  8.00000000E-01  1.50000000E+00  1.50000000E+00  8.00000000E-01  8.00000000E-01
  1.50000000E+00  1.50000000E+00  8.00000000E-01  8.00000000E-01  1.50000000E+00
  1.50000000E+00  8.00000000E-01  8.00000000E-01  1.50000000E+00  1.50000000E+00
  8.00000000E-01  8.00000000E-01  1.50000000E+00  1.50000000E+00  8.00000000E-01
  8.00000000E-01  1.50000000E+00  1.50000000E+00  8.00000000E-01  8.00000000E-01
  1.50000000E+00  1.50000000E+00  8.00000000E-01  8.00000000E-01  1.50000000E+00
  1.50000000E+00  8.00000000E-01  8.00000000E-01  1.50000000E+00  1.50000000E+00
  8.00000000E-01  8.00000000E-01  1.50000000E+00  1.50000000E+00  8.00000000E-01
  8.00000000E-01  1.50000000E+00  1.50000000E+00  8.00000000E-01  8.00000000E-01
  1.50000000E+00  1.50000000E+00  8.00000000E-01  8.00000000E-01  1.50000000E+00
  1.50000000E+00  8.00000000E-01  8.00000000E-01  1.50000000E+00  1.50000000E+00
  8.00000000E-01  8.00000000E-01  1.50000000E+00  1.50000000E+00  8.00000000E-01
  8.00000000E-01  1.50000000E+00  1.50000000E+00  8.00000000E-01  8.00000000E-01
  1.50000000E+00  1.50000000E+00  8.00000000E-01  8.00000000E-01  1.50000000E+00
  1.50000000E+00  8.00000000E-01  8.00000000E-01  1.50000000E+00  1.50000000E+00
  8.00000000E-01  8.00000000E-01  1.50000000E+00  1.50000000E+00  8.00000000E-01
  8.00000000E-01  1.50000000E+00  1.50000000E+00  8.00000000E-01  8.00000000E-01
  1.50000000E+00  1.50000000E+00  8.00000000E-01  8.00000000E-01  1.50000000E+00
  1.50000000E+00  8.00000000E-01  8.00000000E-01  1.50000000E+00  1.50000000E+00
  8.00000000E-01  8.00000000E-01  1.50000000E+00  1.50000000E+00  8.00000000E-01
  8.00000000E-01  1.50000000E+00  1.50000000E+00  8.00000000E-01  8.00000000E-01
  1.50000000E+00  1.50000000E+00  8.00000000E-01  8.00000000E-01  1.50000000E+00
  1.50000000E+00  8.00000000E-01  8.00000000E-01  1.50000000E+00  1.50000000E+00
  8.00000000E-01  8.00000000E-01  1.50000000E+00  1.50000000E+00  8.00000000E-01
  8.00000000E-01  1.50000000E+00  1.50000000E+00  8.00000000E-01  8.00000000E-01
  1.50000000E+00  1.50000000E+00  8.00000000E-01  8.00000000E-01  1.50000000E+00
  1.50000000E+00  8.00000000E-01  8.00000000E-01  1.50000000E+00  1.50000000E+00
  8.00000000E-01  8.00000000E-01  1.50000000E+00  1.50000000E+00  8.00000000E-01
  8.00000000E-01  1.50000000E+00  1.50000000E+00  8.00000000E-01  8.00000000E-01
  1.50000000E+00  1.50000000E+00  8.00000000E-01  8.00000000E-01  1.50000000E+00
  1.50000000E+00  8.00000000E-01  8.00000000E-01  1.50000000E+00  1.50000000E+00
  8.00000000E-01  8.00000000E-01  1.50000000E+00  1.50000000E+00  8.00000000E-01
  8.00000000E-01  1.50000000E+00  1.50000000E+00  8.00000000E-01  8.00000000E-01
  1.50000000E+00  1.50000000E+00  8.00000000E-01  8.00000000E-01  1.50000000E+00
  1.50000000E+00  8.00000000E-01  8.00000000E-01  1.50000000E+00  1.50000000E+00
  8.00000000E-01  8.00000000E-01  1.50000000E+00  1.50000000E+00  8.00000000E-01
  8.00000000E-01  1.50000000E+00  1.50000000E+00  8.00000000E-01  8.00000000E-01
  1.50000000E+00  1.50000000E+00  8.00000000E-01  8.00000000E-01  1.50000000E+00
  1.50000000E+00  8.00000000E-01  8.00000000E-01  1.50000000E+00  1.50000000E+00
  8.00000000E-01  8.00000000E-01  1.50000000E+00  1.50000000E+00  8.00000000E-01
  8.00000000E-01  1.50000000E+00  1.50000000E+00  8.00000000E-01  8.00000000E-01
  1.50000000E+00  1.50000000E+00  8.00000000E-01  8.00000000E-01  1.50000000E+00
  1.50000000E+00  8.00000000E-01  8.00000000E-01  1.50000000E+00  1.50000000E+00
  8.00000000E-01  8.00000000E-01  1.50000000E+00  1.50000000E+00  8.00000000E-01
  8.00000000E-01  1.50000000E+00  1.50000000E+00  8.00000000E-01  8.00000000E-01
  1.50000000E+00  1.50000000E+00  8.00000000E-01  8.00000000E-01  1.50000000E+00
  1.50000000E+00  8.00000000E-01  8.00000000E-01  1.50000000E+00  1.50000000E+00
  8.00000000E-01  8.00000000E-01  1.50000000E+00  1.50000000E+00  8.00000000E-01
  8.00000000E-01  1.50000000E+00  1.50000000E+00  8.00000000E-01  8.00000000E-01
  1.50000000E+00  1.50000000E+00  8.00000000E-01  8.00000000E-01  1.50000000E+00
  1.50000000E+00  8.00000000E-01  8.00000000E-01  1.50000000E+00  1.50000000E+00
  8.00000000E-01  8.00000000E-01  1.50000000E+00  1.50000000E+00  8.00000000E-01
  8.00000000E-01  1.50000000E+00  1.50000000E+00  8.00000000E-01  8.00000000E-01
  1.50000000E+00  1.50000000E+00  8.00000000E-01  8.00000000E-01  1.50000000E+00
  1.50000000E+00  8.00000000E-01  8.00000000E-01  1.50000000E+00  1.50000000E+00
  8.00000000E-01  8.00000000E-01  1.50000000E+00  1.50000000E+00  8.00000000E-01
  8.00000000E-01  1.50000000E+00  1.50000000E+00  8.00000000E-01  8.00000000E-01
  1.50000000E+00  1.50000000E+00  8.00000000E-01  8.00000000E-01  1.50000000E+00
  1.50000000E+00  8.00000000E-01  8.00000000E-01  1.50000000E+00  1.50000000E+00
  8.00000000E-01  8.00000000E-01  1.50000000E+00  1.50000000E+00  8.00000000E-01
  8.00000000E-01  1.50000000E+00  1.50000000E+00  8.00000000E-01  8.00000000E-01
  1.50000000E+00  1.50000000E+00  8.00000000E-01  8.00000000E-01  1.50000000E+00
  1.50000000E+00  8.00000000E-01  8.00000000E-01  1.50000000E+00  1.50000000E+00
  8.00000000E-01  8.00000000E-01  1.50000000E+00  1.50000000E+00  8.00000000E-01
  8.00000000E-01  1.50000000E+00  1.50000000E+00  8.00000000E-01  8.00000000E-01
  1.50000000E+00  1.50000000E+00  8.00000000E-01  8.00000000E-01  1.50000000E+00
  1.50000000E+00  8.00000000E-01  8.00000000E-01  1.50000000E+00  1.50000000E+00
  8.00000000E-01  8.00000000E-01  1.50000000E+00  1.50000000E+00  8.00000000E-01
  8.00000000E-01  1.50000000E+00  1.50000000E+00  8.00000000E-01  8.00000000E-01
  1.50000000E+00  1.50000000E+00  8.00000000E-01  8.00000000E-01  1.50000000E+00
  1.50000000E+00  8.00000000E-01  8.00000000E-01  1.50000000E+00  1.50000000E+00
  8.00000000E-01  8.00000000E-01  1.50000000E+00  1.50000000E+00  8.00000000E-01
  8.00000000E-01  1.50000000E+00  1.50000000E+00  8.00000000E-01  8.00000000E-01
  1.50000000E+00  1.50000000E+00  8.00000000E-01  8.00000000E-01  1.50000000E+00
  1.50000000E+00  8.00000000E-01  8.00000000E-01  1.50000000E+00  1.50000000E+00
  8.00000000E-01  8.00000000E-01  1.50000000E+00  1.50000000E+00  8.00000000E-01
  8.00000000E-01  1.50000000E+00  1.50000000E+00  8.00000000E-01  8.00000000E-01
  1.50000000E+00  1.50000000E+00  8.00000000E-01  8.00000000E-01  1.50000000E+00
  1.50000000E+00  8.00000000E-01  8.00000000E-01  1.50000000E+00  1.50000000E+00
  8.00000000E-01  8.00000000E-01  1.50000000E+00  1.50000000E+00  8.00000000E-01
  8.00000000E-01  1.50000000E+00  1.50000000E+00  8.00000000E-01  8.00000000E-01
  1.50000000E+00  1.50000000E+00  8.00000000E-01  8.00000000E-01  1.50000000E+00
  1.50000000E+00  8.00000000E-01  8.00000000E-01  1.50000000E+00  1.50000000E+00
  8.00000000E-01  8.00000000E-01  1.50000000E+00  1.50000000E+00  8.00000000E-01
  8.00000000E-01  1.50000000E+00  1.50000000E+00  8.00000000E-01  8.00000000E-01
  1.50000000E+00  1.50000000E+00  8.00000000E-01  8.00000000E-01  1.50000000E+00
  1.50000000E+00  8.00000000E-01  8.00000000E-01  1.50000000E+00  1.50000000E+00
  8.00000000E-01  8.00000000E-01  1.50000000E+00  1.50000000E+00  8.00000000E-01
  8.00000000E-01  1.50000000E+00  1.50000000E+00  8.00000000E-01  8.00000000E-01
  1.50000000E+00  1.50000000E+00  8.00000000E-01  8.00000000E-01  1.50000000E+00
  1.50000000E+00  8.00000000E-01  8.00000000E-01  1.50000000E+00  1.50000000E+00
  8.00000000E-01  8.00000000E-01  1.50000000E+00  1.50000000E+00  8.00000000E-01
  8.00000000E-01  1.50000000E+00  1.50000000E+00  8.00000000E-01  8.00000000E-01
  1.50000000E+00  1.50000000E+00  8.00000000E-01  8.00000000E-01  1.50000000E+00
  1.50000000E+00  8.00000000E-01  8.00000000E-01  1.50000000E+00  1.50000000E+00
  8.00000000E-01  8.00000000E-01  1.50000000E+00  1.50000000E+00  8.00000000E-01
  8.00000000E-01  1.50000000E+00  1.50000000E+00  8.00000000E-01  8.00000000E-01
  1.50000000E+00  1.50000000E+00  8.00000000E-01  8.00000000E-01  1.50000000E+00
  1.50000000E+00  8.00000000E-01  8.00000000E-01  1.50000000E+00  1.50000000E+00
  8.00000000E-01  8.00000000E-01  1.50000000E+00  1.50000000E+00  8.00000000E-01
  8.00000000E-01  1.50000000E+00  1.50000000E+00  8.00000000E-01  8.00000000E-01
  1.50000000E+00  1.50000000E+00  8.00000000E-01  8.00000000E-01  1.50000000E+00
  1.50000000E+00  8.00000000E-01  8.00000000E-01  1.50000000E+00  1.50000000E+00
  8.00000000E-01  8.00000000E-01  1.50000000E+00  1.50000000E+00  8.00000000E-01
  8.00000000E-01  1.50000000E+00  1.50000000E+00  8.00000000E-01  8.00000000E-01
  1.50000000E+00  1.50000000E+00  8.00000000E-01  8.00000000E-01  1.50000000E+00
  1.50000000E+00  8.00000000E-01  8.00000000E-01  1.50000000E+00  1.50000000E+00
  8.00000000E-01  8.00000000E-01  1.50000000E+00  1.50000000E+00  8.00000000E-01
  8.00000000E-01  1.50000000E+00  1.50000000E+00  8.00000000E-01  8.00000000E-01
  1.50000000E+00  1.50000000E+00  8.00000000E-01  8.00000000E-01  1.50000000E+00
  1.50000000E+00  8.00000000E-01  8.00000000E-01  1.50000000E+00  1.50000000E+00
  8.00000000E-01  8.00000000E-01  1.50000000E+00  1.50000000E+00  8.00000000E-01
  8.00000000E-01  1.50000000E+00  1.50000000E+00  8.00000000E-01  8.00000000E-01
  1.50000000E+00  1.50000000E+00  8.00000000E-01  8.00000000E-01  1.50000000E+00
  1.50000000E+00  8.00000000E-01  8.00000000E-01  1.50000000E+00  1.50000000E+00
  8.00000000E-01  8.00000000E-01  1.50000000E+00  1.50000000E+00  8.00000000E-01
  8.00000000E-01  1.50000000E+00  1.50000000E+00  8.00000000E-01  8.00000000E-01
  1.50000000E+00  1.50000000E+00  8.00000000E-01  8.00000000E-01  1.50000000E+00
  1.50000000E+00  8.00000000E-01  8.00000000E-01  1.50000000E+00  1.50000000E+00
  8.00000000E-01  8.00000000E-01  1.50000000E+00  1.50000000E+00  8.00000000E-01
  8.00000000E-01  1.50000000E+00  1.50000000E+00  8.00000000E-01  8.00000000E-01
  1.50000000E+00  1.50000000E+00  8.00000000E-01  8.00000000E-01  1.50000000E+00
  1.50000000E+00  8.00000000E-01  8.00000000E-01  1.50000000E+00  1.50000000E+00
  8.00000000E-01  8.00000000E-01  1.50000000E+00  1.50000000E+00  8.00000000E-01
  8.00000000E-01  1.50000000E+00  1.50000000E+00  8.00000000E-01  8.00000000E-01
  1.50000000E+00  1.50000000E+00  8.00000000E-01  8.00000000E-01  1.50000000E+00
  1.50000000E+00  8.00000000E-01  8.00000000E-01  1.50000000E+00  1.50000000E+00
  8.00000000E-01  8.00000000E-01  1.50000000E+00  1.50000000E+00  8.00000000E-01
  8.00000000E-01  1.50000000E+00  1.50000000E+00  8.00000000E-01  8.00000000E-01
  1.50000000E+00  1.50000000E+00  8.00000000E-01  8.00000000E-01  1.50000000E+00
  1.50000000E+00  8.00000000E-01  8.00000000E-01  1.50000000E+00  1.50000000E+00
  8.00000000E-01  8.00000000E-01  1.50000000E+00  1.50000000E+00  8.00000000E-01
  8.00000000E-01  1.50000000E+00  1.50000000E+00  8.00000000E-01  8.00000000E-01
  1.50000000E+00  1.50000000E+00  8.00000000E-01  8.00000000E-01  1.50000000E+00
  1.50000000E+00  8.00000000E-01  8.00000000E-01  1.50000000E+00  1.50000000E+00
  8.00000000E-01  8.00000000E-01  1.50000000E+00  1.50000000E+00  8.00000000E-01
  8.00000000E-01  1.50000000E+00  1.50000000E+00  8.00000000E-01  8.00000000E-01
  1.50000000E+00  1.50000000E+00  8.00000000E-01  8.00000000E-01  1.50000000E+00
  1.50000000E+00  8.00000000E-01  8.00000000E-01  1.50000000E+00  1.50000000E+00
  8.00000000E-01  8.00000000E-01  1.50000000E+00  1.50000000E+00  8.00000000E-01
  8.00000000E-01  1.50000000E+00  1.50000000E+00  8.00000000E-01  8.00000000E-01
  1.50000000E+00  1.50000000E+00  8.00000000E-01  8.00000000E-01  1.50000000E+00
  1.50000000E+00  8.00000000E-01  8.00000000E-01  1.50000000E+00  1.50000000E+00
  8.00000000E-01  8.00000000E-01  1.50000000E+00  1.50000000E+00  8.00000000E-01
  8.00000000E-01  1.50000000E+00  1.50000000E+00  8.00000000E-01  8.00000000E-01
  1.50000000E+00  1.50000000E+00  8.00000000E-01  8.00000000E-01  1.50000000E+00
  1.50000000E+00  8.00000000E-01  8.00000000E-01  1.50000000E+00  1.50000000E+00
  8.00000000E-01  8.00000000E-01  1.50000000E+00  1.50000000E+00  8.00000000E-01
  8.00000000E-01  1.50000000E+00  1.50000000E+00  8.00000000E-01  8.00000000E-01
  1.50000000E+00  1.50000000E+00  8.00000000E-01  8.00000000E-01  1.50000000E+00
  1.50000000E+00  8.00000000E-01  8.00000000E-01  1.50000000E+00  1.50000000E+00
  8.00000000E-01  8.00000000E-01  1.50000000E+00  1.50000000E+00  8.00000000E-01
  8.00000000E-01  1.50000000E+00  1.50000000E+00  8.00000000E-01  8.00000000E-01
  1.50000000E+00  1.50000000E+00  8.00000000E-01  8.00000000E-01  1.50000000E+00
  1.50000000E+00  8.00000000E-01  8.00000000E-01  1.50000000E+00  1.50000000E+00
  8.00000000E-01  8.00000000E-01  1.50000000E+00  1.50000000E+00  8.00000000E-01
  8.00000000E-01  1.50000000E+00  1.50000000E+00  8.00000000E-01  8.00000000E-01
  1.50000000E+00  1.50000000E+00  8.00000000E-01  8.00000000E-01  1.50000000E+00
  1.50000000E+00  8.00000000E-01  8.00000000E-01  1.50000000E+00  1.50000000E+00
  8.00000000E-01  8.00000000E-01  1.50000000E+00  1.50000000E+00  8.00000000E-01
  8.00000000E-01  1.50000000E+00  1.50000000E+00  8.00000000E-01  8.00000000E-01
  1.50000000E+00  1.50000000E+00  8.00000000E-01  8.00000000E-01  1.50000000E+00
  1.50000000E+00  8.00000000E-01  8.00000000E-01  1.50000000E+00  1.50000000E+00
  8.00000000E-01  8.00000000E-01  1.50000000E+00  1.50000000E+00  8.00000000E-01
  8.00000000E-01  1.50000000E+00  1.50000000E+00  8.00000000E-01  8.00000000E-01
  1.50000000E+00  1.50000000E+00  8.00000000E-01  8.00000000E-01  1.50000000E+00
  1.50000000E+00  8.00000000E-01  8.00000000E-01  1.50000000E+00  1.50000000E+00
  8.00000000E-01  8.00000000E-01  1.50000000E+00  1.50000000E+00  8.00000000E-01
  8.00000000E-01  1.50000000E+00  1.50000000E+00  8.00000000E-01  8.00000000E-01
  1.50000000E+00  1.50000000E+00  8.00000000E-01  8.00000000E-01  1.50000000E+00
  1.50000000E+00  8.00000000E-01  8.00000000E-01  1.50000000E+00  1.50000000E+00
  8.00000000E-01  8.00000000E-01  1.50000000E+00  1.50000000E+00  8.00000000E-01
  8.00000000E-01  1.50000000E+00  1.50000000E+00  8.00000000E-01  8.00000000E-01
  1.50000000E+00  1.50000000E+00  8.00000000E-01  8.00000000E-01  1.50000000E+00
  1.50000000E+00  8.00000000E-01  8.00000000E-01  1.50000000E+00  1.50000000E+00
  8.00000000E-01  8.00000000E-01  1.50000000E+00  1.50000000E+00  8.00000000E-01
  8.00000000E-01  1.50000000E+00  1.50000000E+00  8.00000000E-01  8.00000000E-01
  1.50000000E+00  1.50000000E+00  8.00000000E-01  8.00000000E-01  1.50000000E+00
  1.50000000E+00  8.00000000E-01  8.00000000E-01  1.50000000E+00  1.50000000E+00
  8.00000000E-01  8.00000000E-01  1.50000000E+00  1.50000000E+00  8.00000000E-01
  8.00000000E-01  1.50000000E+00  1.50000000E+00  8.00000000E-01  8.00000000E-01
  1.50000000E+00  1.50000000E+00  8.00000000E-01  8.00000000E-01  1.50000000E+00
  1.50000000E+00  8.00000000E-01  8.00000000E-01  1.50000000E+00  1.50000000E+00
  8.00000000E-01  8.00000000E-01  1.50000000E+00  1.50000000E+00  8.00000000E-01
  8.00000000E-01  1.50000000E+00  1.50000000E+00  8.00000000E-01  8.00000000E-01
  1.50000000E+00  1.50000000E+00  8.00000000E-01  8.00000000E-01  1.50000000E+00
  1.50000000E+00  8.00000000E-01  8.00000000E-01  1.50000000E+00  1.50000000E+00
  8.00000000E-01  8.00000000E-01  1.50000000E+00  1.50000000E+00  8.00000000E-01
  8.00000000E-01  1.50000000E+00  1.50000000E+00  8.00000000E-01  8.00000000E-01
  1.50000000E+00  1.50000000E+00  8.00000000E-01  8.00000000E-01  1.50000000E+00
  1.50000000E+00  8.00000000E-01  8.00000000E-01  1.50000000E+00  1.50000000E+00
  8.00000000E-01  8.00000000E-01  1.50000000E+00  1.50000000E+00  8.00000000E-01
  8.00000000E-01  1.50000000E+00  1.50000000E+00  8.00000000E-01  8.00000000E-01
  1.50000000E+00  1.50000000E+00  8.00000000E-01  8.00000000E-01  1.50000000E+00
  1.50000000E+00  8.00000000E-01  8.00000000E-01  1.50000000E+00  1.50000000E+00
  8.00000000E-01  8.00000000E-01  1.50000000E+00  1.50000000E+00  8.00000000E-01
  8.00000000E-01  1.50000000E+00  1.50000000E+00  8.00000000E-01  8.00000000E-01
  1.50000000E+00  1.50000000E+00  8.00000000E-01  8.00000000E-01  1.50000000E+00
  1.50000000E+00  8.00000000E-01  8.00000000E-01  1.50000000E+00  1.50000000E+00
  8.00000000E-01  8.00000000E-01  1.50000000E+00  1.50000000E+00  8.00000000E-01
  8.00000000E-01  1.50000000E+00  1.50000000E+00  8.00000000E-01  8.00000000E-01
  1.50000000E+00  1.50000000E+00  8.00000000E-01  8.00000000E-01  1.50000000E+00
  1.50000000E+00  8.00000000E-01  8.00000000E-01  1.50000000E+00  1.50000000E+00
  8.00000000E-01  8.00000000E-01  1.50000000E+00  1.50000000E+00  8.00000000E-01
  8.00000000E-01  1.50000000E+00  1.50000000E+00  8.00000000E-01  8.00000000E-01
  1.50000000E+00  1.50000000E+00  8.00000000E-01  8.00000000E-01  1.50000000E+00
  1.50000000E+00  8.00000000E-01  8.00000000E-01  1.50000000E+00  1.50000000E+00
  8.00000000E-01  8.00000000E-01  1.50000000E+00  1.50000000E+00  8.00000000E-01
  8.00000000E-01  1.50000000E+00  1.50000000E+00  8.00000000E-01  8.00000000E-01
  1.50000000E+00  1.50000000E+00  8.00000000E-01  8.00000000E-01  1.50000000E+00
  1.50000000E+00  8.00000000E-01  8.00000000E-01  1.50000000E+00  1.50000000E+00
  8.00000000E-01  8.00000000E-01  1.50000000E+00  1.50000000E+00  8.00000000E-01
  8.00000000E-01  1.50000000E+00  1.50000000E+00  8.00000000E-01  8.00000000E-01
  1.50000000E+00  1.50000000E+00  8.00000000E-01  8.00000000E-01  1.50000000E+00
  1.50000000E+00  8.00000000E-01  8.00000000E-01  1.50000000E+00  1.50000000E+00
  8.00000000E-01  8.00000000E-01  1.50000000E+00  1.50000000E+00  8.00000000E-01
  8.00000000E-01  1.50000000E+00  1.50000000E+00  8.00000000E-01  8.00000000E-01
  1.50000000E+00  1.50000000E+00  8.00000000E-01  8.00000000E-01  1.50000000E+00
  1.50000000E+00  8.00000000E-01  8.00000000E-01  1.50000000E+00  1.50000000E+00
  8.00000000E-01  8.00000000E-01  1.50000000E+00  1.50000000E+00  8.00000000E-01
  8.00000000E-01  1.50000000E+00  1.50000000E+00  8.00000000E-01  8.00000000E-01
  1.50000000E+00  1.50000000E+00  8.00000000E-01  8.00000000E-01  1.50000000E+00
  1.50000000E+00  8.00000000E-01  8.00000000E-01  1.50000000E+00  1.50000000E+00
  8.00000000E-01  8.00000000E-01  1.50000000E+00  1.50000000E+00  8.00000000E-01
  8.00000000E-01  1.50000000E+00  1.50000000E+00  8.00000000E-01  8.00000000E-01
  1.50000000E+00  1.50000000E+00  8.00000000E-01  8.00000000E-01  1.50000000E+00
  1.50000000E+00  8.00000000E-01  8.00000000E-01  1.50000000E+00  1.50000000E+00
  8.00000000E-01  8.00000000E-01  1.50000000E+00  1.50000000E+00  8.00000000E-01
  8.00000000E-01  1.50000000E+00  1.50000000E+00  8.00000000E-01  8.00000000E-01
  1.50000000E+00  1.50000000E+00  8.00000000E-01  8.00000000E-01  1.50000000E+00
  1.50000000E+00  8.00000000E-01  8.00000000E-01  1.50000000E+00  1.50000000E+00
  8.00000000E-01  8.00000000E-01  1.50000000E+00  1.50000000E+00  8.00000000E-01
  8.00000000E-01  1.50000000E+00  1.50000000E+00  8.00000000E-01  8.00000000E-01
  1.50000000E+00  1.50000000E+00  8.00000000E-01  8.00000000E-01  1.50000000E+00
  1.50000000E+00  8.00000000E-01  8.00000000E-01  1.50000000E+00  1.50000000E+00
  8.00000000E-01  8.00000000E-01  1.50000000E+00  1.50000000E+00  8.00000000E-01
  8.00000000E-01  1.50000000E+00  1.50000000E+00  8.00000000E-01  8.00000000E-01
  1.50000000E+00  1.50000000E+00  8.00000000E-01  8.00000000E-01  1.50000000E+00
  1.50000000E+00  8.00000000E-01  8.00000000E-01  1.50000000E+00  1.50000000E+00
  8.00000000E-01  8.00000000E-01  1.50000000E+00  1.50000000E+00  8.00000000E-01
  8.00000000E-01  1.50000000E+00  1.50000000E+00  8.00000000E-01  8.00000000E-01
  1.50000000E+00  1.50000000E+00  8.00000000E-01  8.00000000E-01  1.50000000E+00
  1.50000000E+00  8.00000000E-01  8.00000000E-01  1.50000000E+00  1.50000000E+00
  8.00000000E-01  8.00000000E-01  1.50000000E+00  1.50000000E+00  8.00000000E-01
  8.00000000E-01  1.50000000E+00  1.50000000E+00  8.00000000E-01  8.00000000E-01
  1.50000000E+00  1.50000000E+00  8.00000000E-01  8.00000000E-01  1.50000000E+00
  1.50000000E+00  8.00000000E-01  8.00000000E-01  1.50000000E+00  1.50000000E+00
  8.00000000E-01  8.00000000E-01  1.50000000E+00  1.50000000E+00  8.00000000E-01
  8.00000000E-01  1.50000000E+00  1.50000000E+00  8.00000000E-01  8.00000000E-01
  1.50000000E+00  1.50000000E+00  8.00000000E-01  8.00000000E-01  1.50000000E+00
  1.50000000E+00  8.00000000E-01  8.00000000E-01  1.50000000E+00  1.50000000E+00
  8.00000000E-01  8.00000000E-01  1.50000000E+00  1.50000000E+00  8.00000000E-01
  8.00000000E-01  1.50000000E+00  1.50000000E+00  8.00000000E-01  8.00000000E-01
  1.50000000E+00  1.50000000E+00  8.00000000E-01  8.00000000E-01  1.50000000E+00
  1.50000000E+00  8.00000000E-01  8.00000000E-01  1.50000000E+00  1.50000000E+00
  8.00000000E-01  8.00000000E-01  1.50000000E+00  1.50000000E+00  8.00000000E-01
  8.00000000E-01  1.50000000E+00  1.50000000E+00  8.00000000E-01  8.00000000E-01
  1.50000000E+00  1.50000000E+00  8.00000000E-01  8.00000000E-01  1.50000000E+00
  1.50000000E+00  8.00000000E-01  8.00000000E-01  1.50000000E+00  1.50000000E+00
  8.00000000E-01  8.00000000E-01  1.50000000E+00  1.50000000E+00  8.00000000E-01
  8.00000000E-01  1.50000000E+00  1.50000000E+00  8.00000000E-01  8.00000000E-01
  1.50000000E+00  1.50000000E+00  8.00000000E-01  8.00000000E-01  1.50000000E+00
  1.50000000E+00  8.00000000E-01  8.00000000E-01  1.50000000E+00  1.50000000E+00
  8.00000000E-01  8.00000000E-01  1.50000000E+00  1.50000000E+00  8.00000000E-01
  8.00000000E-01  1.50000000E+00  1.50000000E+00  8.00000000E-01  8.00000000E-01
  1.50000000E+00  1.50000000E+00  8.00000000E-01  8.00000000E-01  1.50000000E+00
  1.50000000E+00  8.00000000E-01  8.00000000E-01  1.50000000E+00  1.50000000E+00
  8.00000000E-01  8.00000000E-01  1.50000000E+00  1.50000000E+00  8.00000000E-01
  8.00000000E-01  1.50000000E+00  1.50000000E+00  8.00000000E-01  8.00000000E-01
  1.50000000E+00  1.50000000E+00  8.00000000E-01  8.00000000E-01  1.50000000E+00
  1.50000000E+00  8.00000000E-01  8.00000000E-01  1.50000000E+00  1.50000000E+00
  8.00000000E-01  8.00000000E-01  1.50000000E+00  1.50000000E+00  8.00000000E-01
  8.00000000E-01  1.50000000E+00  1.50000000E+00  8.00000000E-01  8.00000000E-01
  1.50000000E+00  1.50000000E+00  8.00000000E-01  8.00000000E-01  1.50000000E+00
  1.50000000E+00  8.00000000E-01  8.00000000E-01  1.50000000E+00  1.50000000E+00
  8.00000000E-01  8.00000000E-01  1.50000000E+00  1.50000000E+00  8.00000000E-01
  8.00000000E-01  1.50000000E+00  1.50000000E+00  8.00000000E-01  8.00000000E-01
  1.50000000E+00  1.50000000E+00  8.00000000E-01  8.00000000E-01  1.50000000E+00
  1.50000000E+00  8.00000000E-01  8.00000000E-01  1.50000000E+00  1.50000000E+00
  8.00000000E-01  8.00000000E-01  1.50000000E+00  1.50000000E+00  8.00000000E-01
  8.00000000E-01  1.50000000E+00  1.50000000E+00  8.00000000E-01  8.00000000E-01
  1.50000000E+00  1.50000000E+00  8.00000000E-01  8.00000000E-01  1.50000000E+00
  1.50000000E+00  8.00000000E-01  8.00000000E-01  1.50000000E+00  1.50000000E+00
  8.00000000E-01  8.00000000E-01  1.50000000E+00  1.50000000E+00  8.00000000E-01
  8.00000000E-01  1.50000000E+00  1.50000000E+00  8.00000000E-01  8.00000000E-01
  1.50000000E+00  1.50000000E+00  8.00000000E-01  8.00000000E-01  1.50000000E+00
  1.50000000E+00  8.00000000E-01  8.00000000E-01  1.50000000E+00  1.50000000E+00
  8.00000000E-01  8.00000000E-01  1.50000000E+00  1.50000000E+00  8.00000000E-01
  8.00000000E-01  1.50000000E+00  1.50000000E+00  8.00000000E-01  8.00000000E-01
  1.50000000E+00  1.50000000E+00  8.00000000E-01  8.00000000E-01  1.50000000E+00
  1.50000000E+00  8.00000000E-01  8.00000000E-01  1.50000000E+00  1.50000000E+00
  8.00000000E-01  8.00000000E-01  1.50000000E+00  1.50000000E+00  8.00000000E-01
  8.00000000E-01  1.50000000E+00  1.50000000E+00  8.00000000E-01  8.00000000E-01
  1.50000000E+00  1.50000000E+00  8.00000000E-01  8.00000000E-01  1.50000000E+00
  1.50000000E+00  8.00000000E-01  8.00000000E-01  1.50000000E+00  1.50000000E+00
  8.00000000E-01  8.00000000E-01  1.50000000E+00  1.50000000E+00  8.00000000E-01
  8.00000000E-01  1.50000000E+00  1.50000000E+00  8.00000000E-01  8.00000000E-01
  1.50000000E+00  1.50000000E+00  8.00000000E-01  8.00000000E-01  1.50000000E+00
  1.50000000E+00  8.00000000E-01  8.00000000E-01  1.50000000E+00  1.50000000E+00
  8.00000000E-01  8.00000000E-01  1.50000000E+00  1.50000000E+00  8.00000000E-01
  8.00000000E-01  1.50000000E+00  1.50000000E+00  8.00000000E-01  8.00000000E-01
  1.50000000E+00  1.50000000E+00  8.00000000E-01  8.00000000E-01  1.50000000E+00
  1.50000000E+00  8.00000000E-01  8.00000000E-01  1.50000000E+00  1.50000000E+00
  8.00000000E-01  8.00000000E-01  1.50000000E+00  1.50000000E+00  8.00000000E-01
  8.00000000E-01  1.50000000E+00  1.50000000E+00  8.00000000E-01  8.00000000E-01
  1.50000000E+00  1.50000000E+00  8.00000000E-01  8.00000000E-01  1.50000000E+00
  1.50000000E+00  8.00000000E-01  8.00000000E-01  1.50000000E+00  1.50000000E+00
  8.00000000E-01  8.00000000E-01  1.50000000E+00  1.50000000E+00  8.00000000E-01
  8.00000000E-01  1.50000000E+00  1.50000000E+00  8.00000000E-01  8.00000000E-01
  1.50000000E+00  1.50000000E+00  8.00000000E-01  8.00000000E-01  1.50000000E+00
  1.50000000E+00  8.00000000E-01  8.00000000E-01  1.50000000E+00  1.50000000E+00
  8.00000000E-01  8.00000000E-01  1.50000000E+00  1.50000000E+00  8.00000000E-01
  8.00000000E-01  1.50000000E+00  1.50000000E+00  8.00000000E-01  8.00000000E-01
  1.50000000E+00  1.50000000E+00  8.00000000E-01  8.00000000E-01  1.50000000E+00
  1.50000000E+00  8.00000000E-01  8.00000000E-01  1.50000000E+00  1.50000000E+00
  8.00000000E-01  8.00000000E-01  1.50000000E+00  1.50000000E+00  8.00000000E-01
  8.00000000E-01  1.50000000E+00  1.50000000E+00  8.00000000E-01  8.00000000E-01
  1.50000000E+00  1.50000000E+00  8.00000000E-01  8.00000000E-01  1.50000000E+00
  1.50000000E+00  8.00000000E-01  8.00000000E-01  1.50000000E+00  1.50000000E+00
  8.00000000E-01  8.00000000E-01  1.50000000E+00  1.50000000E+00  8.00000000E-01
  8.00000000E-01  1.50000000E+00  1.50000000E+00  8.00000000E-01  8.00000000E-01
  1.50000000E+00  1.50000000E+00  8.00000000E-01  8.00000000E-01  1.50000000E+00
  1.50000000E+00  8.00000000E-01  8.00000000E-01  1.50000000E+00  1.50000000E+00
  8.00000000E-01  8.00000000E-01  1.50000000E+00  1.50000000E+00  8.00000000E-01
  8.00000000E-01  1.50000000E+00  1.50000000E+00  8.00000000E-01  8.00000000E-01
  1.50000000E+00  1.50000000E+00  8.00000000E-01  8.00000000E-01  1.50000000E+00
  1.50000000E+00  8.00000000E-01  8.00000000E-01  1.50000000E+00  1.50000000E+00
  8.00000000E-01  8.00000000E-01  1.50000000E+00  1.50000000E+00  8.00000000E-01
  8.00000000E-01  1.50000000E+00  1.50000000E+00  8.00000000E-01  8.00000000E-01
  1.50000000E+00  1.50000000E+00  8.00000000E-01  8.00000000E-01  1.50000000E+00
  1.50000000E+00  8.00000000E-01  8.00000000E-01  1.50000000E+00  1.50000000E+00
  8.00000000E-01  8.00000000E-01  1.50000000E+00  1.50000000E+00  8.00000000E-01
  8.00000000E-01  1.50000000E+00  1.50000000E+00  8.00000000E-01  8.00000000E-01
  1.50000000E+00  1.50000000E+00  8.00000000E-01  8.00000000E-01  1.50000000E+00
  1.50000000E+00  8.00000000E-01  8.00000000E-01  1.50000000E+00  1.50000000E+00
  8.00000000E-01  8.00000000E-01  1.50000000E+00  1.50000000E+00  8.00000000E-01
  8.00000000E-01  1.50000000E+00  1.50000000E+00  8.00000000E-01  8.00000000E-01
  1.50000000E+00  1.50000000E+00  8.00000000E-01  8.00000000E-01  1.50000000E+00
  1.50000000E+00  8.00000000E-01  8.00000000E-01  1.50000000E+00  1.50000000E+00
  8.00000000E-01  8.00000000E-01  1.50000000E+00  1.50000000E+00  8.00000000E-01
  8.00000000E-01  1.50000000E+00  1.50000000E+00  8.00000000E-01  8.00000000E-01
  1.50000000E+00  1.50000000E+00  8.00000000E-01  8.00000000E-01  1.50000000E+00
  1.50000000E+00  8.00000000E-01  8.00000000E-01  1.50000000E+00  1.50000000E+00
  8.00000000E-01  8.00000000E-01  1.50000000E+00  1.50000000E+00  8.00000000E-01
  8.00000000E-01  1.50000000E+00  1.50000000E+00  8.00000000E-01  8.00000000E-01
  1.50000000E+00  1.50000000E+00  8.00000000E-01  8.00000000E-01  1.50000000E+00
  1.50000000E+00  8.00000000E-01  8.00000000E-01  1.50000000E+00  1.50000000E+00
  8.00000000E-01  8.00000000E-01  1.50000000E+00  1.50000000E+00  8.00000000E-01
  8.00000000E-01  1.50000000E+00  1.50000000E+00  8.00000000E-01  8.00000000E-01
  1.50000000E+00  1.50000000E+00  8.00000000E-01  8.00000000E-01  1.50000000E+00
  1.50000000E+00  8.00000000E-01  8.00000000E-01  1.50000000E+00  1.50000000E+00
  8.00000000E-01  8.00000000E-01  1.50000000E+00  1.50000000E+00  8.00000000E-01
  8.00000000E-01  1.50000000E+00  1.50000000E+00  8.00000000E-01  8.00000000E-01
  1.50000000E+00  1.50000000E+00  8.00000000E-01  8.00000000E-01  1.50000000E+00
  1.50000000E+00  8.00000000E-01  8.00000000E-01  1.50000000E+00  1.50000000E+00
  8.00000000E-01  8.00000000E-01  1.50000000E+00  1.50000000E+00  8.00000000E-01
  8.00000000E-01  1.50000000E+00  1.50000000E+00  8.00000000E-01  8.00000000E-01
  1.50000000E+00  1.50000000E+00  8.00000000E-01  8.00000000E-01  1.50000000E+00
  1.50000000E+00  8.00000000E-01  8.00000000E-01  1.50000000E+00  1.50000000E+00
  8.00000000E-01  8.00000000E-01  1.50000000E+00  1.50000000E+00  8.00000000E-01
  8.00000000E-01  1.50000000E+00  1.50000000E+00  8.00000000E-01  8.00000000E-01
  1.50000000E+00  1.50000000E+00  8.00000000E-01  8.00000000E-01  1.50000000E+00
  1.50000000E+00  8.00000000E-01  8.00000000E-01  1.50000000E+00  1.50000000E+00
  8.00000000E-01  8.00000000E-01  1.50000000E+00  1.50000000E+00  8.00000000E-01
  8.00000000E-01  1.50000000E+00  1.50000000E+00  8.00000000E-01  8.00000000E-01
  1.50000000E+00  1.50000000E+00  8.00000000E-01  8.00000000E-01  1.50000000E+00
  1.50000000E+00  8.00000000E-01  8.00000000E-01  1.50000000E+00  1.50000000E+00
  8.00000000E-01  8.00000000E-01  1.50000000E+00  1.50000000E+00  8.00000000E-01
  8.00000000E-01  1.50000000E+00  1.50000000E+00  8.00000000E-01  8.00000000E-01
  1.50000000E+00  1.50000000E+00  8.00000000E-01  8.00000000E-01  1.50000000E+00
  1.50000000E+00  8.00000000E-01  8.00000000E-01  1.50000000E+00  1.50000000E+00
  8.00000000E-01  8.00000000E-01  1.50000000E+00  1.50000000E+00  8.00000000E-01
  8.00000000E-01  1.50000000E+00  1.50000000E+00  8.00000000E-01  8.00000000E-01
  1.50000000E+00  1.50000000E+00  8.00000000E-01  8.00000000E-01  1.50000000E+00
  1.50000000E+00  8.00000000E-01  8.00000000E-01  1.50000000E+00  1.50000000E+00
  8.00000000E-01  8.00000000E-01  1.50000000E+00  1.50000000E+00  8.00000000E-01
  8.00000000E-01  1.50000000E+00  1.50000000E+00  8.00000000E-01  8.00000000E-01
  1.50000000E+00  1.50000000E+00  8.00000000E-01  8.00000000E-01  1.50000000E+00
  1.50000000E+00  8.00000000E-01  8.00000000E-01  1.50000000E+00  1.50000000E+00
  8.00000000E-01  8.00000000E-01  1.50000000E+00  1.50000000E+00  8.00000000E-01
  8.00000000E-01  1.50000000E+00  1.50000000E+00  8.00000000E-01  8.00000000E-01
  1.50000000E+00  1.50000000E+00  8.00000000E-01  8.00000000E-01  1.50000000E+00
  1.50000000E+00  8.00000000E-01  8.00000000E-01  1.50000000E+00  1.50000000E+00
  8.00000000E-01  8.00000000E-01  1.50000000E+00  1.50000000E+00  8.00000000E-01
  8.00000000E-01  1.50000000E+00  1.50000000E+00  8.00000000E-01  8.00000000E-01
  1.50000000E+00  1.50000000E+00  8.00000000E-01  8.00000000E-01  1.50000000E+00
  1.50000000E+00  8.00000000E-01  8.00000000E-01  1.50000000E+00  1.50000000E+00
  8.00000000E-01  8.00000000E-01  1.50000000E+00  1.50000000E+00  8.00000000E-01
  8.00000000E-01  1.50000000E+00  1.50000000E+00  8.00000000E-01  8.00000000E-01
  1.50000000E+00  1.50000000E+00  8.00000000E-01  8.00000000E-01  1.50000000E+00
  1.50000000E+00  8.00000000E-01  8.00000000E-01  1.50000000E+00  1.50000000E+00
  8.00000000E-01  8.00000000E-01  1.50000000E+00  1.50000000E+00  8.00000000E-01
  8.00000000E-01  1.50000000E+00  1.50000000E+00  8.00000000E-01  8.00000000E-01
  1.50000000E+00  1.50000000E+00  8.00000000E-01  8.00000000E-01  1.50000000E+00
  1.50000000E+00  8.00000000E-01  8.00000000E-01  1.50000000E+00  1.50000000E+00
  8.00000000E-01  8.00000000E-01  1.50000000E+00  1.50000000E+00  8.00000000E-01
  8.00000000E-01  1.50000000E+00  1.50000000E+00  8.00000000E-01  8.00000000E-01
  1.50000000E+00  1.50000000E+00  8.00000000E-01  8.00000000E-01  1.50000000E+00
  1.50000000E+00  8.00000000E-01  8.00000000E-01  1.50000000E+00  1.50000000E+00
  8.00000000E-01  8.00000000E-01  1.50000000E+00  1.50000000E+00  8.00000000E-01
  8.00000000E-01  1.50000000E+00  1.50000000E+00  8.00000000E-01  8.00000000E-01
  1.50000000E+00  1.50000000E+00  8.00000000E-01  8.00000000E-01  1.50000000E+00
  1.50000000E+00  8.00000000E-01  8.00000000E-01  1.50000000E+00  1.50000000E+00
  8.00000000E-01  8.00000000E-01  1.50000000E+00  1.50000000E+00  8.00000000E-01
  8.00000000E-01  1.50000000E+00  1.50000000E+00  8.00000000E-01  8.00000000E-01
  1.50000000E+00  1.50000000E+00  8.00000000E-01  8.00000000E-01  1.50000000E+00
  1.50000000E+00  8.00000000E-01  8.00000000E-01  1.50000000E+00  1.50000000E+00
  8.00000000E-01  8.00000000E-01  1.50000000E+00  1.50000000E+00  8.00000000E-01
  8.00000000E-01  1.50000000E+00  1.50000000E+00  8.00000000E-01  8.00000000E-01
  1.50000000E+00  1.50000000E+00  8.00000000E-01  8.00000000E-01  1.50000000E+00
  1.50000000E+00  8.00000000E-01  8.00000000E-01  1.50000000E+00  1.50000000E+00
  8.00000000E-01  8.00000000E-01  1.50000000E+00  1.50000000E+00  8.00000000E-01
  8.00000000E-01  1.50000000E+00  1.50000000E+00  8.00000000E-01  8.00000000E-01
  1.50000000E+00  1.50000000E+00  8.00000000E-01  8.00000000E-01  1.50000000E+00
  1.50000000E+00  8.00000000E-01  8.00000000E-01  1.50000000E+00  1.50000000E+00
  8.00000000E-01  8.00000000E-01  1.50000000E+00  1.50000000E+00  8.00000000E-01
  8.00000000E-01  1.50000000E+00  1.50000000E+00  8.00000000E-01  8.00000000E-01
  1.50000000E+00  1.50000000E+00  8.00000000E-01  8.00000000E-01  1.50000000E+00
  1.50000000E+00  8.00000000E-01  8.00000000E-01  1.50000000E+00  1.50000000E+00
  8.00000000E-01  8.00000000E-01  1.50000000E+00  1.50000000E+00  8.00000000E-01
  8.00000000E-01  1.50000000E+00  1.50000000E+00  8.00000000E-01  8.00000000E-01
  1.50000000E+00  1.50000000E+00  8.00000000E-01  8.00000000E-01  1.50000000E+00
  1.50000000E+00  8.00000000E-01  8.00000000E-01  1.50000000E+00  1.50000000E+00
  8.00000000E-01  8.00000000E-01  1.50000000E+00  1.50000000E+00  8.00000000E-01
  8.00000000E-01  1.50000000E+00  1.50000000E+00  8.00000000E-01  8.00000000E-01
  1.50000000E+00  1.50000000E+00  8.00000000E-01  8.00000000E-01  1.50000000E+00
  1.50000000E+00  8.00000000E-01  8.00000000E-01  1.50000000E+00  1.50000000E+00
  8.00000000E-01  8.00000000E-01  1.50000000E+00  1.50000000E+00  8.00000000E-01
  8.00000000E-01  1.50000000E+00  1.50000000E+00  8.00000000E-01  8.00000000E-01
  1.50000000E+00  1.50000000E+00  8.00000000E-01  8.00000000E-01  1.50000000E+00
  1.50000000E+00  8.00000000E-01  8.00000000E-01  1.50000000E+00  1.50000000E+00
  8.00000000E-01  8.00000000E-01  1.50000000E+00  1.50000000E+00  8.00000000E-01
  8.00000000E-01  1.50000000E+00  1.50000000E+00  8.00000000E-01  8.00000000E-01
  1.50000000E+00  1.50000000E+00  8.00000000E-01  8.00000000E-01  1.50000000E+00
  1.50000000E+00  8.00000000E-01  8.00000000E-01  1.50000000E+00  1.50000000E+00
  8.00000000E-01  8.00000000E-01  1.50000000E+00  1.50000000E+00  8.00000000E-01
  8.00000000E-01  1.50000000E+00  1.50000000E+00  8.00000000E-01  8.00000000E-01
  1.50000000E+00  1.50000000E+00  8.00000000E-01  8.00000000E-01  1.50000000E+00
  1.50000000E+00  8.00000000E-01  8.00000000E-01  1.50000000E+00  1.50000000E+00
  8.00000000E-01  8.00000000E-01  1.50000000E+00  1.50000000E+00  8.00000000E-01
  8.00000000E-01  1.50000000E+00  1.50000000E+00  8.00000000E-01  8.00000000E-01
  1.50000000E+00  1.50000000E+00  8.00000000E-01  8.00000000E-01  1.50000000E+00
  1.50000000E+00  8.00000000E-01  8.00000000E-01  1.50000000E+00  1.50000000E+00
  8.00000000E-01  8.00000000E-01  1.50000000E+00  1.50000000E+00  8.00000000E-01
  8.00000000E-01  1.50000000E+00  1.50000000E+00  8.00000000E-01  8.00000000E-01
  1.50000000E+00  1.50000000E+00  8.00000000E-01  8.00000000E-01  1.50000000E+00
  1.50000000E+00  8.00000000E-01  8.00000000E-01  1.50000000E+00  1.50000000E+00
  8.00000000E-01  8.00000000E-01  1.50000000E+00  1.50000000E+00  8.00000000E-01
  8.00000000E-01  1.50000000E+00  1.50000000E+00  8.00000000E-01  8.00000000E-01
  1.50000000E+00  1.50000000E+00  8.00000000E-01  8.00000000E-01  1.50000000E+00
  1.50000000E+00  8.00000000E-01  8.00000000E-01  1.50000000E+00  1.50000000E+00
  8.00000000E-01  8.00000000E-01  1.50000000E+00  1.50000000E+00  8.00000000E-01
  8.00000000E-01  1.50000000E+00  1.50000000E+00  8.00000000E-01  8.00000000E-01
  1.50000000E+00  1.50000000E+00  8.00000000E-01  8.00000000E-01  1.50000000E+00
  1.50000000E+00  8.00000000E-01  8.00000000E-01  1.50000000E+00  1.50000000E+00
  8.00000000E-01  8.00000000E-01  1.50000000E+00  1.50000000E+00  8.00000000E-01
  8.00000000E-01  1.50000000E+00  1.50000000E+00  8.00000000E-01  8.00000000E-01
  1.50000000E+00  1.50000000E+00  8.00000000E-01  8.00000000E-01  1.50000000E+00
  1.50000000E+00  8.00000000E-01  8.00000000E-01  1.50000000E+00  1.50000000E+00
  8.00000000E-01  8.00000000E-01  1.50000000E+00  1.50000000E+00  8.00000000E-01
  8.00000000E-01  1.50000000E+00  1.50000000E+00  8.00000000E-01  8.00000000E-01
  1.50000000E+00  1.50000000E+00  8.00000000E-01  8.00000000E-01  1.50000000E+00
  1.50000000E+00  8.00000000E-01  8.00000000E-01  1.50000000E+00  1.50000000E+00
  8.00000000E-01  8.00000000E-01  1.50000000E+00  1.50000000E+00  8.00000000E-01
  8.00000000E-01  1.50000000E+00  1.50000000E+00  8.00000000E-01  8.00000000E-01
  1.50000000E+00  1.50000000E+00  8.00000000E-01  8.00000000E-01  1.50000000E+00
  1.50000000E+00  8.00000000E-01  8.00000000E-01  1.50000000E+00  1.50000000E+00
  8.00000000E-01  8.00000000E-01  1.50000000E+00  1.50000000E+00  8.00000000E-01
  8.00000000E-01  1.50000000E+00  1.50000000E+00  8.00000000E-01  8.00000000E-01
  1.50000000E+00  1.50000000E+00  8.00000000E-01  8.00000000E-01  1.50000000E+00
  1.50000000E+00  8.00000000E-01  8.00000000E-01  1.50000000E+00  1.50000000E+00
  8.00000000E-01  8.00000000E-01  1.50000000E+00  1.50000000E+00  8.00000000E-01
  8.00000000E-01  1.50000000E+00  1.50000000E+00  8.00000000E-01  8.00000000E-01
  1.50000000E+00  1.50000000E+00  8.00000000E-01  8.00000000E-01  1.50000000E+00
  1.50000000E+00  8.00000000E-01  8.00000000E-01  1.50000000E+00  1.50000000E+00
  8.00000000E-01  8.00000000E-01  1.50000000E+00  1.50000000E+00  8.00000000E-01
  8.00000000E-01  1.50000000E+00  1.50000000E+00  8.00000000E-01  8.00000000E-01
  1.50000000E+00  1.50000000E+00  8.00000000E-01  8.00000000E-01  1.50000000E+00
  1.50000000E+00  8.00000000E-01  8.00000000E-01  1.50000000E+00  1.50000000E+00
  8.00000000E-01  8.00000000E-01  1.50000000E+00  1.50000000E+00  8.00000000E-01
  8.00000000E-01  1.50000000E+00  1.50000000E+00  8.00000000E-01  8.00000000E-01
  1.50000000E+00  1.50000000E+00  8.00000000E-01  8.00000000E-01  1.50000000E+00
  1.50000000E+00  8.00000000E-01  8.00000000E-01  1.50000000E+00  1.50000000E+00
  8.00000000E-01  8.00000000E-01  1.50000000E+00  1.50000000E+00  8.00000000E-01
  8.00000000E-01  1.50000000E+00  1.50000000E+00  8.00000000E-01  8.00000000E-01
  1.50000000E+00  1.50000000E+00  8.00000000E-01  8.00000000E-01  1.50000000E+00
  1.50000000E+00  8.00000000E-01  8.00000000E-01  1.50000000E+00  1.50000000E+00
  8.00000000E-01  8.00000000E-01  1.50000000E+00  1.50000000E+00  8.00000000E-01
  8.00000000E-01  1.50000000E+00  1.50000000E+00  8.00000000E-01  8.00000000E-01
  1.50000000E+00  1.50000000E+00  8.00000000E-01  8.00000000E-01  1.50000000E+00
  1.50000000E+00  8.00000000E-01  8.00000000E-01  1.50000000E+00  1.50000000E+00
  8.00000000E-01  8.00000000E-01  1.50000000E+00  1.50000000E+00  8.00000000E-01
  8.00000000E-01  1.50000000E+00  1.50000000E+00  8.00000000E-01  8.00000000E-01
  1.50000000E+00  1.50000000E+00  8.00000000E-01  8.00000000E-01  1.50000000E+00
  1.50000000E+00  8.00000000E-01  8.00000000E-01  1.50000000E+00  1.50000000E+00
  8.00000000E-01  8.00000000E-01  1.50000000E+00  1.50000000E+00  8.00000000E-01
  8.00000000E-01  1.50000000E+00  1.50000000E+00  8.00000000E-01  8.00000000E-01
  1.50000000E+00  1.50000000E+00  8.00000000E-01  8.00000000E-01  1.50000000E+00
  1.50000000E+00  8.00000000E-01  8.00000000E-01  1.50000000E+00  1.50000000E+00
  8.00000000E-01  8.00000000E-01  1.50000000E+00  1.50000000E+00  8.00000000E-01
  8.00000000E-01  1.50000000E+00  1.50000000E+00  8.00000000E-01  8.00000000E-01
  1.50000000E+00  1.50000000E+00  8.00000000E-01  8.00000000E-01  1.50000000E+00
  1.50000000E+00  8.00000000E-01  8.00000000E-01  1.50000000E+00  1.50000000E+00
  8.00000000E-01  8.00000000E-01  1.50000000E+00  1.50000000E+00  8.00000000E-01
  8.00000000E-01  1.50000000E+00  1.50000000E+00  8.00000000E-01  8.00000000E-01
  1.50000000E+00  1.50000000E+00  8.00000000E-01  8.00000000E-01  1.50000000E+00
  1.50000000E+00  8.00000000E-01  8.00000000E-01  1.50000000E+00  1.50000000E+00
  8.00000000E-01  8.00000000E-01  1.50000000E+00  1.50000000E+00  8.00000000E-01
  8.00000000E-01  1.50000000E+00  1.50000000E+00  8.00000000E-01  8.00000000E-01
  1.50000000E+00  1.50000000E+00  8.00000000E-01  8.00000000E-01  1.50000000E+00
  1.50000000E+00  8.00000000E-01  8.00000000E-01  1.50000000E+00  1.50000000E+00
  8.00000000E-01  8.00000000E-01  1.50000000E+00  1.50000000E+00  8.00000000E-01
  8.00000000E-01  1.50000000E+00  1.50000000E+00  8.00000000E-01  8.00000000E-01
  1.50000000E+00  1.50000000E+00  8.00000000E-01  8.00000000E-01  1.50000000E+00
  1.50000000E+00  8.00000000E-01  8.00000000E-01  1.50000000E+00  1.50000000E+00
  8.00000000E-01  8.00000000E-01  1.50000000E+00  1.50000000E+00  8.00000000E-01
  8.00000000E-01  1.50000000E+00  1.50000000E+00  8.00000000E-01  8.00000000E-01
  1.50000000E+00  1.50000000E+00  8.00000000E-01  8.00000000E-01  1.50000000E+00
  1.50000000E+00  8.00000000E-01  8.00000000E-01  1.50000000E+00  1.50000000E+00
  8.00000000E-01  8.00000000E-01  1.50000000E+00  1.50000000E+00  8.00000000E-01
  8.00000000E-01  1.50000000E+00  1.50000000E+00  8.00000000E-01  8.00000000E-01
  1.50000000E+00  1.50000000E+00  8.00000000E-01  8.00000000E-01  1.50000000E+00
  1.50000000E+00  8.00000000E-01  8.00000000E-01  1.50000000E+00  1.50000000E+00
  8.00000000E-01  8.00000000E-01  1.50000000E+00  1.50000000E+00  8.00000000E-01
  8.00000000E-01  1.50000000E+00  1.50000000E+00  8.00000000E-01  8.00000000E-01
  1.50000000E+00  1.50000000E+00  8.00000000E-01  8.00000000E-01  1.50000000E+00
  1.50000000E+00  8.00000000E-01  8.00000000E-01  1.50000000E+00  1.50000000E+00
  8.00000000E-01  8.00000000E-01  1.50000000E+00  1.50000000E+00  8.00000000E-01
  8.00000000E-01  1.50000000E+00  1.50000000E+00  8.00000000E-01  8.00000000E-01
  1.50000000E+00  1.50000000E+00  8.00000000E-01  8.00000000E-01  1.50000000E+00
  1.50000000E+00  8.00000000E-01  8.00000000E-01  1.50000000E+00  1.50000000E+00
  8.00000000E-01  8.00000000E-01  1.50000000E+00  1.50000000E+00  8.00000000E-01
  8.00000000E-01  1.50000000E+00  1.50000000E+00  8.00000000E-01  8.00000000E-01
  1.50000000E+00  1.50000000E+00  8.00000000E-01  8.00000000E-01  1.50000000E+00
  1.50000000E+00  8.00000000E-01  8.00000000E-01  1.50000000E+00  1.50000000E+00
  8.00000000E-01  8.00000000E-01  1.50000000E+00  1.50000000E+00  8.00000000E-01
  8.00000000E-01  1.50000000E+00  1.50000000E+00  8.00000000E-01  8.00000000E-01
  1.50000000E+00  1.50000000E+00  8.00000000E-01  8.00000000E-01  1.50000000E+00
  1.50000000E+00  8.00000000E-01  8.00000000E-01  1.50000000E+00  1.50000000E+00
  8.00000000E-01  8.00000000E-01  1.50000000E+00  1.50000000E+00  8.00000000E-01
  8.00000000E-01  1.50000000E+00  1.50000000E+00  8.00000000E-01  8.00000000E-01
  1.50000000E+00  1.50000000E+00  8.00000000E-01  8.00000000E-01  1.50000000E+00
  1.50000000E+00  8.00000000E-01  8.00000000E-01  1.50000000E+00  1.50000000E+00
  8.00000000E-01  8.00000000E-01  1.50000000E+00  1.50000000E+00  8.00000000E-01
  8.00000000E-01  1.50000000E+00  1.50000000E+00  8.00000000E-01  8.00000000E-01
  1.50000000E+00  1.50000000E+00  8.00000000E-01  8.00000000E-01  1.50000000E+00
  1.50000000E+00  8.00000000E-01  8.00000000E-01  1.50000000E+00  1.50000000E+00
  8.00000000E-01  8.00000000E-01  1.50000000E+00  1.50000000E+00  8.00000000E-01
  8.00000000E-01  1.50000000E+00  1.50000000E+00  8.00000000E-01  8.00000000E-01
  1.50000000E+00  1.50000000E+00  8.00000000E-01  8.00000000E-01  1.50000000E+00
  1.50000000E+00  8.00000000E-01  8.00000000E-01  1.50000000E+00  1.50000000E+00
  8.00000000E-01  8.00000000E-01  1.50000000E+00  1.50000000E+00  8.00000000E-01
  8.00000000E-01  1.50000000E+00  1.50000000E+00  8.00000000E-01  8.00000000E-01
  1.50000000E+00  1.50000000E+00  8.00000000E-01  8.00000000E-01  1.50000000E+00
  1.50000000E+00  8.00000000E-01  8.00000000E-01  1.50000000E+00  1.50000000E+00
  8.00000000E-01  8.00000000E-01  1.50000000E+00  1.50000000E+00  8.00000000E-01
  8.00000000E-01  1.50000000E+00  1.50000000E+00  8.00000000E-01  8.00000000E-01
  1.50000000E+00  1.50000000E+00  8.00000000E-01  8.00000000E-01  1.50000000E+00
  1.50000000E+00  8.00000000E-01  8.00000000E-01  1.50000000E+00  1.50000000E+00
  8.00000000E-01  8.00000000E-01  1.50000000E+00  1.50000000E+00  8.00000000E-01
  8.00000000E-01  1.50000000E+00  1.50000000E+00  8.00000000E-01  8.00000000E-01
  1.50000000E+00  1.50000000E+00  8.00000000E-01  8.00000000E-01  1.50000000E+00
  1.50000000E+00  8.00000000E-01  8.00000000E-01  1.50000000E+00  1.50000000E+00
  8.00000000E-01  8.00000000E-01  1.50000000E+00  1.50000000E+00  8.00000000E-01
  8.00000000E-01  1.50000000E+00  1.50000000E+00  8.00000000E-01  8.00000000E-01
  1.50000000E+00  1.50000000E+00  8.00000000E-01  8.00000000E-01  1.50000000E+00
  1.50000000E+00  8.00000000E-01  8.00000000E-01  1.50000000E+00  1.50000000E+00
  8.00000000E-01  8.00000000E-01  1.50000000E+00  1.50000000E+00  8.00000000E-01
  8.00000000E-01  1.50000000E+00  1.50000000E+00  8.00000000E-01  8.00000000E-01
  1.50000000E+00  1.50000000E+00  8.00000000E-01  8.00000000E-01  1.50000000E+00
  1.50000000E+00  8.00000000E-01  8.00000000E-01  1.50000000E+00  1.50000000E+00
  8.00000000E-01  8.00000000E-01  1.50000000E+00  1.50000000E+00  8.00000000E-01
  8.00000000E-01  1.50000000E+00  1.50000000E+00  8.00000000E-01  8.00000000E-01
  1.50000000E+00  1.50000000E+00  8.00000000E-01  8.00000000E-01  1.50000000E+00
  1.50000000E+00  8.00000000E-01  8.00000000E-01  1.50000000E+00  1.50000000E+00
  8.00000000E-01  8.00000000E-01  1.50000000E+00  1.50000000E+00  8.00000000E-01
  8.00000000E-01  1.50000000E+00  1.50000000E+00  8.00000000E-01  8.00000000E-01
  1.50000000E+00  1.50000000E+00  8.00000000E-01  8.00000000E-01  1.50000000E+00
  1.50000000E+00  8.00000000E-01  8.00000000E-01  1.50000000E+00  1.50000000E+00
  8.00000000E-01  8.00000000E-01  1.50000000E+00  1.50000000E+00  8.00000000E-01
  8.00000000E-01  1.50000000E+00  1.50000000E+00  8.00000000E-01  8.00000000E-01
  1.50000000E+00  1.50000000E+00  8.00000000E-01  8.00000000E-01  1.50000000E+00
  1.50000000E+00  8.00000000E-01  8.00000000E-01  1.50000000E+00  1.50000000E+00
  8.00000000E-01  8.00000000E-01  1.50000000E+00  1.50000000E+00  8.00000000E-01
  8.00000000E-01  1.50000000E+00  1.50000000E+00  8.00000000E-01  8.00000000E-01
  1.50000000E+00  1.50000000E+00  8.00000000E-01  8.00000000E-01  1.50000000E+00
  1.50000000E+00  8.00000000E-01  8.00000000E-01  1.50000000E+00  1.50000000E+00
  8.00000000E-01  8.00000000E-01  1.50000000E+00  1.50000000E+00  8.00000000E-01
  8.00000000E-01  1.50000000E+00  1.50000000E+00  8.00000000E-01  8.00000000E-01
  1.50000000E+00  1.50000000E+00  8.00000000E-01  8.00000000E-01  1.50000000E+00
  1.50000000E+00  8.00000000E-01  8.00000000E-01  1.50000000E+00  1.50000000E+00
  8.00000000E-01  8.00000000E-01  1.50000000E+00  1.50000000E+00  8.00000000E-01
  8.00000000E-01  1.50000000E+00  1.50000000E+00  8.00000000E-01  8.00000000E-01
  1.50000000E+00  1.50000000E+00  8.00000000E-01  8.00000000E-01  1.50000000E+00
  1.50000000E+00  8.00000000E-01  8.00000000E-01  1.50000000E+00  1.50000000E+00
  8.00000000E-01  8.00000000E-01  1.50000000E+00  1.50000000E+00  8.00000000E-01
  8.00000000E-01  1.50000000E+00  1.50000000E+00  8.00000000E-01  8.00000000E-01
  1.50000000E+00  1.50000000E+00  8.00000000E-01  8.00000000E-01  1.50000000E+00
  1.50000000E+00  8.00000000E-01  8.00000000E-01  1.50000000E+00  1.50000000E+00
  8.00000000E-01  8.00000000E-01  1.50000000E+00  1.50000000E+00  8.00000000E-01
  8.00000000E-01  1.50000000E+00  1.50000000E+00  8.00000000E-01  8.00000000E-01
  1.50000000E+00  1.50000000E+00  8.00000000E-01  8.00000000E-01  1.50000000E+00
  1.50000000E+00  8.00000000E-01  8.00000000E-01  1.50000000E+00  1.50000000E+00
  8.00000000E-01  8.00000000E-01  1.50000000E+00  1.50000000E+00  8.00000000E-01
  8.00000000E-01  1.50000000E+00  1.50000000E+00  8.00000000E-01  8.00000000E-01
  1.50000000E+00  1.50000000E+00  8.00000000E-01  8.00000000E-01  1.50000000E+00
  1.50000000E+00  8.00000000E-01  8.00000000E-01  1.50000000E+00  1.50000000E+00
  8.00000000E-01  8.00000000E-01  1.50000000E+00  1.50000000E+00  8.00000000E-01
  8.00000000E-01  1.50000000E+00  1.50000000E+00  8.00000000E-01  8.00000000E-01
  1.50000000E+00  1.50000000E+00  8.00000000E-01  8.00000000E-01  1.50000000E+00
  1.50000000E+00  8.00000000E-01  8.00000000E-01  1.50000000E+00  1.50000000E+00
  8.00000000E-01  8.00000000E-01  1.50000000E+00  1.50000000E+00  8.00000000E-01
  8.00000000E-01  1.50000000E+00  1.50000000E+00  8.00000000E-01  8.00000000E-01
  1.50000000E+00  1.50000000E+00  8.00000000E-01  8.00000000E-01  1.50000000E+00
  1.50000000E+00  8.00000000E-01  8.00000000E-01  1.50000000E+00  1.50000000E+00
  8.00000000E-01  8.00000000E-01  1.50000000E+00  1.50000000E+00  8.00000000E-01
  8.00000000E-01  1.50000000E+00  1.50000000E+00  8.00000000E-01  8.00000000E-01
  1.50000000E+00  1.50000000E+00  8.00000000E-01  8.00000000E-01  1.50000000E+00
  1.50000000E+00  8.00000000E-01  8.00000000E-01  1.50000000E+00  1.50000000E+00
  8.00000000E-01  8.00000000E-01  1.50000000E+00  1.50000000E+00  8.00000000E-01
  8.00000000E-01  1.50000000E+00  1.50000000E+00  8.00000000E-01  8.00000000E-01
  1.50000000E+00  1.50000000E+00  8.00000000E-01  8.00000000E-01  1.50000000E+00
  1.50000000E+00  8.00000000E-01  8.00000000E-01  1.50000000E+00  1.50000000E+00
  8.00000000E-01  8.00000000E-01  1.50000000E+00  1.50000000E+00  8.00000000E-01
  8.00000000E-01  1.50000000E+00  1.50000000E+00  8.00000000E-01  8.00000000E-01
  1.50000000E+00  1.50000000E+00  8.00000000E-01  8.00000000E-01  1.50000000E+00
  1.50000000E+00  8.00000000E-01  8.00000000E-01  1.50000000E+00  1.50000000E+00
  8.00000000E-01  8.00000000E-01  1.50000000E+00  1.50000000E+00  8.00000000E-01
  8.00000000E-01  1.50000000E+00  1.50000000E+00  8.00000000E-01  8.00000000E-01
  1.50000000E+00  1.50000000E+00  8.00000000E-01  8.00000000E-01  1.50000000E+00
  1.50000000E+00  8.00000000E-01  8.00000000E-01  1.50000000E+00  1.50000000E+00
  8.00000000E-01  8.00000000E-01  1.50000000E+00  1.50000000E+00  8.00000000E-01
  8.00000000E-01  1.50000000E+00  1.50000000E+00  8.00000000E-01  8.00000000E-01
  1.50000000E+00  1.50000000E+00  8.00000000E-01  8.00000000E-01  1.50000000E+00
  1.50000000E+00  8.00000000E-01  8.00000000E-01  1.50000000E+00  1.50000000E+00
  8.00000000E-01  8.00000000E-01  1.50000000E+00  1.50000000E+00  8.00000000E-01
  8.00000000E-01  1.50000000E+00  1.50000000E+00  8.00000000E-01  8.00000000E-01
  1.50000000E+00  1.50000000E+00  8.00000000E-01  8.00000000E-01  1.50000000E+00
  1.50000000E+00  8.00000000E-01  8.00000000E-01  1.50000000E+00  1.50000000E+00
  8.00000000E-01  8.00000000E-01  1.50000000E+00  1.50000000E+00  8.00000000E-01
  8.00000000E-01  1.50000000E+00  1.50000000E+00  8.00000000E-01  8.00000000E-01
  1.50000000E+00  1.50000000E+00  8.00000000E-01  8.00000000E-01  1.50000000E+00
  1.50000000E+00  8.00000000E-01  8.00000000E-01  1.50000000E+00  1.50000000E+00
  8.00000000E-01  8.00000000E-01  1.50000000E+00  1.50000000E+00  8.00000000E-01
  8.00000000E-01  1.50000000E+00  1.50000000E+00  8.00000000E-01  8.00000000E-01
  1.50000000E+00  1.50000000E+00  8.00000000E-01  8.00000000E-01  1.50000000E+00
  1.50000000E+00  8.00000000E-01  8.00000000E-01  1.50000000E+00  1.50000000E+00
  8.00000000E-01  8.00000000E-01  1.50000000E+00  1.50000000E+00  8.00000000E-01
  8.00000000E-01  1.50000000E+00  1.50000000E+00  8.00000000E-01  8.00000000E-01
  1.50000000E+00  1.50000000E+00  8.00000000E-01  8.00000000E-01  1.50000000E+00
  1.50000000E+00  8.00000000E-01  8.00000000E-01  1.50000000E+00  1.50000000E+00
  8.00000000E-01  8.00000000E-01  1.50000000E+00  1.50000000E+00  8.00000000E-01
  8.00000000E-01  1.50000000E+00  1.50000000E+00  8.00000000E-01  8.00000000E-01
  1.50000000E+00  1.50000000E+00  8.00000000E-01  8.00000000E-01  1.50000000E+00
  1.50000000E+00  8.00000000E-01  8.00000000E-01  1.50000000E+00  1.50000000E+00
  8.00000000E-01  8.00000000E-01  1.50000000E+00  1.50000000E+00  8.00000000E-01
  8.00000000E-01  1.50000000E+00  1.50000000E+00  8.00000000E-01  8.00000000E-01
  1.50000000E+00  1.50000000E+00  8.00000000E-01  8.00000000E-01  1.50000000E+00
  1.50000000E+00  8.00000000E-01  8.00000000E-01  1.50000000E+00  1.50000000E+00
  8.00000000E-01  8.00000000E-01  1.50000000E+00  1.50000000E+00  8.00000000E-01
  8.00000000E-01  1.50000000E+00  1.50000000E+00  8.00000000E-01  8.00000000E-01
  1.50000000E+00  1.50000000E+00  8.00000000E-01  8.00000000E-01  1.50000000E+00
  1.50000000E+00  8.00000000E-01  8.00000000E-01  1.50000000E+00  1.50000000E+00
  8.00000000E-01  8.00000000E-01  1.50000000E+00  1.50000000E+00  8.00000000E-01
  8.00000000E-01  1.50000000E+00  1.50000000E+00  8.00000000E-01  8.00000000E-01
  1.50000000E+00  1.50000000E+00  8.00000000E-01  8.00000000E-01  1.50000000E+00
  1.50000000E+00  8.00000000E-01  8.00000000E-01  1.50000000E+00  1.50000000E+00
  8.00000000E-01  8.00000000E-01  1.50000000E+00  1.50000000E+00  8.00000000E-01
  8.00000000E-01  1.50000000E+00  1.50000000E+00  8.00000000E-01  8.00000000E-01
  1.50000000E+00  1.50000000E+00  8.00000000E-01  8.00000000E-01  1.50000000E+00
  1.50000000E+00  8.00000000E-01  8.00000000E-01  1.50000000E+00  1.50000000E+00
  8.00000000E-01  8.00000000E-01  1.50000000E+00  1.50000000E+00  8.00000000E-01
  8.00000000E-01  1.50000000E+00  1.50000000E+00  8.00000000E-01  8.00000000E-01
  1.50000000E+00  1.50000000E+00  8.00000000E-01  8.00000000E-01  1.50000000E+00
  1.50000000E+00  8.00000000E-01  8.00000000E-01  1.50000000E+00  1.50000000E+00
  8.00000000E-01  8.00000000E-01  1.50000000E+00  1.50000000E+00  8.00000000E-01
  8.00000000E-01  1.50000000E+00  1.50000000E+00  8.00000000E-01  8.00000000E-01
  1.50000000E+00  1.50000000E+00  8.00000000E-01  8.00000000E-01  1.50000000E+00
  1.50000000E+00  8.00000000E-01  8.00000000E-01  1.50000000E+00  1.50000000E+00
  8.00000000E-01  8.00000000E-01  1.50000000E+00  1.50000000E+00  8.00000000E-01
  8.00000000E-01  1.50000000E+00  1.50000000E+00  8.00000000E-01  8.00000000E-01
  1.50000000E+00  1.50000000E+00  8.00000000E-01  8.00000000E-01  1.50000000E+00
  1.50000000E+00  8.00000000E-01  8.00000000E-01  1.50000000E+00  1.50000000E+00
  8.00000000E-01  8.00000000E-01  1.50000000E+00  1.50000000E+00  8.00000000E-01
  8.00000000E-01  1.50000000E+00  1.50000000E+00  8.00000000E-01  8.00000000E-01
  1.50000000E+00  1.50000000E+00  8.00000000E-01  8.00000000E-01  1.50000000E+00
  1.50000000E+00  8.00000000E-01  8.00000000E-01  1.50000000E+00  1.50000000E+00
  8.00000000E-01  8.00000000E-01  1.50000000E+00  1.50000000E+00  8.00000000E-01
  8.00000000E-01  1.50000000E+00  1.50000000E+00  8.00000000E-01  8.00000000E-01
  1.50000000E+00  1.50000000E+00  8.00000000E-01  8.00000000E-01  1.50000000E+00
  1.50000000E+00  8.00000000E-01  8.00000000E-01  1.50000000E+00  1.50000000E+00
  8.00000000E-01  8.00000000E-01  1.50000000E+00  1.50000000E+00  8.00000000E-01
  8.00000000E-01  1.50000000E+00  1.50000000E+00  8.00000000E-01  8.00000000E-01
  1.50000000E+00  1.50000000E+00  8.00000000E-01  8.00000000E-01  1.50000000E+00
  1.50000000E+00  8.00000000E-01  8.00000000E-01  1.50000000E+00  1.50000000E+00
  8.00000000E-01  8.00000000E-01  1.50000000E+00  1.50000000E+00  8.00000000E-01
  8.00000000E-01  1.50000000E+00  1.50000000E+00  8.00000000E-01  8.00000000E-01
  1.50000000E+00  1.50000000E+00  8.00000000E-01  8.00000000E-01  1.50000000E+00
  1.50000000E+00  8.00000000E-01  8.00000000E-01  1.50000000E+00  1.50000000E+00
  8.00000000E-01  8.00000000E-01  1.50000000E+00  1.50000000E+00  8.00000000E-01
  8.00000000E-01  1.50000000E+00  1.50000000E+00  8.00000000E-01  8.00000000E-01
  1.50000000E+00  1.50000000E+00  8.00000000E-01  8.00000000E-01  1.50000000E+00
  1.50000000E+00  8.00000000E-01  8.00000000E-01  1.50000000E+00  1.50000000E+00
  8.00000000E-01  8.00000000E-01  1.50000000E+00  1.50000000E+00  8.00000000E-01
  8.00000000E-01  1.50000000E+00  1.50000000E+00  8.00000000E-01  8.00000000E-01
  1.50000000E+00  1.50000000E+00  8.00000000E-01  8.00000000E-01  1.50000000E+00
  1.50000000E+00  8.00000000E-01  8.00000000E-01  1.50000000E+00  1.50000000E+00
  8.00000000E-01  8.00000000E-01  1.50000000E+00  1.50000000E+00  8.00000000E-01
  8.00000000E-01  1.50000000E+00  1.50000000E+00  8.00000000E-01  8.00000000E-01
  1.50000000E+00  1.50000000E+00  8.00000000E-01  8.00000000E-01  1.50000000E+00
  1.50000000E+00  8.00000000E-01  8.00000000E-01  1.50000000E+00  1.50000000E+00
  8.00000000E-01  8.00000000E-01  1.50000000E+00  1.50000000E+00  8.00000000E-01
  8.00000000E-01  1.50000000E+00  1.50000000E+00  8.00000000E-01  8.00000000E-01
  1.50000000E+00  1.50000000E+00  8.00000000E-01  8.00000000E-01  1.50000000E+00
  1.50000000E+00  8.00000000E-01  8.00000000E-01  1.50000000E+00  1.50000000E+00
  8.00000000E-01  8.00000000E-01  1.50000000E+00  1.50000000E+00  8.00000000E-01
  8.00000000E-01  1.50000000E+00  1.50000000E+00  8.00000000E-01  8.00000000E-01
  1.50000000E+00  1.50000000E+00  8.00000000E-01  8.00000000E-01  1.50000000E+00
  1.50000000E+00  8.00000000E-01  8.00000000E-01  1.50000000E+00  1.50000000E+00
  8.00000000E-01  8.00000000E-01  1.50000000E+00  1.50000000E+00  8.00000000E-01
  8.00000000E-01  1.50000000E+00  1.50000000E+00  8.00000000E-01  8.00000000E-01
  1.50000000E+00  1.50000000E+00  8.00000000E-01  8.00000000E-01  1.50000000E+00
  1.50000000E+00  8.00000000E-01  8.00000000E-01  1.50000000E+00  1.50000000E+00
  8.00000000E-01  8.00000000E-01  1.50000000E+00  1.50000000E+00  8.00000000E-01
  8.00000000E-01  1.50000000E+00  1.50000000E+00  8.00000000E-01  8.00000000E-01
  1.50000000E+00  1.50000000E+00  8.00000000E-01  8.00000000E-01  1.50000000E+00
  1.50000000E+00  8.00000000E-01  8.00000000E-01  1.50000000E+00  1.50000000E+00
  8.00000000E-01  8.00000000E-01  1.50000000E+00  1.50000000E+00  8.00000000E-01
  8.00000000E-01  1.50000000E+00  1.50000000E+00  8.00000000E-01  8.00000000E-01
  1.50000000E+00  1.50000000E+00  8.00000000E-01  8.00000000E-01  1.50000000E+00
  1.50000000E+00  8.00000000E-01  8.00000000E-01  1.50000000E+00  1.50000000E+00
  8.00000000E-01  8.00000000E-01  1.50000000E+00  1.50000000E+00  8.00000000E-01
  8.00000000E-01  1.50000000E+00  1.50000000E+00  8.00000000E-01  8.00000000E-01
  1.50000000E+00  1.50000000E+00  8.00000000E-01  8.00000000E-01  1.50000000E+00
  1.50000000E+00  8.00000000E-01  8.00000000E-01  1.50000000E+00  1.50000000E+00
  8.00000000E-01  8.00000000E-01  1.50000000E+00  1.50000000E+00  8.00000000E-01
  8.00000000E-01  1.50000000E+00  1.50000000E+00  8.00000000E-01  8.00000000E-01
  1.50000000E+00  1.50000000E+00  8.00000000E-01  8.00000000E-01  1.50000000E+00
  1.50000000E+00  8.00000000E-01  8.00000000E-01  1.50000000E+00  1.50000000E+00
  8.00000000E-01  8.00000000E-01  1.50000000E+00  1.50000000E+00  8.00000000E-01
  8.00000000E-01  1.50000000E+00  1.50000000E+00  8.00000000E-01  8.00000000E-01
  1.50000000E+00  1.50000000E+00  8.00000000E-01  8.00000000E-01  1.50000000E+00
  1.50000000E+00  8.00000000E-01  8.00000000E-01  1.50000000E+00  1.50000000E+00
  8.00000000E-01  8.00000000E-01  1.50000000E+00  1.50000000E+00  8.00000000E-01
  8.00000000E-01  1.50000000E+00  1.50000000E+00  8.00000000E-01  8.00000000E-01
  1.50000000E+00  1.50000000E+00  8.00000000E-01  8.00000000E-01  1.50000000E+00
  1.50000000E+00  8.00000000E-01  8.00000000E-01  1.50000000E+00  1.50000000E+00
  8.00000000E-01  8.00000000E-01  1.50000000E+00  1.50000000E+00  8.00000000E-01
  8.00000000E-01  1.50000000E+00  1.50000000E+00  8.00000000E-01  8.00000000E-01
  1.50000000E+00  1.50000000E+00  8.00000000E-01  8.00000000E-01  1.50000000E+00
  1.50000000E+00  8.00000000E-01  8.00000000E-01  1.50000000E+00  1.50000000E+00
  8.00000000E-01  8.00000000E-01  1.50000000E+00  1.50000000E+00  8.00000000E-01
  8.00000000E-01  1.50000000E+00  1.50000000E+00  8.00000000E-01  8.00000000E-01
  1.50000000E+00  1.50000000E+00  8.00000000E-01  8.00000000E-01  1.50000000E+00
  1.50000000E+00  8.00000000E-01  8.00000000E-01  1.50000000E+00  1.50000000E+00
  8.00000000E-01  8.00000000E-01  1.50000000E+00  1.50000000E+00  8.00000000E-01
  8.00000000E-01  1.50000000E+00  1.50000000E+00  8.00000000E-01  8.00000000E-01
  1.50000000E+00  1.50000000E+00  8.00000000E-01  8.00000000E-01  1.50000000E+00
  1.50000000E+00  8.00000000E-01  8.00000000E-01  1.50000000E+00  1.50000000E+00
  8.00000000E-01  8.00000000E-01  1.50000000E+00  1.50000000E+00  8.00000000E-01
  8.00000000E-01  1.50000000E+00  1.50000000E+00  8.00000000E-01  8.00000000E-01
  1.50000000E+00  1.50000000E+00  8.00000000E-01  8.00000000E-01  1.50000000E+00
  1.50000000E+00  8.00000000E-01  8.00000000E-01  1.50000000E+00  1.50000000E+00
  8.00000000E-01  8.00000000E-01  1.50000000E+00  1.50000000E+00  8.00000000E-01
  8.00000000E-01  1.50000000E+00  1.50000000E+00  8.00000000E-01  8.00000000E-01
  1.50000000E+00  1.50000000E+00  8.00000000E-01  8.00000000E-01  1.50000000E+00
  1.50000000E+00  8.00000000E-01  8.00000000E-01  1.50000000E+00  1.50000000E+00
  8.00000000E-01  8.00000000E-01  1.50000000E+00  1.50000000E+00  8.00000000E-01
  8.00000000E-01  1.50000000E+00  1.50000000E+00  8.00000000E-01  8.00000000E-01
  1.50000000E+00  1.50000000E+00  8.00000000E-01  8.00000000E-01  1.50000000E+00
  1.50000000E+00  8.00000000E-01  8.00000000E-01  1.50000000E+00  1.50000000E+00
  8.00000000E-01  8.00000000E-01  1.50000000E+00  1.50000000E+00  8.00000000E-01
  8.00000000E-01  1.50000000E+00  1.50000000E+00  8.00000000E-01  8.00000000E-01
  1.50000000E+00  1.50000000E+00  8.00000000E-01  8.00000000E-01  1.50000000E+00
  1.50000000E+00  8.00000000E-01  8.00000000E-01  1.50000000E+00  1.50000000E+00
  8.00000000E-01  8.00000000E-01  1.50000000E+00  1.50000000E+00  8.00000000E-01
  8.00000000E-01  1.50000000E+00  1.50000000E+00  8.00000000E-01  8.00000000E-01
  1.50000000E+00  1.50000000E+00  8.00000000E-01  8.00000000E-01  1.50000000E+00
  1.50000000E+00  8.00000000E-01  8.00000000E-01  1.50000000E+00  1.50000000E+00
  8.00000000E-01  8.00000000E-01  1.50000000E+00  1.50000000E+00  8.00000000E-01
  8.00000000E-01  1.50000000E+00  1.50000000E+00  8.00000000E-01  8.00000000E-01
  1.50000000E+00  1.50000000E+00  8.00000000E-01  8.00000000E-01  1.50000000E+00
  1.50000000E+00  8.00000000E-01  8.00000000E-01  1.50000000E+00  1.50000000E+00
  8.00000000E-01  8.00000000E-01  1.50000000E+00  1.50000000E+00  8.00000000E-01
  8.00000000E-01  1.50000000E+00  1.50000000E+00  8.00000000E-01  8.00000000E-01
  1.50000000E+00  1.50000000E+00  8.00000000E-01  8.00000000E-01  1.50000000E+00
  1.50000000E+00  8.00000000E-01  8.00000000E-01  1.50000000E+00  1.50000000E+00
  8.00000000E-01  8.00000000E-01  1.50000000E+00  1.50000000E+00  8.00000000E-01
  8.00000000E-01  1.50000000E+00  1.50000000E+00  8.00000000E-01  8.00000000E-01
  1.50000000E+00  1.50000000E+00  8.00000000E-01  8.00000000E-01  1.50000000E+00
  1.50000000E+00  8.00000000E-01  8.00000000E-01  1.50000000E+00  1.50000000E+00
  8.00000000E-01  8.00000000E-01  1.50000000E+00  1.50000000E+00  8.00000000E-01
  8.00000000E-01  1.50000000E+00  1.50000000E+00  8.00000000E-01  8.00000000E-01
  1.50000000E+00  1.50000000E+00  8.00000000E-01  8.00000000E-01  1.50000000E+00
  1.50000000E+00  8.00000000E-01  8.00000000E-01  1.50000000E+00  1.50000000E+00
  8.00000000E-01  8.00000000E-01  1.50000000E+00  1.50000000E+00  8.00000000E-01
  8.00000000E-01  1.50000000E+00  1.50000000E+00  8.00000000E-01  8.00000000E-01
  1.50000000E+00  1.50000000E+00  8.00000000E-01  8.00000000E-01  1.50000000E+00
  1.50000000E+00  8.00000000E-01  8.00000000E-01  1.50000000E+00  1.50000000E+00
  8.00000000E-01  8.00000000E-01  1.50000000E+00  1.50000000E+00  8.00000000E-01
  8.00000000E-01  1.50000000E+00  1.50000000E+00  8.00000000E-01  8.00000000E-01
  1.50000000E+00  1.50000000E+00  8.00000000E-01  8.00000000E-01  1.50000000E+00
  1.50000000E+00  8.00000000E-01  8.00000000E-01  1.50000000E+00  1.50000000E+00
  8.00000000E-01  8.00000000E-01  1.50000000E+00  1.50000000E+00  8.00000000E-01
  8.00000000E-01  1.50000000E+00  1.50000000E+00  8.00000000E-01  8.00000000E-01
  1.50000000E+00  1.50000000E+00  8.00000000E-01  8.00000000E-01  1.50000000E+00
  1.50000000E+00  8.00000000E-01  8.00000000E-01  1.50000000E+00  1.50000000E+00
  8.00000000E-01  8.00000000E-01  1.50000000E+00  1.50000000E+00  8.00000000E-01
  8.00000000E-01  1.50000000E+00  1.50000000E+00  8.00000000E-01  8.00000000E-01
  1.50000000E+00  1.50000000E+00  8.00000000E-01  8.00000000E-01  1.50000000E+00
  1.50000000E+00  8.00000000E-01  8.00000000E-01  1.50000000E+00  1.50000000E+00
  8.00000000E-01  8.00000000E-01  1.50000000E+00  1.50000000E+00  8.00000000E-01
  8.00000000E-01  1.50000000E+00  1.50000000E+00  8.00000000E-01  8.00000000E-01
  1.50000000E+00  1.50000000E+00  8.00000000E-01  8.00000000E-01  1.50000000E+00
  1.50000000E+00  8.00000000E-01  8.00000000E-01  1.50000000E+00  1.50000000E+00
  8.00000000E-01  8.00000000E-01  1.50000000E+00  1.50000000E+00  8.00000000E-01
  8.00000000E-01  1.50000000E+00  1.50000000E+00  8.00000000E-01  8.00000000E-01
  1.50000000E+00  1.50000000E+00  8.00000000E-01  8.00000000E-01  1.50000000E+00
  1.50000000E+00  8.00000000E-01  8.00000000E-01  1.50000000E+00  1.50000000E+00
  8.00000000E-01  8.00000000E-01  1.50000000E+00  1.50000000E+00  8.00000000E-01
  8.00000000E-01  1.50000000E+00  1.50000000E+00  8.00000000E-01  8.00000000E-01
  1.50000000E+00  1.50000000E+00  8.00000000E-01  8.00000000E-01  1.50000000E+00
  1.50000000E+00  8.00000000E-01  8.00000000E-01  1.50000000E+00  1.50000000E+00
  8.00000000E-01  8.00000000E-01  1.50000000E+00  1.50000000E+00  8.00000000E-01
  8.00000000E-01  1.50000000E+00  1.50000000E+00  8.00000000E-01  8.00000000E-01
  1.50000000E+00  1.50000000E+00  8.00000000E-01  8.00000000E-01  1.50000000E+00
  1.50000000E+00  8.00000000E-01  8.00000000E-01  1.50000000E+00  1.50000000E+00
  8.00000000E-01  8.00000000E-01  1.50000000E+00  1.50000000E+00  8.00000000E-01
  8.00000000E-01  1.50000000E+00  1.50000000E+00  8.00000000E-01  8.00000000E-01
  1.50000000E+00  1.50000000E+00  8.00000000E-01  8.00000000E-01  1.50000000E+00
  1.50000000E+00  8.00000000E-01  8.00000000E-01  1.50000000E+00  1.50000000E+00
  8.00000000E-01  8.00000000E-01  1.50000000E+00  1.50000000E+00  8.00000000E-01
  8.00000000E-01  1.50000000E+00  1.50000000E+00  8.00000000E-01  8.00000000E-01
  1.50000000E+00  1.50000000E+00  8.00000000E-01  8.00000000E-01  1.50000000E+00
  1.50000000E+00  8.00000000E-01  8.00000000E-01  1.50000000E+00  1.50000000E+00
  8.00000000E-01  8.00000000E-01  1.50000000E+00  1.50000000E+00  8.00000000E-01
  8.00000000E-01  1.50000000E+00  1.50000000E+00  8.00000000E-01  8.00000000E-01
  1.50000000E+00  1.50000000E+00  8.00000000E-01  8.00000000E-01  1.50000000E+00
  1.50000000E+00  8.00000000E-01  8.00000000E-01  1.50000000E+00  1.50000000E+00
  8.00000000E-01  8.00000000E-01  1.50000000E+00  1.50000000E+00  8.00000000E-01
  8.00000000E-01  1.50000000E+00  1.50000000E+00  8.00000000E-01  8.00000000E-01
  1.50000000E+00  1.50000000E+00  8.00000000E-01  8.00000000E-01  1.50000000E+00
  1.50000000E+00  8.00000000E-01  8.00000000E-01  1.50000000E+00  1.50000000E+00
  8.00000000E-01  8.00000000E-01  1.50000000E+00  1.50000000E+00  8.00000000E-01
  8.00000000E-01  1.50000000E+00  1.50000000E+00  8.00000000E-01  8.00000000E-01
  1.50000000E+00  1.50000000E+00  8.00000000E-01  8.00000000E-01  1.50000000E+00
  1.50000000E+00  8.00000000E-01  8.00000000E-01  1.50000000E+00  1.50000000E+00
  8.00000000E-01  8.00000000E-01  1.50000000E+00  1.50000000E+00  8.00000000E-01
  8.00000000E-01  1.50000000E+00  1.50000000E+00  8.00000000E-01  8.00000000E-01
  1.50000000E+00  1.50000000E+00  8.00000000E-01  8.00000000E-01  1.50000000E+00
  1.50000000E+00  8.00000000E-01  8.00000000E-01  1.50000000E+00  1.50000000E+00
  8.00000000E-01  8.00000000E-01  1.50000000E+00  1.50000000E+00  8.00000000E-01
  8.00000000E-01  1.50000000E+00  1.50000000E+00  8.00000000E-01  8.00000000E-01
  1.50000000E+00  1.50000000E+00  8.00000000E-01  8.00000000E-01  1.50000000E+00
  1.50000000E+00  8.00000000E-01  8.00000000E-01  1.50000000E+00  1.50000000E+00
  8.00000000E-01  8.00000000E-01  1.50000000E+00  1.50000000E+00  8.00000000E-01
  8.00000000E-01  1.50000000E+00  1.50000000E+00  8.00000000E-01  8.00000000E-01
  1.50000000E+00  1.50000000E+00  8.00000000E-01  8.00000000E-01  1.50000000E+00
  1.50000000E+00  8.00000000E-01  8.00000000E-01  1.50000000E+00  1.50000000E+00
  8.00000000E-01  8.00000000E-01  1.50000000E+00  1.50000000E+00  8.00000000E-01
  8.00000000E-01  1.50000000E+00  1.50000000E+00  8.00000000E-01  8.00000000E-01
  1.50000000E+00  1.50000000E+00  8.00000000E-01  8.00000000E-01  1.50000000E+00
  1.50000000E+00  8.00000000E-01  8.00000000E-01  1.50000000E+00  1.50000000E+00
  8.00000000E-01  8.00000000E-01  1.50000000E+00  1.50000000E+00  8.00000000E-01
  8.00000000E-01  1.50000000E+00  1.50000000E+00  8.00000000E-01  8.00000000E-01
  1.50000000E+00  1.50000000E+00  8.00000000E-01  8.00000000E-01  1.50000000E+00
  1.50000000E+00  8.00000000E-01  8.00000000E-01  1.50000000E+00  1.50000000E+00
  8.00000000E-01  8.00000000E-01  1.50000000E+00  1.50000000E+00  8.00000000E-01
  8.00000000E-01  1.50000000E+00  1.50000000E+00  8.00000000E-01  8.00000000E-01
  1.50000000E+00  1.50000000E+00  8.00000000E-01  8.00000000E-01  1.50000000E+00
  1.50000000E+00  8.00000000E-01  8.00000000E-01  1.50000000E+00  1.50000000E+00
  8.00000000E-01  8.00000000E-01  1.50000000E+00  1.50000000E+00  8.00000000E-01
  8.00000000E-01  1.50000000E+00  1.50000000E+00  8.00000000E-01  8.00000000E-01
  1.50000000E+00  1.50000000E+00  8.00000000E-01  8.00000000E-01  1.50000000E+00
  1.50000000E+00  8.00000000E-01  8.00000000E-01  1.50000000E+00  1.50000000E+00
  8.00000000E-01  8.00000000E-01  1.50000000E+00  1.50000000E+00  8.00000000E-01
  8.00000000E-01  1.50000000E+00  1.50000000E+00  8.00000000E-01  8.00000000E-01
  1.50000000E+00  1.50000000E+00  8.00000000E-01  8.00000000E-01  1.50000000E+00
  1.50000000E+00  8.00000000E-01  8.00000000E-01  1.50000000E+00  1.50000000E+00
  8.00000000E-01  8.00000000E-01  1.50000000E+00  1.50000000E+00  8.00000000E-01
  8.00000000E-01  1.50000000E+00  1.50000000E+00  8.00000000E-01  8.00000000E-01
  1.50000000E+00  1.50000000E+00  8.00000000E-01  8.00000000E-01  1.50000000E+00
  1.50000000E+00  8.00000000E-01  8.00000000E-01  1.50000000E+00  1.50000000E+00
  8.00000000E-01  8.00000000E-01  1.50000000E+00  1.50000000E+00  8.00000000E-01
  8.00000000E-01  1.50000000E+00  1.50000000E+00  8.00000000E-01  8.00000000E-01
  1.50000000E+00  1.50000000E+00  8.00000000E-01  8.00000000E-01  1.50000000E+00
  1.50000000E+00  8.00000000E-01  8.00000000E-01  1.50000000E+00  1.50000000E+00
  8.00000000E-01  8.00000000E-01  1.50000000E+00  1.50000000E+00  8.00000000E-01
  8.00000000E-01  1.50000000E+00  1.50000000E+00  8.00000000E-01  8.00000000E-01
  1.50000000E+00  1.50000000E+00  8.00000000E-01  8.00000000E-01  1.50000000E+00
  1.50000000E+00  8.00000000E-01  8.00000000E-01  1.50000000E+00  1.50000000E+00
  8.00000000E-01  8.00000000E-01  1.50000000E+00  1.50000000E+00  8.00000000E-01
  8.00000000E-01  1.50000000E+00  1.50000000E+00  8.00000000E-01  8.00000000E-01
  1.50000000E+00  1.50000000E+00  8.00000000E-01  8.00000000E-01  1.50000000E+00
  1.50000000E+00  8.00000000E-01  8.00000000E-01  1.50000000E+00  1.50000000E+00
  8.00000000E-01  8.00000000E-01  1.50000000E+00  1.50000000E+00  8.00000000E-01
  8.00000000E-01  1.50000000E+00  1.50000000E+00  8.00000000E-01  8.00000000E-01
  1.50000000E+00  1.50000000E+00  8.00000000E-01  8.00000000E-01  1.50000000E+00
  1.50000000E+00  8.00000000E-01  8.00000000E-01  1.50000000E+00  1.50000000E+00
  8.00000000E-01  8.00000000E-01  1.50000000E+00  1.50000000E+00  8.00000000E-01
  8.00000000E-01  1.50000000E+00  1.50000000E+00  8.00000000E-01  8.00000000E-01
  1.50000000E+00  1.50000000E+00  8.00000000E-01  8.00000000E-01  1.50000000E+00
  1.50000000E+00  8.00000000E-01  8.00000000E-01  1.50000000E+00  1.50000000E+00
  8.00000000E-01  8.00000000E-01  1.50000000E+00  1.50000000E+00  8.00000000E-01
  8.00000000E-01  1.50000000E+00  1.50000000E+00  8.00000000E-01  8.00000000E-01
  1.50000000E+00  1.50000000E+00  8.00000000E-01  8.00000000E-01  1.50000000E+00
  1.50000000E+00  8.00000000E-01  8.00000000E-01  1.50000000E+00  1.50000000E+00
  8.00000000E-01  8.00000000E-01  1.50000000E+00  1.50000000E+00  8.00000000E-01
  8.00000000E-01  1.50000000E+00  1.50000000E+00  8.00000000E-01  8.00000000E-01
  1.50000000E+00  1.50000000E+00  8.00000000E-01  8.00000000E-01  1.50000000E+00
  1.50000000E+00  8.00000000E-01  8.00000000E-01  1.50000000E+00  1.50000000E+00
  8.00000000E-01  8.00000000E-01  1.50000000E+00  1.50000000E+00  8.00000000E-01
  8.00000000E-01  1.50000000E+00  1.50000000E+00  8.00000000E-01  8.00000000E-01
  1.50000000E+00  1.50000000E+00  8.00000000E-01  8.00000000E-01  1.50000000E+00
  1.50000000E+00  8.00000000E-01  8.00000000E-01  1.50000000E+00  1.50000000E+00
  8.00000000E-01  8.00000000E-01  1.50000000E+00  1.50000000E+00  8.00000000E-01
  8.00000000E-01  1.50000000E+00  1.50000000E+00  8.00000000E-01  8.00000000E-01
  1.50000000E+00  1.50000000E+00  8.00000000E-01  8.00000000E-01  1.50000000E+00
  1.50000000E+00  8.00000000E-01  8.00000000E-01  1.50000000E+00  1.50000000E+00
  8.00000000E-01  8.00000000E-01  1.50000000E+00  1.50000000E+00  8.00000000E-01
  8.00000000E-01  1.50000000E+00  1.50000000E+00  8.00000000E-01  8.00000000E-01
  1.50000000E+00  1.50000000E+00  8.00000000E-01  8.00000000E-01  1.50000000E+00
  1.50000000E+00  8.00000000E-01  8.00000000E-01  1.50000000E+00  1.50000000E+00
  8.00000000E-01  8.00000000E-01  1.50000000E+00  1.50000000E+00  8.00000000E-01
  8.00000000E-01  1.50000000E+00  1.50000000E+00  8.00000000E-01  8.00000000E-01
  1.50000000E+00  1.50000000E+00  8.00000000E-01  8.00000000E-01  1.50000000E+00
  1.50000000E+00  8.00000000E-01  8.00000000E-01  1.50000000E+00  1.50000000E+00
  8.00000000E-01  8.00000000E-01  1.50000000E+00  1.50000000E+00  8.00000000E-01
  8.00000000E-01  1.50000000E+00  1.50000000E+00  8.00000000E-01  8.00000000E-01
  1.50000000E+00  1.50000000E+00  8.00000000E-01  8.00000000E-01  1.50000000E+00
  1.50000000E+00  8.00000000E-01  8.00000000E-01  1.50000000E+00  1.50000000E+00
  8.00000000E-01  8.00000000E-01  1.50000000E+00  1.50000000E+00  8.00000000E-01
  8.00000000E-01  1.50000000E+00  1.50000000E+00  8.00000000E-01  8.00000000E-01
  1.50000000E+00  1.50000000E+00  8.00000000E-01  8.00000000E-01  1.50000000E+00
  1.50000000E+00  8.00000000E-01  8.00000000E-01  1.50000000E+00  1.50000000E+00
  8.00000000E-01  8.00000000E-01  1.50000000E+00  1.50000000E+00  8.00000000E-01
  8.00000000E-01  1.50000000E+00  1.50000000E+00  8.00000000E-01  8.00000000E-01
  1.50000000E+00  1.50000000E+00  8.00000000E-01  8.00000000E-01  1.50000000E+00
  1.50000000E+00  8.00000000E-01  8.00000000E-01  1.50000000E+00  1.50000000E+00
  8.00000000E-01  8.00000000E-01  1.50000000E+00  1.50000000E+00  8.00000000E-01
  8.00000000E-01  1.50000000E+00  1.50000000E+00  8.00000000E-01  8.00000000E-01
  1.50000000E+00  1.50000000E+00  8.00000000E-01  8.00000000E-01  1.50000000E+00
  1.50000000E+00  8.00000000E-01  8.00000000E-01  1.50000000E+00  1.50000000E+00
  8.00000000E-01  8.00000000E-01  1.50000000E+00  1.50000000E+00  8.00000000E-01
  8.00000000E-01  1.50000000E+00  1.50000000E+00  8.00000000E-01  8.00000000E-01
  1.50000000E+00  1.50000000E+00  8.00000000E-01  8.00000000E-01  1.50000000E+00
  1.50000000E+00  8.00000000E-01  8.00000000E-01  1.50000000E+00  1.50000000E+00
  8.00000000E-01  8.00000000E-01  1.50000000E+00  1.50000000E+00  8.00000000E-01
  8.00000000E-01  1.50000000E+00  1.50000000E+00  8.00000000E-01  8.00000000E-01
  1.50000000E+00  1.50000000E+00  8.00000000E-01  8.00000000E-01  1.50000000E+00
  1.50000000E+00  8.00000000E-01  8.00000000E-01  1.50000000E+00  1.50000000E+00
  8.00000000E-01  8.00000000E-01  1.50000000E+00  1.50000000E+00  8.00000000E-01
  8.00000000E-01  1.50000000E+00  1.50000000E+00  8.00000000E-01  8.00000000E-01
  1.50000000E+00  1.50000000E+00  8.00000000E-01  8.00000000E-01  1.50000000E+00
  1.50000000E+00  8.00000000E-01  8.00000000E-01  1.50000000E+00  1.50000000E+00
  8.00000000E-01  8.00000000E-01  1.50000000E+00  1.50000000E+00  8.00000000E-01
  8.00000000E-01  1.50000000E+00  1.50000000E+00  8.00000000E-01  8.00000000E-01
  1.50000000E+00  1.50000000E+00  8.00000000E-01  8.00000000E-01  1.50000000E+00
  1.50000000E+00  8.00000000E-01  8.00000000E-01  1.50000000E+00  1.50000000E+00
  8.00000000E-01  8.00000000E-01  1.50000000E+00  1.50000000E+00  8.00000000E-01
  8.00000000E-01  1.50000000E+00  1.50000000E+00  8.00000000E-01  8.00000000E-01
  1.50000000E+00  1.50000000E+00  8.00000000E-01  8.00000000E-01  1.50000000E+00
  1.50000000E+00  8.00000000E-01  8.00000000E-01  1.50000000E+00  1.50000000E+00
  8.00000000E-01  8.00000000E-01  1.50000000E+00  1.50000000E+00  8.00000000E-01
  8.00000000E-01  1.50000000E+00  1.50000000E+00  8.00000000E-01  8.00000000E-01
  1.50000000E+00  1.50000000E+00  8.00000000E-01  8.00000000E-01  1.50000000E+00
  1.50000000E+00  8.00000000E-01  8.00000000E-01  1.50000000E+00  1.50000000E+00
  8.00000000E-01  8.00000000E-01  1.50000000E+00  1.50000000E+00  8.00000000E-01
  8.00000000E-01  1.50000000E+00  1.50000000E+00  8.00000000E-01  8.00000000E-01
  1.50000000E+00  1.50000000E+00  8.00000000E-01  8.00000000E-01  1.50000000E+00
  1.50000000E+00  8.00000000E-01  8.00000000E-01  1.50000000E+00  1.50000000E+00
  8.00000000E-01  8.00000000E-01  1.50000000E+00  1.50000000E+00  8.00000000E-01
  8.00000000E-01  1.50000000E+00  1.50000000E+00  8.00000000E-01  8.00000000E-01
  1.50000000E+00  1.50000000E+00  8.00000000E-01  8.00000000E-01  1.50000000E+00
  1.50000000E+00  8.00000000E-01  8.00000000E-01  1.50000000E+00  1.50000000E+00
  8.00000000E-01  8.00000000E-01  1.50000000E+00  1.50000000E+00  8.00000000E-01
  8.00000000E-01  1.50000000E+00  1.50000000E+00  8.00000000E-01  8.00000000E-01
  1.50000000E+00  1.50000000E+00  8.00000000E-01  8.00000000E-01  1.50000000E+00
  1.50000000E+00  8.00000000E-01  8.00000000E-01  1.50000000E+00  1.50000000E+00
  8.00000000E-01  8.00000000E-01  1.50000000E+00  1.50000000E+00  8.00000000E-01
  8.00000000E-01  1.50000000E+00  1.50000000E+00  8.00000000E-01  8.00000000E-01
  1.50000000E+00  1.50000000E+00  8.00000000E-01  8.00000000E-01  1.50000000E+00
  1.50000000E+00  8.00000000E-01  8.00000000E-01  1.50000000E+00  1.50000000E+00
  8.00000000E-01  8.00000000E-01  1.50000000E+00  1.50000000E+00  8.00000000E-01
  8.00000000E-01  1.50000000E+00  1.50000000E+00  8.00000000E-01  8.00000000E-01
  1.50000000E+00  1.50000000E+00  8.00000000E-01  8.00000000E-01  1.50000000E+00
  1.50000000E+00  8.00000000E-01  8.00000000E-01  1.50000000E+00  1.50000000E+00
  8.00000000E-01  8.00000000E-01  1.50000000E+00  1.50000000E+00  8.00000000E-01
  8.00000000E-01  1.50000000E+00  1.50000000E+00  8.00000000E-01  8.00000000E-01
  1.50000000E+00  1.50000000E+00  8.00000000E-01  8.00000000E-01  1.50000000E+00
  1.50000000E+00  8.00000000E-01  8.00000000E-01  1.50000000E+00  1.50000000E+00
  8.00000000E-01  8.00000000E-01  1.50000000E+00  1.50000000E+00  8.00000000E-01
  8.00000000E-01  1.50000000E+00  1.50000000E+00  8.00000000E-01  8.00000000E-01
  1.50000000E+00  1.50000000E+00  8.00000000E-01  8.00000000E-01  1.50000000E+00
  1.50000000E+00  8.00000000E-01  8.00000000E-01  1.50000000E+00  1.50000000E+00
  8.00000000E-01  8.00000000E-01  1.50000000E+00  1.50000000E+00  8.00000000E-01
  8.00000000E-01  1.50000000E+00  1.50000000E+00  8.00000000E-01  8.00000000E-01
  1.50000000E+00  1.50000000E+00  8.00000000E-01  8.00000000E-01  1.50000000E+00
  1.50000000E+00  8.00000000E-01  8.00000000E-01  1.50000000E+00  1.50000000E+00
  8.00000000E-01  8.00000000E-01  1.50000000E+00  1.50000000E+00  8.00000000E-01
  8.00000000E-01  1.50000000E+00  1.50000000E+00  8.00000000E-01  8.00000000E-01
  1.50000000E+00  1.50000000E+00  8.00000000E-01  8.00000000E-01  1.50000000E+00
  1.50000000E+00  8.00000000E-01  8.00000000E-01  1.50000000E+00  1.50000000E+00
  8.00000000E-01  8.00000000E-01  1.50000000E+00  1.50000000E+00  8.00000000E-01
  8.00000000E-01  1.50000000E+00  1.50000000E+00  8.00000000E-01  8.00000000E-01
  1.50000000E+00  1.50000000E+00  8.00000000E-01  8.00000000E-01  1.50000000E+00
  1.50000000E+00  8.00000000E-01  8.00000000E-01  1.50000000E+00  1.50000000E+00
  8.00000000E-01  8.00000000E-01  1.50000000E+00  1.50000000E+00  8.00000000E-01
  8.00000000E-01  1.50000000E+00  1.50000000E+00  8.00000000E-01  8.00000000E-01
  1.50000000E+00  1.50000000E+00  8.00000000E-01  8.00000000E-01  1.50000000E+00
  1.50000000E+00  8.00000000E-01  8.00000000E-01  1.50000000E+00  1.50000000E+00
  8.00000000E-01  8.00000000E-01  1.50000000E+00  1.50000000E+00  8.00000000E-01
  8.00000000E-01  1.50000000E+00  1.50000000E+00  8.00000000E-01  8.00000000E-01
  1.50000000E+00  1.50000000E+00  8.00000000E-01  8.00000000E-01  1.50000000E+00
  1.50000000E+00  8.00000000E-01  8.00000000E-01  1.50000000E+00  1.50000000E+00
  8.00000000E-01  8.00000000E-01  1.50000000E+00  1.50000000E+00  8.00000000E-01
  8.00000000E-01  1.50000000E+00  1.50000000E+00  8.00000000E-01  8.00000000E-01
  1.50000000E+00  1.50000000E+00  8.00000000E-01  8.00000000E-01  1.50000000E+00
  1.50000000E+00  8.00000000E-01  8.00000000E-01  1.50000000E+00  1.50000000E+00
  8.00000000E-01  8.00000000E-01  1.50000000E+00  1.50000000E+00  8.00000000E-01
  8.00000000E-01  1.50000000E+00  1.50000000E+00  8.00000000E-01  8.00000000E-01
  1.50000000E+00  1.50000000E+00  8.00000000E-01  8.00000000E-01  1.50000000E+00
  1.50000000E+00  8.00000000E-01  8.00000000E-01  1.50000000E+00  1.50000000E+00
  8.00000000E-01  8.00000000E-01  1.50000000E+00  1.50000000E+00  8.00000000E-01
  8.00000000E-01  1.50000000E+00  1.50000000E+00  8.00000000E-01  8.00000000E-01
  1.50000000E+00  1.50000000E+00  8.00000000E-01  8.00000000E-01  1.50000000E+00
  1.50000000E+00  8.00000000E-01  8.00000000E-01  1.50000000E+00  1.50000000E+00
  8.00000000E-01  8.00000000E-01  1.50000000E+00  1.50000000E+00  8.00000000E-01
  8.00000000E-01  1.50000000E+00  1.50000000E+00  8.00000000E-01  8.00000000E-01
  1.50000000E+00  1.50000000E+00  8.00000000E-01  8.00000000E-01  1.50000000E+00
  1.50000000E+00  8.00000000E-01  8.00000000E-01  1.50000000E+00  1.50000000E+00
  8.00000000E-01  8.00000000E-01  1.50000000E+00  1.50000000E+00  8.00000000E-01
  8.00000000E-01  1.50000000E+00  1.50000000E+00  8.00000000E-01  8.00000000E-01
  1.50000000E+00  1.50000000E+00  8.00000000E-01  8.00000000E-01  1.50000000E+00
  1.50000000E+00  8.00000000E-01  8.00000000E-01  1.50000000E+00  1.50000000E+00
  8.00000000E-01  8.00000000E-01  1.50000000E+00  1.50000000E+00  8.00000000E-01
  8.00000000E-01  1.50000000E+00  1.50000000E+00  8.00000000E-01  8.00000000E-01
  1.50000000E+00  1.50000000E+00  8.00000000E-01  8.00000000E-01  1.50000000E+00
  1.50000000E+00  8.00000000E-01  8.00000000E-01  1.50000000E+00  1.50000000E+00
  8.00000000E-01  8.00000000E-01  1.50000000E+00  1.50000000E+00  8.00000000E-01
  8.00000000E-01  1.50000000E+00  1.50000000E+00  8.00000000E-01  8.00000000E-01
  1.50000000E+00  1.50000000E+00  8.00000000E-01  8.00000000E-01  1.50000000E+00
  1.50000000E+00  8.00000000E-01  8.00000000E-01  1.50000000E+00  1.50000000E+00
  8.00000000E-01  8.00000000E-01  1.50000000E+00  1.50000000E+00  8.00000000E-01
  8.00000000E-01  1.50000000E+00  1.50000000E+00  8.00000000E-01  8.00000000E-01
  1.50000000E+00  1.50000000E+00  8.00000000E-01  8.00000000E-01  1.50000000E+00
  1.50000000E+00  8.00000000E-01  8.00000000E-01  1.50000000E+00  1.50000000E+00
  8.00000000E-01  8.00000000E-01  1.50000000E+00  1.50000000E+00  8.00000000E-01
  8.00000000E-01  1.50000000E+00  1.50000000E+00  8.00000000E-01  8.00000000E-01
  1.50000000E+00  1.50000000E+00  8.00000000E-01  8.00000000E-01  1.50000000E+00
  1.50000000E+00  8.00000000E-01  8.00000000E-01  1.50000000E+00  1.50000000E+00
  8.00000000E-01  8.00000000E-01  1.50000000E+00  1.50000000E+00  8.00000000E-01
  8.00000000E-01  1.50000000E+00  1.50000000E+00  8.00000000E-01  8.00000000E-01
  1.50000000E+00  1.50000000E+00  8.00000000E-01  8.00000000E-01  1.50000000E+00
  1.50000000E+00  8.00000000E-01  8.00000000E-01  1.50000000E+00  1.50000000E+00
  8.00000000E-01  8.00000000E-01  1.50000000E+00  1.50000000E+00  8.00000000E-01
  8.00000000E-01  1.50000000E+00  1.50000000E+00  8.00000000E-01  8.00000000E-01
  1.50000000E+00  1.50000000E+00  8.00000000E-01  8.00000000E-01  1.50000000E+00
  1.50000000E+00  8.00000000E-01  8.00000000E-01  1.50000000E+00  1.50000000E+00
  8.00000000E-01  8.00000000E-01  1.50000000E+00  1.50000000E+00  8.00000000E-01
  8.00000000E-01  1.50000000E+00  1.50000000E+00  8.00000000E-01  8.00000000E-01
  1.50000000E+00  1.50000000E+00  8.00000000E-01  8.00000000E-01  1.50000000E+00
  1.50000000E+00  8.00000000E-01  8.00000000E-01  1.50000000E+00  1.50000000E+00
  8.00000000E-01  8.00000000E-01  1.50000000E+00  1.50000000E+00  8.00000000E-01
  8.00000000E-01  1.50000000E+00  1.50000000E+00  8.00000000E-01  8.00000000E-01
  1.50000000E+00  1.50000000E+00  8.00000000E-01  8.00000000E-01  1.50000000E+00
  1.50000000E+00  8.00000000E-01  8.00000000E-01  1.50000000E+00  1.50000000E+00
  8.00000000E-01  8.00000000E-01  1.50000000E+00  1.50000000E+00  8.00000000E-01
  8.00000000E-01  1.50000000E+00  1.50000000E+00  8.00000000E-01  8.00000000E-01
  1.50000000E+00  1.50000000E+00  8.00000000E-01  8.00000000E-01  1.50000000E+00
  1.50000000E+00  8.00000000E-01  8.00000000E-01  1.50000000E+00  1.50000000E+00
  8.00000000E-01  8.00000000E-01  1.50000000E+00  1.50000000E+00  8.00000000E-01
  8.00000000E-01  1.50000000E+00  1.50000000E+00  8.00000000E-01  8.00000000E-01
  1.50000000E+00  1.50000000E+00  8.00000000E-01  8.00000000E-01  1.50000000E+00
  1.50000000E+00  8.00000000E-01  8.00000000E-01  1.50000000E+00  1.50000000E+00
  8.00000000E-01  8.00000000E-01  1.50000000E+00  1.50000000E+00  8.00000000E-01
  8.00000000E-01  1.50000000E+00  1.50000000E+00  8.00000000E-01  8.00000000E-01
  1.50000000E+00  1.50000000E+00  8.00000000E-01  8.00000000E-01  1.50000000E+00
  1.50000000E+00  8.00000000E-01  8.00000000E-01  1.50000000E+00  1.50000000E+00
  8.00000000E-01  8.00000000E-01  1.50000000E+00  1.50000000E+00  8.00000000E-01
  8.00000000E-01  1.50000000E+00  1.50000000E+00  8.00000000E-01  8.00000000E-01
  1.50000000E+00  1.50000000E+00  8.00000000E-01  8.00000000E-01  1.50000000E+00
  1.50000000E+00  8.00000000E-01  8.00000000E-01  1.50000000E+00  1.50000000E+00
  8.00000000E-01  8.00000000E-01  1.50000000E+00  1.50000000E+00  8.00000000E-01
  8.00000000E-01  1.50000000E+00  1.50000000E+00  8.00000000E-01  8.00000000E-01
  1.50000000E+00  1.50000000E+00  8.00000000E-01  8.00000000E-01  1.50000000E+00
  1.50000000E+00  8.00000000E-01  8.00000000E-01  1.50000000E+00  1.50000000E+00
  8.00000000E-01  8.00000000E-01  1.50000000E+00  1.50000000E+00  8.00000000E-01
  8.00000000E-01  1.50000000E+00  1.50000000E+00  8.00000000E-01  8.00000000E-01
  1.50000000E+00  1.50000000E+00  8.00000000E-01  8.00000000E-01  1.50000000E+00
  1.50000000E+00  8.00000000E-01  8.00000000E-01  1.50000000E+00  1.50000000E+00
  8.00000000E-01  8.00000000E-01  1.50000000E+00  1.50000000E+00  8.00000000E-01
  8.00000000E-01  1.50000000E+00  1.50000000E+00  8.00000000E-01  8.00000000E-01
  1.50000000E+00  1.50000000E+00  8.00000000E-01  8.00000000E-01  1.50000000E+00
  1.50000000E+00  8.00000000E-01  8.00000000E-01  1.50000000E+00  1.50000000E+00
  8.00000000E-01  8.00000000E-01  1.50000000E+00  1.50000000E+00  8.00000000E-01
  8.00000000E-01  1.50000000E+00  1.50000000E+00  8.00000000E-01  8.00000000E-01
  1.50000000E+00  1.50000000E+00  8.00000000E-01  8.00000000E-01  1.50000000E+00
  1.50000000E+00  8.00000000E-01  8.00000000E-01  1.50000000E+00  1.50000000E+00
  8.00000000E-01  8.00000000E-01  1.50000000E+00  1.50000000E+00  8.00000000E-01
  8.00000000E-01  1.50000000E+00  1.50000000E+00  8.00000000E-01  8.00000000E-01
  1.50000000E+00  1.50000000E+00  8.00000000E-01  8.00000000E-01  1.50000000E+00
  1.50000000E+00  8.00000000E-01  8.00000000E-01  1.50000000E+00  1.50000000E+00
  8.00000000E-01  8.00000000E-01  1.50000000E+00  1.50000000E+00  8.00000000E-01
  8.00000000E-01  1.50000000E+00  1.50000000E+00  8.00000000E-01  8.00000000E-01
  1.50000000E+00  1.50000000E+00  8.00000000E-01  8.00000000E-01  1.50000000E+00
  1.50000000E+00  8.00000000E-01  8.00000000E-01  1.50000000E+00  1.50000000E+00
  8.00000000E-01  8.00000000E-01  1.50000000E+00  1.50000000E+00  8.00000000E-01
  8.00000000E-01  1.50000000E+00  1.50000000E+00  8.00000000E-01  8.00000000E-01
  1.50000000E+00  1.50000000E+00  8.00000000E-01  8.00000000E-01  1.50000000E+00
  1.50000000E+00  8.00000000E-01  8.00000000E-01  1.50000000E+00  1.50000000E+00
  8.00000000E-01  8.00000000E-01  1.50000000E+00  1.50000000E+00  8.00000000E-01
  8.00000000E-01  1.50000000E+00  1.50000000E+00  8.00000000E-01  8.00000000E-01
  1.50000000E+00  1.50000000E+00  8.00000000E-01  8.00000000E-01  1.50000000E+00
  1.50000000E+00  8.00000000E-01  8.00000000E-01  1.50000000E+00  1.50000000E+00
  8.00000000E-01  8.00000000E-01  1.50000000E+00  1.50000000E+00  8.00000000E-01
  8.00000000E-01  1.50000000E+00  1.50000000E+00  8.00000000E-01  8.00000000E-01
  1.50000000E+00  1.50000000E+00  8.00000000E-01  8.00000000E-01  1.50000000E+00
  1.50000000E+00  8.00000000E-01  8.00000000E-01  1.50000000E+00  1.50000000E+00
  8.00000000E-01  8.00000000E-01  1.50000000E+00  1.50000000E+00  8.00000000E-01
  8.00000000E-01  1.50000000E+00  1.50000000E+00  8.00000000E-01  8.00000000E-01
  1.50000000E+00  1.50000000E+00  8.00000000E-01  8.00000000E-01  1.50000000E+00
  1.50000000E+00  8.00000000E-01  8.00000000E-01  1.50000000E+00  1.50000000E+00
  8.00000000E-01  8.00000000E-01  1.50000000E+00  1.50000000E+00  8.00000000E-01
  8.00000000E-01  1.50000000E+00  1.50000000E+00  8.00000000E-01  8.00000000E-01
  1.50000000E+00  1.50000000E+00  8.00000000E-01  8.00000000E-01  1.50000000E+00
  1.50000000E+00  8.00000000E-01  8.00000000E-01  1.50000000E+00  1.50000000E+00
  8.00000000E-01  8.00000000E-01  1.50000000E+00  1.50000000E+00  8.00000000E-01
  8.00000000E-01  1.50000000E+00  1.50000000E+00  8.00000000E-01  8.00000000E-01
  1.50000000E+00  1.50000000E+00  8.00000000E-01  8.00000000E-01  1.50000000E+00
  1.50000000E+00  8.00000000E-01  8.00000000E-01  1.50000000E+00  1.50000000E+00
  8.00000000E-01  8.00000000E-01  1.50000000E+00  1.50000000E+00  8.00000000E-01
  8.00000000E-01  1.50000000E+00  1.50000000E+00  8.00000000E-01  8.00000000E-01
  1.50000000E+00  1.50000000E+00  8.00000000E-01  8.00000000E-01  1.50000000E+00
  1.50000000E+00  8.00000000E-01  8.00000000E-01  1.50000000E+00  1.50000000E+00
  8.00000000E-01  8.00000000E-01  1.50000000E+00  1.50000000E+00  8.00000000E-01
  8.00000000E-01  1.50000000E+00  1.50000000E+00  8.00000000E-01  8.00000000E-01
  1.50000000E+00  1.50000000E+00  8.00000000E-01  8.00000000E-01  1.50000000E+00
  1.50000000E+00  8.00000000E-01  8.00000000E-01  1.50000000E+00  1.50000000E+00
  8.00000000E-01  8.00000000E-01  1.50000000E+00  1.50000000E+00  8.00000000E-01
  8.00000000E-01  1.50000000E+00  1.50000000E+00  8.00000000E-01  8.00000000E-01
  1.50000000E+00  1.50000000E+00  8.00000000E-01  8.00000000E-01  1.50000000E+00
  1.50000000E+00  8.00000000E-01  8.00000000E-01  1.50000000E+00  1.50000000E+00
  8.00000000E-01  8.00000000E-01  1.50000000E+00  1.50000000E+00  8.00000000E-01
  8.00000000E-01  1.50000000E+00  1.50000000E+00  8.00000000E-01  8.00000000E-01
  1.50000000E+00  1.50000000E+00  8.00000000E-01  8.00000000E-01  1.50000000E+00
  1.50000000E+00  8.00000000E-01  8.00000000E-01  1.50000000E+00  1.50000000E+00
  8.00000000E-01  8.00000000E-01  1.50000000E+00  1.50000000E+00  8.00000000E-01
  8.00000000E-01  1.50000000E+00  1.50000000E+00  8.00000000E-01  8.00000000E-01
  1.50000000E+00  1.50000000E+00  8.00000000E-01  8.00000000E-01  1.50000000E+00
  1.50000000E+00  8.00000000E-01  8.00000000E-01  1.50000000E+00  1.50000000E+00
  8.00000000E-01  8.00000000E-01  1.50000000E+00  1.50000000E+00  8.00000000E-01
  8.00000000E-01  1.50000000E+00  1.50000000E+00  8.00000000E-01  8.00000000E-01
  1.50000000E+00  1.50000000E+00  8.00000000E-01  8.00000000E-01  1.50000000E+00
  1.50000000E+00  8.00000000E-01  8.00000000E-01  1.50000000E+00  1.50000000E+00
  8.00000000E-01  8.00000000E-01  1.50000000E+00  1.50000000E+00  8.00000000E-01
  8.00000000E-01  1.50000000E+00  1.50000000E+00  8.00000000E-01  8.00000000E-01
  1.50000000E+00  1.50000000E+00  8.00000000E-01  8.00000000E-01  1.50000000E+00
  1.50000000E+00  8.00000000E-01  8.00000000E-01  1.50000000E+00  1.50000000E+00
  8.00000000E-01  8.00000000E-01  1.50000000E+00  1.50000000E+00  8.00000000E-01
  8.00000000E-01  1.50000000E+00  1.50000000E+00  8.00000000E-01  8.00000000E-01
  1.50000000E+00  1.50000000E+00  8.00000000E-01  8.00000000E-01  1.50000000E+00
  1.50000000E+00  8.00000000E-01  8.00000000E-01  1.50000000E+00  1.50000000E+00
  8.00000000E-01  8.00000000E-01  1.50000000E+00  1.50000000E+00  8.00000000E-01
  8.00000000E-01  1.50000000E+00  1.50000000E+00  8.00000000E-01  8.00000000E-01
  1.50000000E+00  1.50000000E+00  8.00000000E-01  8.00000000E-01  1.50000000E+00
  1.50000000E+00  8.00000000E-01  8.00000000E-01  1.50000000E+00  1.50000000E+00
  8.00000000E-01  8.00000000E-01  1.50000000E+00  1.50000000E+00  8.00000000E-01
  8.00000000E-01  1.50000000E+00  1.50000000E+00  8.00000000E-01  8.00000000E-01
  1.50000000E+00  1.50000000E+00  8.00000000E-01  8.00000000E-01  1.50000000E+00
  1.50000000E+00  8.00000000E-01  8.00000000E-01  1.50000000E+00  1.50000000E+00
  8.00000000E-01  8.00000000E-01  1.50000000E+00  1.50000000E+00  8.00000000E-01
  8.00000000E-01  1.50000000E+00  1.50000000E+00  8.00000000E-01  8.00000000E-01
  1.50000000E+00  1.50000000E+00  8.00000000E-01  8.00000000E-01  1.50000000E+00
  1.50000000E+00  8.00000000E-01  8.00000000E-01  1.50000000E+00  1.50000000E+00
  8.00000000E-01  8.00000000E-01  1.50000000E+00  1.50000000E+00  8.00000000E-01
  8.00000000E-01  1.50000000E+00  1.50000000E+00  8.00000000E-01  8.00000000E-01
  1.50000000E+00  1.50000000E+00  8.00000000E-01  8.00000000E-01  1.50000000E+00
  1.50000000E+00  8.00000000E-01  8.00000000E-01  1.50000000E+00  1.50000000E+00
  8.00000000E-01  8.00000000E-01  1.50000000E+00  1.50000000E+00  8.00000000E-01
  8.00000000E-01  1.50000000E+00  1.50000000E+00  8.00000000E-01  8.00000000E-01
  1.50000000E+00  1.50000000E+00  8.00000000E-01  8.00000000E-01  1.50000000E+00
  1.50000000E+00  8.00000000E-01  8.00000000E-01  1.50000000E+00  1.50000000E+00
  8.00000000E-01  8.00000000E-01  1.50000000E+00  1.50000000E+00  8.00000000E-01
  8.00000000E-01  1.50000000E+00  1.50000000E+00  8.00000000E-01  8.00000000E-01
  1.50000000E+00  1.50000000E+00  8.00000000E-01  8.00000000E-01  1.50000000E+00
  1.50000000E+00  8.00000000E-01  8.00000000E-01  1.50000000E+00  1.50000000E+00
  8.00000000E-01  8.00000000E-01  1.50000000E+00  1.50000000E+00  8.00000000E-01
  8.00000000E-01  1.50000000E+00  1.50000000E+00  8.00000000E-01  8.00000000E-01
  1.50000000E+00  1.50000000E+00  8.00000000E-01  8.00000000E-01  1.50000000E+00
  1.50000000E+00  8.00000000E-01  8.00000000E-01  1.50000000E+00  1.50000000E+00
  8.00000000E-01  8.00000000E-01  1.50000000E+00  1.50000000E+00  8.00000000E-01
  8.00000000E-01  1.50000000E+00  1.50000000E+00  8.00000000E-01  8.00000000E-01
  1.50000000E+00  1.50000000E+00  8.00000000E-01  8.00000000E-01  1.50000000E+00
  1.50000000E+00  8.00000000E-01  8.00000000E-01  1.50000000E+00  1.50000000E+00
  8.00000000E-01  8.00000000E-01  1.50000000E+00  1.50000000E+00  8.00000000E-01
  8.00000000E-01  1.50000000E+00  1.50000000E+00  8.00000000E-01  8.00000000E-01
  1.50000000E+00  1.50000000E+00  8.00000000E-01  8.00000000E-01  1.50000000E+00
  1.50000000E+00  8.00000000E-01  8.00000000E-01  1.50000000E+00  1.50000000E+00
  8.00000000E-01  8.00000000E-01  1.50000000E+00  1.50000000E+00  8.00000000E-01
  8.00000000E-01  1.50000000E+00  1.50000000E+00  8.00000000E-01  8.00000000E-01
  1.50000000E+00  1.50000000E+00  8.00000000E-01  8.00000000E-01  1.50000000E+00
  1.50000000E+00  8.00000000E-01  8.00000000E-01  1.50000000E+00  1.50000000E+00
  8.00000000E-01  8.00000000E-01  1.50000000E+00  1.50000000E+00  8.00000000E-01
  8.00000000E-01  1.50000000E+00  1.50000000E+00  8.00000000E-01  8.00000000E-01
  1.50000000E+00  1.50000000E+00  8.00000000E-01  8.00000000E-01  1.50000000E+00
  1.50000000E+00  8.00000000E-01  8.00000000E-01  1.50000000E+00  1.50000000E+00
  8.00000000E-01  8.00000000E-01  1.50000000E+00  1.50000000E+00  8.00000000E-01
  8.00000000E-01  1.50000000E+00  1.50000000E+00  8.00000000E-01  8.00000000E-01
  1.50000000E+00  1.50000000E+00  8.00000000E-01  8.00000000E-01  1.50000000E+00
  1.50000000E+00  8.00000000E-01  8.00000000E-01  1.50000000E+00  1.50000000E+00
  8.00000000E-01  8.00000000E-01  1.50000000E+00  1.50000000E+00  8.00000000E-01
  8.00000000E-01  1.50000000E+00  1.50000000E+00  8.00000000E-01  8.00000000E-01
  1.50000000E+00  1.50000000E+00  8.00000000E-01  8.00000000E-01  1.50000000E+00
  1.50000000E+00  8.00000000E-01  8.00000000E-01  1.50000000E+00  1.50000000E+00
  8.00000000E-01  8.00000000E-01  1.50000000E+00  1.50000000E+00  8.00000000E-01
  8.00000000E-01  1.50000000E+00  1.50000000E+00  8.00000000E-01  8.00000000E-01
  1.50000000E+00  1.50000000E+00  8.00000000E-01  8.00000000E-01  1.50000000E+00
  1.50000000E+00  8.00000000E-01  8.00000000E-01  1.50000000E+00  1.50000000E+00
  8.00000000E-01  8.00000000E-01  1.50000000E+00  1.50000000E+00  8.00000000E-01
  8.00000000E-01  1.50000000E+00  1.50000000E+00  8.00000000E-01  8.00000000E-01
  1.50000000E+00  1.50000000E+00  8.00000000E-01  8.00000000E-01  1.50000000E+00
  1.50000000E+00  8.00000000E-01  8.00000000E-01  1.50000000E+00  1.50000000E+00
  8.00000000E-01  8.00000000E-01  1.50000000E+00  1.50000000E+00  8.00000000E-01
  8.00000000E-01  1.50000000E+00  1.50000000E+00  8.00000000E-01  8.00000000E-01
  1.50000000E+00  1.50000000E+00  8.00000000E-01  8.00000000E-01  1.50000000E+00
  1.50000000E+00  8.00000000E-01  8.00000000E-01  1.50000000E+00  1.50000000E+00
  8.00000000E-01  8.00000000E-01  1.50000000E+00  1.50000000E+00  8.00000000E-01
  8.00000000E-01  1.50000000E+00  1.50000000E+00  8.00000000E-01  8.00000000E-01
  1.50000000E+00  1.50000000E+00  8.00000000E-01  8.00000000E-01  1.50000000E+00
  1.50000000E+00  8.00000000E-01  8.00000000E-01  1.50000000E+00  1.50000000E+00
  8.00000000E-01  8.00000000E-01  1.50000000E+00  1.50000000E+00  8.00000000E-01
  8.00000000E-01  1.50000000E+00  1.50000000E+00  8.00000000E-01  8.00000000E-01
  1.50000000E+00  1.50000000E+00  8.00000000E-01  8.00000000E-01  1.50000000E+00
  1.50000000E+00  8.00000000E-01  8.00000000E-01  1.50000000E+00  1.50000000E+00
  8.00000000E-01  8.00000000E-01  1.50000000E+00  1.50000000E+00  8.00000000E-01
  8.00000000E-01  1.50000000E+00  1.50000000E+00  8.00000000E-01  8.00000000E-01
  1.50000000E+00  1.50000000E+00  8.00000000E-01  8.00000000E-01  1.50000000E+00
  1.50000000E+00  8.00000000E-01  8.00000000E-01  1.50000000E+00  1.50000000E+00
  8.00000000E-01  8.00000000E-01  1.50000000E+00  1.50000000E+00  8.00000000E-01
  8.00000000E-01  1.50000000E+00  1.50000000E+00  8.00000000E-01  8.00000000E-01
  1.50000000E+00  1.50000000E+00  8.00000000E-01  8.00000000E-01  1.50000000E+00
  1.50000000E+00  8.00000000E-01  8.00000000E-01  1.50000000E+00  1.50000000E+00
  8.00000000E-01  8.00000000E-01  1.50000000E+00  1.50000000E+00  8.00000000E-01
  8.00000000E-01  1.50000000E+00  1.50000000E+00  8.00000000E-01  8.00000000E-01
  1.50000000E+00  1.50000000E+00  8.00000000E-01  8.00000000E-01  1.50000000E+00
  1.50000000E+00  8.00000000E-01  8.00000000E-01  1.50000000E+00  1.50000000E+00
  8.00000000E-01  8.00000000E-01  1.50000000E+00  1.50000000E+00  8.00000000E-01
  8.00000000E-01  1.50000000E+00  1.50000000E+00  8.00000000E-01  8.00000000E-01
  1.50000000E+00  1.50000000E+00  8.00000000E-01  8.00000000E-01  1.50000000E+00
  1.50000000E+00  8.00000000E-01  8.00000000E-01  1.50000000E+00  1.50000000E+00
  8.00000000E-01  8.00000000E-01  1.50000000E+00  1.50000000E+00  8.00000000E-01
  8.00000000E-01  1.50000000E+00  1.50000000E+00  8.00000000E-01  8.00000000E-01
  1.50000000E+00  1.50000000E+00  8.00000000E-01  8.00000000E-01  1.50000000E+00
  1.50000000E+00  8.00000000E-01  8.00000000E-01  1.50000000E+00  1.50000000E+00
  8.00000000E-01  8.00000000E-01  1.50000000E+00  1.50000000E+00  8.00000000E-01
  8.00000000E-01  1.50000000E+00  1.50000000E+00  8.00000000E-01  8.00000000E-01
  1.50000000E+00  1.50000000E+00  8.00000000E-01  8.00000000E-01  1.50000000E+00
  1.50000000E+00  8.00000000E-01  8.00000000E-01  1.50000000E+00  1.50000000E+00
  8.00000000E-01  8.00000000E-01  1.50000000E+00  1.50000000E+00  8.00000000E-01
  8.00000000E-01  1.50000000E+00  1.50000000E+00  8.00000000E-01  8.00000000E-01
  1.50000000E+00  1.50000000E+00  8.00000000E-01  8.00000000E-01  1.50000000E+00
  1.50000000E+00  8.00000000E-01  8.00000000E-01  1.50000000E+00  1.50000000E+00
  8.00000000E-01  8.00000000E-01  1.50000000E+00  1.50000000E+00  8.00000000E-01
  8.00000000E-01  1.50000000E+00  1.50000000E+00  8.00000000E-01  8.00000000E-01
  1.50000000E+00  1.50000000E+00  8.00000000E-01  8.00000000E-01  1.50000000E+00
  1.50000000E+00  8.00000000E-01  8.00000000E-01  1.50000000E+00  1.50000000E+00
  8.00000000E-01  8.00000000E-01  1.50000000E+00  1.50000000E+00  8.00000000E-01
  8.00000000E-01  1.50000000E+00  1.50000000E+00  8.00000000E-01  8.00000000E-01
  1.50000000E+00  1.50000000E+00  8.00000000E-01  8.00000000E-01  1.50000000E+00
  1.50000000E+00  8.00000000E-01  8.00000000E-01  1.50000000E+00  1.50000000E+00
  8.00000000E-01  8.00000000E-01  1.50000000E+00  1.50000000E+00  8.00000000E-01
  8.00000000E-01  1.50000000E+00  1.50000000E+00  8.00000000E-01  8.00000000E-01
  1.50000000E+00  1.50000000E+00  8.00000000E-01  8.00000000E-01  1.50000000E+00
  1.50000000E+00  8.00000000E-01  8.00000000E-01  1.50000000E+00  1.50000000E+00
  8.00000000E-01  8.00000000E-01  1.50000000E+00  1.50000000E+00  8.00000000E-01
  8.00000000E-01  1.50000000E+00  1.50000000E+00  8.00000000E-01  8.00000000E-01
  1.50000000E+00  1.50000000E+00  8.00000000E-01  8.00000000E-01  1.50000000E+00
  1.50000000E+00  8.00000000E-01  8.00000000E-01  1.50000000E+00  1.50000000E+00
  8.00000000E-01  8.00000000E-01  1.50000000E+00  1.50000000E+00  8.00000000E-01
  8.00000000E-01  1.50000000E+00  1.50000000E+00  8.00000000E-01  8.00000000E-01
  1.50000000E+00  1.50000000E+00  8.00000000E-01  8.00000000E-01  1.50000000E+00
  1.50000000E+00  8.00000000E-01  8.00000000E-01  1.50000000E+00  1.50000000E+00
  8.00000000E-01  8.00000000E-01  1.50000000E+00  1.50000000E+00  8.00000000E-01
  8.00000000E-01  1.50000000E+00  1.50000000E+00  8.00000000E-01  8.00000000E-01
  1.50000000E+00  1.50000000E+00  8.00000000E-01  8.00000000E-01  1.50000000E+00
  1.50000000E+00  8.00000000E-01  8.00000000E-01  1.50000000E+00  1.50000000E+00
  8.00000000E-01  8.00000000E-01  1.50000000E+00  1.50000000E+00  8.00000000E-01
  8.00000000E-01  1.50000000E+00  1.50000000E+00  8.00000000E-01  8.00000000E-01
  1.50000000E+00  1.50000000E+00  8.00000000E-01  8.00000000E-01  1.50000000E+00
  1.50000000E+00  8.00000000E-01  8.00000000E-01  1.50000000E+00  1.50000000E+00
  8.00000000E-01  8.00000000E-01  1.50000000E+00  1.50000000E+00  8.00000000E-01
  8.00000000E-01  1.50000000E+00  1.50000000E+00  8.00000000E-01  8.00000000E-01
  1.50000000E+00  1.50000000E+00  8.00000000E-01  8.00000000E-01  1.50000000E+00
  1.50000000E+00  8.00000000E-01  8.00000000E-01  1.50000000E+00  1.50000000E+00
  8.00000000E-01  8.00000000E-01  1.50000000E+00  1.50000000E+00  8.00000000E-01
  8.00000000E-01  1.50000000E+00  1.50000000E+00  8.00000000E-01  8.00000000E-01
  1.50000000E+00  1.50000000E+00  8.00000000E-01  8.00000000E-01  1.50000000E+00
  1.50000000E+00  8.00000000E-01  8.00000000E-01  1.50000000E+00  1.50000000E+00
  8.00000000E-01  8.00000000E-01  1.50000000E+00  1.50000000E+00  8.00000000E-01
  8.00000000E-01  1.50000000E+00  1.50000000E+00  8.00000000E-01  8.00000000E-01
  1.50000000E+00  1.50000000E+00  8.00000000E-01  8.00000000E-01  1.50000000E+00
  1.50000000E+00  8.00000000E-01  8.00000000E-01  1.50000000E+00  1.50000000E+00
  8.00000000E-01  8.00000000E-01  1.50000000E+00  1.50000000E+00  8.00000000E-01
  8.00000000E-01  1.50000000E+00  1.50000000E+00  8.00000000E-01  8.00000000E-01
  1.50000000E+00  1.50000000E+00  8.00000000E-01  8.00000000E-01  1.50000000E+00
  1.50000000E+00  8.00000000E-01  8.00000000E-01  1.50000000E+00  1.50000000E+00
  8.00000000E-01  8.00000000E-01  1.50000000E+00  1.50000000E+00  8.00000000E-01
  8.00000000E-01  1.50000000E+00  1.50000000E+00  8.00000000E-01  8.00000000E-01
  1.50000000E+00  1.50000000E+00  8.00000000E-01  8.00000000E-01  1.50000000E+00
  1.50000000E+00  8.00000000E-01  8.00000000E-01  1.50000000E+00  1.50000000E+00
  8.00000000E-01  8.00000000E-01  1.50000000E+00  1.50000000E+00  8.00000000E-01
  8.00000000E-01  1.50000000E+00  1.50000000E+00  8.00000000E-01  8.00000000E-01
  1.50000000E+00  1.50000000E+00  8.00000000E-01  8.00000000E-01  1.50000000E+00
  1.50000000E+00  8.00000000E-01  8.00000000E-01  1.50000000E+00  1.50000000E+00
  8.00000000E-01  8.00000000E-01  1.50000000E+00  1.50000000E+00  8.00000000E-01
  8.00000000E-01  1.50000000E+00  1.50000000E+00  8.00000000E-01  8.00000000E-01
  1.50000000E+00  1.50000000E+00  8.00000000E-01  8.00000000E-01  1.50000000E+00
  1.50000000E+00  8.00000000E-01  8.00000000E-01  1.50000000E+00  1.50000000E+00
  8.00000000E-01  8.00000000E-01  1.50000000E+00  1.50000000E+00  8.00000000E-01
  8.00000000E-01  1.50000000E+00  1.50000000E+00  8.00000000E-01  8.00000000E-01
  1.50000000E+00  1.50000000E+00  8.00000000E-01  8.00000000E-01  1.50000000E+00
  1.50000000E+00  8.00000000E-01  8.00000000E-01  1.50000000E+00  1.50000000E+00
  8.00000000E-01  8.00000000E-01  1.50000000E+00  1.50000000E+00  8.00000000E-01
  8.00000000E-01  1.50000000E+00  1.50000000E+00  8.00000000E-01  8.00000000E-01
  1.50000000E+00  1.50000000E+00  8.00000000E-01  8.00000000E-01  1.50000000E+00
  1.50000000E+00  8.00000000E-01  8.00000000E-01  1.50000000E+00  1.50000000E+00
  8.00000000E-01  8.00000000E-01  1.50000000E+00  1.50000000E+00  8.00000000E-01
  8.00000000E-01  1.50000000E+00  1.50000000E+00  8.00000000E-01  8.00000000E-01
  1.50000000E+00  1.50000000E+00  8.00000000E-01  8.00000000E-01  1.50000000E+00
  1.50000000E+00  8.00000000E-01  8.00000000E-01  1.50000000E+00  1.50000000E+00
  8.00000000E-01  8.00000000E-01  1.50000000E+00  1.50000000E+00  8.00000000E-01
  8.00000000E-01  1.50000000E+00  1.50000000E+00  8.00000000E-01  8.00000000E-01
  1.50000000E+00  1.50000000E+00  8.00000000E-01  8.00000000E-01  1.50000000E+00
  1.50000000E+00  8.00000000E-01  8.00000000E-01  1.50000000E+00  1.50000000E+00
  8.00000000E-01  8.00000000E-01  1.50000000E+00  1.50000000E+00  8.00000000E-01
  8.00000000E-01  1.50000000E+00  1.50000000E+00  8.00000000E-01  8.00000000E-01
  1.50000000E+00  1.50000000E+00  8.00000000E-01  8.00000000E-01  1.50000000E+00
  1.50000000E+00  8.00000000E-01  8.00000000E-01  1.50000000E+00  1.50000000E+00
  8.00000000E-01  8.00000000E-01  1.50000000E+00  1.50000000E+00  8.00000000E-01
  8.00000000E-01  1.50000000E+00  1.50000000E+00  8.00000000E-01  8.00000000E-01
  1.50000000E+00  1.50000000E+00  8.00000000E-01  8.00000000E-01  1.50000000E+00
  1.50000000E+00  8.00000000E-01  8.00000000E-01  1.50000000E+00  1.50000000E+00
  8.00000000E-01  8.00000000E-01  1.50000000E+00  1.50000000E+00  8.00000000E-01
  8.00000000E-01  1.50000000E+00  1.50000000E+00  8.00000000E-01  8.00000000E-01
  1.50000000E+00  1.50000000E+00  8.00000000E-01  8.00000000E-01  1.50000000E+00
  1.50000000E+00  8.00000000E-01  8.00000000E-01  1.50000000E+00  1.50000000E+00
  8.00000000E-01  8.00000000E-01  1.50000000E+00  1.50000000E+00  8.00000000E-01
  8.00000000E-01  1.50000000E+00  1.50000000E+00  8.00000000E-01  8.00000000E-01
  1.50000000E+00  1.50000000E+00  8.00000000E-01  8.00000000E-01  1.50000000E+00
  1.50000000E+00  8.00000000E-01  8.00000000E-01  1.50000000E+00  1.50000000E+00
  8.00000000E-01  8.00000000E-01  1.50000000E+00  1.50000000E+00  8.00000000E-01
  8.00000000E-01  1.50000000E+00  1.50000000E+00  8.00000000E-01  8.00000000E-01
  1.50000000E+00  1.50000000E+00  8.00000000E-01  8.00000000E-01  1.50000000E+00
  1.50000000E+00  8.00000000E-01  8.00000000E-01  1.50000000E+00  1.50000000E+00
  8.00000000E-01  8.00000000E-01  1.50000000E+00  1.50000000E+00  8.00000000E-01
  8.00000000E-01  1.50000000E+00  1.50000000E+00  8.00000000E-01  8.00000000E-01
  1.50000000E+00  1.50000000E+00  8.00000000E-01  8.00000000E-01  1.50000000E+00
  1.50000000E+00  8.00000000E-01  8.00000000E-01  1.50000000E+00  1.50000000E+00
  8.00000000E-01  8.00000000E-01  1.50000000E+00  1.50000000E+00  8.00000000E-01
  8.00000000E-01  1.50000000E+00  1.50000000E+00  8.00000000E-01  8.00000000E-01
  1.50000000E+00  1.50000000E+00  8.00000000E-01  8.00000000E-01  1.50000000E+00
  1.50000000E+00  8.00000000E-01  8.00000000E-01  1.50000000E+00  1.50000000E+00
  8.00000000E-01  8.00000000E-01  1.50000000E+00  1.50000000E+00  8.00000000E-01
  8.00000000E-01  1.50000000E+00  1.50000000E+00  8.00000000E-01  8.00000000E-01
  1.50000000E+00  1.50000000E+00  8.00000000E-01  8.00000000E-01  1.50000000E+00
  1.50000000E+00  8.00000000E-01  8.00000000E-01  1.50000000E+00  1.50000000E+00
  8.00000000E-01  8.00000000E-01  1.50000000E+00  1.50000000E+00  8.00000000E-01
  8.00000000E-01  1.50000000E+00  1.50000000E+00  8.00000000E-01  8.00000000E-01
  1.50000000E+00  1.50000000E+00  8.00000000E-01  8.00000000E-01  1.50000000E+00
  1.50000000E+00  8.00000000E-01  8.00000000E-01  1.50000000E+00  1.50000000E+00
  8.00000000E-01  8.00000000E-01  1.50000000E+00  1.50000000E+00  8.00000000E-01
  8.00000000E-01  1.50000000E+00  1.50000000E+00  8.00000000E-01  8.00000000E-01
  1.50000000E+00  1.50000000E+00  8.00000000E-01  8.00000000E-01  1.50000000E+00
  1.50000000E+00  8.00000000E-01  8.00000000E-01  1.50000000E+00  1.50000000E+00
  8.00000000E-01  8.00000000E-01  1.50000000E+00  1.50000000E+00  8.00000000E-01
  8.00000000E-01  1.50000000E+00  1.50000000E+00  8.00000000E-01  8.00000000E-01
  1.50000000E+00  1.50000000E+00  8.00000000E-01  8.00000000E-01  1.50000000E+00
  1.50000000E+00  8.00000000E-01  8.00000000E-01  1.50000000E+00  1.50000000E+00
  8.00000000E-01  8.00000000E-01  1.50000000E+00  1.50000000E+00  8.00000000E-01
  8.00000000E-01  1.50000000E+00  1.50000000E+00  8.00000000E-01  8.00000000E-01
  1.50000000E+00  1.50000000E+00  8.00000000E-01  8.00000000E-01  1.50000000E+00
  1.50000000E+00  8.00000000E-01  8.00000000E-01  1.50000000E+00  1.50000000E+00
  8.00000000E-01  8.00000000E-01  1.50000000E+00  1.50000000E+00  8.00000000E-01
  8.00000000E-01  1.50000000E+00  1.50000000E+00  8.00000000E-01  8.00000000E-01
  1.50000000E+00  1.50000000E+00  8.00000000E-01  8.00000000E-01  1.50000000E+00
  1.50000000E+00  8.00000000E-01  8.00000000E-01  1.50000000E+00  1.50000000E+00
  8.00000000E-01  8.00000000E-01  1.50000000E+00  1.50000000E+00  8.00000000E-01
  8.00000000E-01  1.50000000E+00  1.50000000E+00  8.00000000E-01  8.00000000E-01
  1.50000000E+00  1.50000000E+00  8.00000000E-01  8.00000000E-01  1.50000000E+00
  1.50000000E+00  8.00000000E-01  8.00000000E-01  1.50000000E+00  1.50000000E+00
  8.00000000E-01  8.00000000E-01  1.50000000E+00  1.50000000E+00  8.00000000E-01
  8.00000000E-01  1.50000000E+00  1.50000000E+00  8.00000000E-01  8.00000000E-01
  1.50000000E+00  1.50000000E+00  8.00000000E-01  8.00000000E-01  1.50000000E+00
  1.50000000E+00  8.00000000E-01  8.00000000E-01  1.50000000E+00  1.50000000E+00
  8.00000000E-01  8.00000000E-01  1.50000000E+00  1.50000000E+00  8.00000000E-01
  8.00000000E-01  1.50000000E+00  1.50000000E+00  8.00000000E-01  8.00000000E-01
  1.50000000E+00  1.50000000E+00  8.00000000E-01  8.00000000E-01  1.50000000E+00
  1.50000000E+00  8.00000000E-01  8.00000000E-01  1.50000000E+00  1.50000000E+00
  8.00000000E-01  8.00000000E-01  1.50000000E+00  1.50000000E+00  8.00000000E-01
  8.00000000E-01  1.50000000E+00  1.50000000E+00  8.00000000E-01  8.00000000E-01
  1.50000000E+00  1.50000000E+00  8.00000000E-01  8.00000000E-01  1.50000000E+00
  1.50000000E+00  8.00000000E-01  8.00000000E-01  1.50000000E+00  1.50000000E+00
  8.00000000E-01  8.00000000E-01  1.50000000E+00  1.50000000E+00  8.00000000E-01
  8.00000000E-01  1.50000000E+00  1.50000000E+00  8.00000000E-01  8.00000000E-01
  1.50000000E+00  1.50000000E+00  8.00000000E-01  8.00000000E-01  1.50000000E+00
  1.50000000E+00  8.00000000E-01  8.00000000E-01  1.50000000E+00  1.50000000E+00
  8.00000000E-01  8.00000000E-01  1.50000000E+00  1.50000000E+00  8.00000000E-01
  8.00000000E-01  1.50000000E+00  1.50000000E+00  8.00000000E-01  8.00000000E-01
  1.50000000E+00  1.50000000E+00  8.00000000E-01  8.00000000E-01  1.50000000E+00
  1.50000000E+00  8.00000000E-01  8.00000000E-01  1.50000000E+00  1.50000000E+00
  8.00000000E-01  8.00000000E-01  1.50000000E+00  1.50000000E+00  8.00000000E-01
  8.00000000E-01  1.50000000E+00  1.50000000E+00  8.00000000E-01  8.00000000E-01
  1.50000000E+00  1.50000000E+00  8.00000000E-01  8.00000000E-01  1.50000000E+00
  1.50000000E+00  8.00000000E-01  8.00000000E-01  1.50000000E+00  1.50000000E+00
  8.00000000E-01  8.00000000E-01  1.50000000E+00  1.50000000E+00  8.00000000E-01
  8.00000000E-01  1.50000000E+00  1.50000000E+00  8.00000000E-01  8.00000000E-01
  1.50000000E+00  1.50000000E+00  8.00000000E-01  8.00000000E-01  1.50000000E+00
  1.50000000E+00  8.00000000E-01  8.00000000E-01  1.50000000E+00  1.50000000E+00
  8.00000000E-01  8.00000000E-01  1.50000000E+00  1.50000000E+00  8.00000000E-01
  8.00000000E-01  1.50000000E+00  1.50000000E+00  8.00000000E-01  8.00000000E-01
  1.50000000E+00  1.50000000E+00  8.00000000E-01  8.00000000E-01  1.50000000E+00
  1.50000000E+00  8.00000000E-01  8.00000000E-01  1.50000000E+00  1.50000000E+00
  8.00000000E-01  8.00000000E-01  1.50000000E+00  1.50000000E+00  8.00000000E-01
  8.00000000E-01  1.50000000E+00  1.50000000E+00  8.00000000E-01  8.00000000E-01
  1.50000000E+00  1.50000000E+00  8.00000000E-01  8.00000000E-01  1.50000000E+00
  1.50000000E+00  8.00000000E-01  8.00000000E-01  1.50000000E+00  1.50000000E+00
  8.00000000E-01  8.00000000E-01  1.50000000E+00  1.50000000E+00  8.00000000E-01
  8.00000000E-01  1.50000000E+00  1.50000000E+00  8.00000000E-01  8.00000000E-01
  1.50000000E+00  1.50000000E+00  8.00000000E-01  8.00000000E-01  1.50000000E+00
  1.50000000E+00  8.00000000E-01  8.00000000E-01  1.50000000E+00  1.50000000E+00
  8.00000000E-01  8.00000000E-01  1.50000000E+00  1.50000000E+00  8.00000000E-01
  8.00000000E-01  1.50000000E+00  1.50000000E+00  8.00000000E-01  8.00000000E-01
  1.50000000E+00  1.50000000E+00  8.00000000E-01  8.00000000E-01  1.50000000E+00
  1.50000000E+00  8.00000000E-01  8.00000000E-01  1.50000000E+00  1.50000000E+00
  8.00000000E-01  8.00000000E-01  1.50000000E+00  1.50000000E+00  8.00000000E-01
  8.00000000E-01  1.50000000E+00  1.50000000E+00  8.00000000E-01  8.00000000E-01
  1.50000000E+00  1.50000000E+00  8.00000000E-01  8.00000000E-01  1.50000000E+00
  1.50000000E+00  8.00000000E-01  8.00000000E-01  1.50000000E+00  1.50000000E+00
  8.00000000E-01  8.00000000E-01  1.50000000E+00  1.50000000E+00  8.00000000E-01
  8.00000000E-01  1.50000000E+00  1.50000000E+00  8.00000000E-01  8.00000000E-01
  1.50000000E+00  1.50000000E+00  8.00000000E-01  8.00000000E-01  1.50000000E+00
  1.50000000E+00  8.00000000E-01  8.00000000E-01  1.50000000E+00  1.50000000E+00
  8.00000000E-01  8.00000000E-01  1.50000000E+00  1.50000000E+00  8.00000000E-01
  8.00000000E-01  1.50000000E+00  1.50000000E+00  8.00000000E-01  8.00000000E-01
  1.50000000E+00  1.50000000E+00  8.00000000E-01  8.00000000E-01  1.50000000E+00
  1.50000000E+00  8.00000000E-01  8.00000000E-01  1.50000000E+00  1.50000000E+00
  8.00000000E-01  8.00000000E-01  1.50000000E+00  1.50000000E+00  8.00000000E-01
  8.00000000E-01  1.50000000E+00  1.50000000E+00  8.00000000E-01  8.00000000E-01
  1.50000000E+00  1.50000000E+00  8.00000000E-01  8.00000000E-01  1.50000000E+00
  1.50000000E+00  8.00000000E-01  8.00000000E-01  1.50000000E+00  1.50000000E+00
  8.00000000E-01  8.00000000E-01  1.50000000E+00  1.50000000E+00  8.00000000E-01
  8.00000000E-01  1.50000000E+00  1.50000000E+00  8.00000000E-01  8.00000000E-01
  1.50000000E+00  1.50000000E+00  8.00000000E-01  8.00000000E-01  1.50000000E+00
  1.50000000E+00  8.00000000E-01  8.00000000E-01  1.50000000E+00  1.50000000E+00
  8.00000000E-01  8.00000000E-01  1.50000000E+00  1.50000000E+00  8.00000000E-01
  8.00000000E-01  1.50000000E+00  1.50000000E+00  8.00000000E-01  8.00000000E-01
  1.50000000E+00  1.50000000E+00  8.00000000E-01  8.00000000E-01  1.50000000E+00
  1.50000000E+00  8.00000000E-01  8.00000000E-01  1.50000000E+00  1.50000000E+00
  8.00000000E-01  8.00000000E-01  1.50000000E+00  1.50000000E+00  8.00000000E-01
  8.00000000E-01  1.50000000E+00  1.50000000E+00  8.00000000E-01  8.00000000E-01
  1.50000000E+00  1.50000000E+00  8.00000000E-01  8.00000000E-01  1.50000000E+00
  1.50000000E+00  8.00000000E-01  8.00000000E-01  1.50000000E+00  1.50000000E+00
  8.00000000E-01  8.00000000E-01  1.50000000E+00  1.50000000E+00  8.00000000E-01
  8.00000000E-01  1.50000000E+00  1.50000000E+00  8.00000000E-01  8.00000000E-01
  1.50000000E+00  1.50000000E+00  8.00000000E-01  8.00000000E-01  1.50000000E+00
  1.50000000E+00  8.00000000E-01  8.00000000E-01  1.50000000E+00  1.50000000E+00
  8.00000000E-01  8.00000000E-01  1.50000000E+00  1.50000000E+00  8.00000000E-01
  8.00000000E-01  1.50000000E+00  1.50000000E+00  8.00000000E-01  8.00000000E-01
  1.50000000E+00  1.50000000E+00  8.00000000E-01  8.00000000E-01  1.50000000E+00
  1.50000000E+00  8.00000000E-01  8.00000000E-01  1.50000000E+00  1.50000000E+00
  8.00000000E-01  8.00000000E-01  1.50000000E+00  1.50000000E+00  8.00000000E-01
  8.00000000E-01  1.50000000E+00  1.50000000E+00  8.00000000E-01  8.00000000E-01
  1.50000000E+00  1.50000000E+00  8.00000000E-01  8.00000000E-01  1.50000000E+00
  1.50000000E+00  8.00000000E-01  8.00000000E-01  1.50000000E+00  1.50000000E+00
  8.00000000E-01  8.00000000E-01  1.50000000E+00  1.50000000E+00  8.00000000E-01
  8.00000000E-01  1.50000000E+00  1.50000000E+00  8.00000000E-01  8.00000000E-01
  1.50000000E+00  1.50000000E+00  8.00000000E-01  8.00000000E-01  1.50000000E+00
  1.50000000E+00  8.00000000E-01  8.00000000E-01  1.50000000E+00  1.50000000E+00
  8.00000000E-01  8.00000000E-01  1.50000000E+00  1.50000000E+00  8.00000000E-01
  8.00000000E-01  1.50000000E+00  1.50000000E+00  8.00000000E-01  8.00000000E-01
  1.50000000E+00  1.50000000E+00  8.00000000E-01  8.00000000E-01  1.50000000E+00
  1.50000000E+00  8.00000000E-01  8.00000000E-01  1.50000000E+00  1.50000000E+00
  8.00000000E-01  8.00000000E-01  1.50000000E+00  1.50000000E+00  8.00000000E-01
  8.00000000E-01  1.50000000E+00  1.50000000E+00  8.00000000E-01  8.00000000E-01
  1.50000000E+00  1.50000000E+00  8.00000000E-01  8.00000000E-01  1.50000000E+00
  1.50000000E+00  8.00000000E-01  8.00000000E-01  1.50000000E+00  1.50000000E+00
  8.00000000E-01  8.00000000E-01  1.50000000E+00  1.50000000E+00  8.00000000E-01
  8.00000000E-01  1.50000000E+00  1.50000000E+00  8.00000000E-01  8.00000000E-01
  1.50000000E+00  1.50000000E+00  8.00000000E-01  8.00000000E-01  1.50000000E+00
  1.50000000E+00  8.00000000E-01  8.00000000E-01  1.50000000E+00  1.50000000E+00
  8.00000000E-01  8.00000000E-01  1.50000000E+00  1.50000000E+00  8.00000000E-01
  8.00000000E-01  1.50000000E+00  1.50000000E+00  8.00000000E-01  8.00000000E-01
  1.50000000E+00  1.50000000E+00  8.00000000E-01  8.00000000E-01  1.50000000E+00
  1.50000000E+00  8.00000000E-01  8.00000000E-01  1.50000000E+00  1.50000000E+00
  8.00000000E-01  8.00000000E-01  1.50000000E+00  1.50000000E+00  8.00000000E-01
  8.00000000E-01  1.50000000E+00  1.50000000E+00  8.00000000E-01  8.00000000E-01
  1.50000000E+00  1.50000000E+00  8.00000000E-01  8.00000000E-01  1.50000000E+00
  1.50000000E+00  8.00000000E-01  8.00000000E-01  1.50000000E+00  1.50000000E+00
  8.00000000E-01  8.00000000E-01  1.50000000E+00  1.50000000E+00  8.00000000E-01
  8.00000000E-01  1.50000000E+00  1.50000000E+00  8.00000000E-01  8.00000000E-01
  1.50000000E+00  1.50000000E+00  8.00000000E-01  8.00000000E-01  1.50000000E+00
  1.50000000E+00  8.00000000E-01  8.00000000E-01  1.50000000E+00  1.50000000E+00
  8.00000000E-01  8.00000000E-01  1.50000000E+00  1.50000000E+00  8.00000000E-01
  8.00000000E-01  1.50000000E+00  1.50000000E+00  8.00000000E-01  8.00000000E-01
  1.50000000E+00  1.50000000E+00  8.00000000E-01  8.00000000E-01  1.50000000E+00
  1.50000000E+00  8.00000000E-01  8.00000000E-01  1.50000000E+00  1.50000000E+00
  8.00000000E-01  8.00000000E-01  1.50000000E+00  1.50000000E+00  8.00000000E-01
  8.00000000E-01  1.50000000E+00  1.50000000E+00  8.00000000E-01  8.00000000E-01
  1.50000000E+00  1.50000000E+00  8.00000000E-01  8.00000000E-01  1.50000000E+00
  1.50000000E+00  8.00000000E-01  8.00000000E-01  1.50000000E+00  1.50000000E+00
  8.00000000E-01  8.00000000E-01  1.50000000E+00  1.50000000E+00  8.00000000E-01
  8.00000000E-01  1.50000000E+00  1.50000000E+00  8.00000000E-01  8.00000000E-01
  1.50000000E+00  1.50000000E+00  8.00000000E-01  8.00000000E-01  1.50000000E+00
  1.50000000E+00  8.00000000E-01  8.00000000E-01  1.50000000E+00  1.50000000E+00
  8.00000000E-01  8.00000000E-01  1.50000000E+00  1.50000000E+00  8.00000000E-01
  8.00000000E-01  1.50000000E+00  1.50000000E+00  8.00000000E-01  8.00000000E-01
  1.50000000E+00  1.50000000E+00  8.00000000E-01  8.00000000E-01  1.50000000E+00
  1.50000000E+00  8.00000000E-01  8.00000000E-01  1.50000000E+00  1.50000000E+00
  8.00000000E-01  8.00000000E-01  1.50000000E+00  1.50000000E+00  8.00000000E-01
  8.00000000E-01  1.50000000E+00  1.50000000E+00  8.00000000E-01  8.00000000E-01
  1.50000000E+00  1.50000000E+00  8.00000000E-01  8.00000000E-01  1.50000000E+00
  1.50000000E+00  8.00000000E-01  8.00000000E-01  1.50000000E+00  1.50000000E+00
  8.00000000E-01  8.00000000E-01  1.50000000E+00  1.50000000E+00  8.00000000E-01
  8.00000000E-01  1.50000000E+00  1.50000000E+00  8.00000000E-01  8.00000000E-01
  1.50000000E+00  1.50000000E+00  8.00000000E-01  8.00000000E-01  1.50000000E+00
  1.50000000E+00  8.00000000E-01  8.00000000E-01  1.50000000E+00  1.50000000E+00
  8.00000000E-01  8.00000000E-01  1.50000000E+00  1.50000000E+00  8.00000000E-01
  8.00000000E-01  1.50000000E+00  1.50000000E+00  8.00000000E-01  8.00000000E-01
  1.50000000E+00  1.50000000E+00  8.00000000E-01  8.00000000E-01  1.50000000E+00
  1.50000000E+00  8.00000000E-01  8.00000000E-01  1.50000000E+00  1.50000000E+00
  8.00000000E-01  8.00000000E-01  1.50000000E+00  1.50000000E+00  8.00000000E-01
  8.00000000E-01  1.50000000E+00  1.50000000E+00  8.00000000E-01  8.00000000E-01
  1.50000000E+00  1.50000000E+00  8.00000000E-01  8.00000000E-01  1.50000000E+00
  1.50000000E+00  8.00000000E-01  8.00000000E-01  1.50000000E+00  1.50000000E+00
  8.00000000E-01  8.00000000E-01  1.50000000E+00  1.50000000E+00  8.00000000E-01
  8.00000000E-01  1.50000000E+00  1.50000000E+00  8.00000000E-01  8.00000000E-01
  1.50000000E+00  1.50000000E+00  8.00000000E-01  8.00000000E-01  1.50000000E+00
  1.50000000E+00  8.00000000E-01  8.00000000E-01  1.50000000E+00  1.50000000E+00
  8.00000000E-01  8.00000000E-01  1.50000000E+00  1.50000000E+00  8.00000000E-01
  8.00000000E-01  1.50000000E+00  1.50000000E+00  8.00000000E-01  8.00000000E-01
  1.50000000E+00  1.50000000E+00  8.00000000E-01  8.00000000E-01  1.50000000E+00
  1.50000000E+00  8.00000000E-01  8.00000000E-01  1.50000000E+00  1.50000000E+00
  8.00000000E-01  8.00000000E-01  1.50000000E+00  1.50000000E+00  8.00000000E-01
  8.00000000E-01  1.50000000E+00  1.50000000E+00  8.00000000E-01  8.00000000E-01
  1.50000000E+00  1.50000000E+00  8.00000000E-01  8.00000000E-01  1.50000000E+00
  1.50000000E+00  8.00000000E-01  8.00000000E-01  1.50000000E+00  1.50000000E+00
  8.00000000E-01  8.00000000E-01  1.50000000E+00  1.50000000E+00  8.00000000E-01
  8.00000000E-01  1.50000000E+00  1.50000000E+00  8.00000000E-01  8.00000000E-01
  1.50000000E+00  1.50000000E+00  8.00000000E-01  8.00000000E-01  1.50000000E+00
  1.50000000E+00  8.00000000E-01  8.00000000E-01  1.50000000E+00  1.50000000E+00
  8.00000000E-01  8.00000000E-01  1.50000000E+00  1.50000000E+00  8.00000000E-01
  8.00000000E-01  1.50000000E+00  1.50000000E+00  8.00000000E-01  8.00000000E-01
  1.50000000E+00  1.50000000E+00  8.00000000E-01  8.00000000E-01  1.50000000E+00
  1.50000000E+00  8.00000000E-01  8.00000000E-01  1.50000000E+00  1.50000000E+00
  8.00000000E-01  8.00000000E-01  1.50000000E+00  1.50000000E+00  8.00000000E-01
  8.00000000E-01  1.50000000E+00  1.50000000E+00  8.00000000E-01  8.00000000E-01
  1.50000000E+00  1.50000000E+00  8.00000000E-01  8.00000000E-01  1.50000000E+00
  1.50000000E+00  8.00000000E-01  8.00000000E-01  1.50000000E+00  1.50000000E+00
  8.00000000E-01  8.00000000E-01  1.50000000E+00  1.50000000E+00  8.00000000E-01
  8.00000000E-01  1.50000000E+00  1.50000000E+00  8.00000000E-01  8.00000000E-01
  1.50000000E+00  1.50000000E+00  8.00000000E-01  8.00000000E-01  1.50000000E+00
  1.50000000E+00  8.00000000E-01  8.00000000E-01  1.50000000E+00  1.50000000E+00
  8.00000000E-01  8.00000000E-01  1.50000000E+00  1.50000000E+00  8.00000000E-01
  8.00000000E-01  1.50000000E+00  1.50000000E+00  8.00000000E-01  8.00000000E-01
  1.50000000E+00  1.50000000E+00  8.00000000E-01  8.00000000E-01  1.50000000E+00
  1.50000000E+00  8.00000000E-01  8.00000000E-01  1.50000000E+00  1.50000000E+00
  8.00000000E-01  8.00000000E-01  1.50000000E+00  1.50000000E+00  8.00000000E-01
  8.00000000E-01  1.50000000E+00  1.50000000E+00  8.00000000E-01  8.00000000E-01
  1.50000000E+00  1.50000000E+00  8.00000000E-01  8.00000000E-01  1.50000000E+00
  1.50000000E+00  8.00000000E-01  8.00000000E-01  1.50000000E+00  1.50000000E+00
  8.00000000E-01  8.00000000E-01  1.50000000E+00  1.50000000E+00  8.00000000E-01
  8.00000000E-01  1.50000000E+00  1.50000000E+00  8.00000000E-01  8.00000000E-01
  1.50000000E+00  1.50000000E+00  8.00000000E-01  8.00000000E-01  1.50000000E+00
  1.50000000E+00  8.00000000E-01  8.00000000E-01  1.50000000E+00  1.50000000E+00
  8.00000000E-01  8.00000000E-01  1.50000000E+00  1.50000000E+00  8.00000000E-01
  8.00000000E-01  1.50000000E+00  1.50000000E+00  8.00000000E-01  8.00000000E-01
  1.50000000E+00  1.50000000E+00  8.00000000E-01  8.00000000E-01  1.50000000E+00
  1.50000000E+00  8.00000000E-01  8.00000000E-01  1.50000000E+00  1.50000000E+00
  8.00000000E-01  8.00000000E-01  1.50000000E+00  1.50000000E+00  8.00000000E-01
  8.00000000E-01  1.50000000E+00  1.50000000E+00  8.00000000E-01  8.00000000E-01
  1.50000000E+00  1.50000000E+00  8.00000000E-01  8.00000000E-01  1.50000000E+00
  1.50000000E+00  8.00000000E-01  8.00000000E-01  1.50000000E+00  1.50000000E+00
  8.00000000E-01  8.00000000E-01  1.50000000E+00  1.50000000E+00  8.00000000E-01
  8.00000000E-01  1.50000000E+00  1.50000000E+00  8.00000000E-01  8.00000000E-01
  1.50000000E+00  1.50000000E+00  8.00000000E-01  8.00000000E-01  1.50000000E+00
  1.50000000E+00  8.00000000E-01  8.00000000E-01  1.50000000E+00  1.50000000E+00
  8.00000000E-01  8.00000000E-01  1.50000000E+00  1.50000000E+00  8.00000000E-01
  8.00000000E-01  1.50000000E+00  1.50000000E+00  8.00000000E-01  8.00000000E-01
  1.50000000E+00  1.50000000E+00  8.00000000E-01  8.00000000E-01  1.50000000E+00
  1.50000000E+00  8.00000000E-01  8.00000000E-01  1.50000000E+00  1.50000000E+00
  8.00000000E-01  8.00000000E-01  1.50000000E+00  1.50000000E+00  8.00000000E-01
  8.00000000E-01  1.50000000E+00  1.50000000E+00  8.00000000E-01  8.00000000E-01
  1.50000000E+00  1.50000000E+00  8.00000000E-01  8.00000000E-01  1.50000000E+00
  1.50000000E+00  8.00000000E-01  8.00000000E-01  1.50000000E+00  1.50000000E+00
  8.00000000E-01  8.00000000E-01  1.50000000E+00  1.50000000E+00  8.00000000E-01
  8.00000000E-01  1.50000000E+00  1.50000000E+00  8.00000000E-01  8.00000000E-01
  1.50000000E+00  1.50000000E+00  8.00000000E-01  8.00000000E-01  1.50000000E+00
  1.50000000E+00  8.00000000E-01  8.00000000E-01  1.50000000E+00  1.50000000E+00
  8.00000000E-01  8.00000000E-01  1.50000000E+00  1.50000000E+00  8.00000000E-01
  8.00000000E-01  1.50000000E+00  1.50000000E+00  8.00000000E-01  8.00000000E-01
  1.50000000E+00  1.50000000E+00  8.00000000E-01  8.00000000E-01  1.50000000E+00
  1.50000000E+00  8.00000000E-01  8.00000000E-01  1.50000000E+00  1.50000000E+00
  8.00000000E-01  8.00000000E-01  1.50000000E+00  1.50000000E+00  8.00000000E-01
  8.00000000E-01  1.50000000E+00  1.50000000E+00  8.00000000E-01  8.00000000E-01
  1.50000000E+00  1.50000000E+00  8.00000000E-01  8.00000000E-01  1.50000000E+00
  1.50000000E+00  8.00000000E-01  8.00000000E-01  1.50000000E+00  1.50000000E+00
  8.00000000E-01  8.00000000E-01  1.50000000E+00  1.50000000E+00  8.00000000E-01
  8.00000000E-01  1.50000000E+00  1.50000000E+00  8.00000000E-01  8.00000000E-01
  1.50000000E+00  1.50000000E+00  8.00000000E-01  8.00000000E-01  1.50000000E+00
  1.50000000E+00  8.00000000E-01  8.00000000E-01  1.50000000E+00  1.50000000E+00
  8.00000000E-01  8.00000000E-01  1.50000000E+00  1.50000000E+00  8.00000000E-01
  8.00000000E-01  1.50000000E+00  1.50000000E+00  8.00000000E-01  8.00000000E-01
  1.50000000E+00  1.50000000E+00  8.00000000E-01  8.00000000E-01  1.50000000E+00
  1.50000000E+00  8.00000000E-01  8.00000000E-01  1.50000000E+00  1.50000000E+00
  8.00000000E-01  8.00000000E-01  1.50000000E+00  1.50000000E+00  8.00000000E-01
  8.00000000E-01  1.50000000E+00  1.50000000E+00  8.00000000E-01  8.00000000E-01
  1.50000000E+00  1.50000000E+00  8.00000000E-01  8.00000000E-01  1.50000000E+00
  1.50000000E+00  8.00000000E-01  8.00000000E-01  1.50000000E+00  1.50000000E+00
  8.00000000E-01  8.00000000E-01  1.50000000E+00  1.50000000E+00  8.00000000E-01
  8.00000000E-01  1.50000000E+00  1.50000000E+00  8.00000000E-01  8.00000000E-01
  1.50000000E+00  1.50000000E+00  8.00000000E-01  8.00000000E-01  1.50000000E+00
  1.50000000E+00  8.00000000E-01  8.00000000E-01  1.50000000E+00  1.50000000E+00
  8.00000000E-01  8.00000000E-01  1.50000000E+00  1.50000000E+00  8.00000000E-01
  8.00000000E-01  1.50000000E+00  1.50000000E+00  8.00000000E-01  8.00000000E-01
  1.50000000E+00  1.50000000E+00  8.00000000E-01  8.00000000E-01  1.50000000E+00
  1.50000000E+00  8.00000000E-01  8.00000000E-01  1.50000000E+00  1.50000000E+00
  8.00000000E-01  8.00000000E-01  1.50000000E+00  1.50000000E+00  8.00000000E-01
  8.00000000E-01  1.50000000E+00  1.50000000E+00  8.00000000E-01  8.00000000E-01
  1.50000000E+00  1.50000000E+00  8.00000000E-01  8.00000000E-01  1.50000000E+00
  1.50000000E+00  8.00000000E-01  8.00000000E-01  1.50000000E+00  1.50000000E+00
  8.00000000E-01  8.00000000E-01  1.50000000E+00  1.50000000E+00  8.00000000E-01
  8.00000000E-01  1.50000000E+00  1.50000000E+00  8.00000000E-01  8.00000000E-01
  1.50000000E+00  1.50000000E+00  8.00000000E-01  8.00000000E-01  1.50000000E+00
  1.50000000E+00  8.00000000E-01  8.00000000E-01  1.50000000E+00  1.50000000E+00
  8.00000000E-01  8.00000000E-01  1.50000000E+00  1.50000000E+00  8.00000000E-01
  8.00000000E-01  1.50000000E+00  1.50000000E+00  8.00000000E-01  8.00000000E-01
  1.50000000E+00  1.50000000E+00  8.00000000E-01  8.00000000E-01  1.50000000E+00
  1.50000000E+00  8.00000000E-01  8.00000000E-01  1.50000000E+00  1.50000000E+00
  8.00000000E-01  8.00000000E-01  1.50000000E+00  1.50000000E+00  8.00000000E-01
  8.00000000E-01  1.50000000E+00  1.50000000E+00  8.00000000E-01  8.00000000E-01
  1.50000000E+00  1.50000000E+00  8.00000000E-01  8.00000000E-01  1.50000000E+00
  1.50000000E+00  8.00000000E-01  8.00000000E-01  1.50000000E+00  1.50000000E+00
  8.00000000E-01  8.00000000E-01  1.50000000E+00  1.50000000E+00  8.00000000E-01
  8.00000000E-01  1.50000000E+00  1.50000000E+00  8.00000000E-01  8.00000000E-01
  1.50000000E+00  1.50000000E+00  8.00000000E-01  8.00000000E-01  1.50000000E+00
  1.50000000E+00  8.00000000E-01  8.00000000E-01  1.50000000E+00  1.50000000E+00
  8.00000000E-01  8.00000000E-01  1.50000000E+00  1.50000000E+00  8.00000000E-01
  8.00000000E-01  1.50000000E+00  1.50000000E+00  8.00000000E-01  8.00000000E-01
  1.50000000E+00  1.50000000E+00  8.00000000E-01  8.00000000E-01  1.50000000E+00
  1.50000000E+00  8.00000000E-01  8.00000000E-01  1.50000000E+00  1.50000000E+00
  8.00000000E-01  8.00000000E-01  1.50000000E+00  1.50000000E+00  8.00000000E-01
  8.00000000E-01  1.50000000E+00  1.50000000E+00  8.00000000E-01  8.00000000E-01
  1.50000000E+00  1.50000000E+00  8.00000000E-01  8.00000000E-01  1.50000000E+00
  1.50000000E+00  8.00000000E-01  8.00000000E-01  1.50000000E+00  1.50000000E+00
  8.00000000E-01  8.00000000E-01  1.50000000E+00  1.50000000E+00  8.00000000E-01
  8.00000000E-01  1.50000000E+00  1.50000000E+00  8.00000000E-01  8.00000000E-01
  1.50000000E+00  1.50000000E+00  8.00000000E-01  8.00000000E-01  1.50000000E+00
  1.50000000E+00  8.00000000E-01  8.00000000E-01  1.50000000E+00  1.50000000E+00
  8.00000000E-01  8.00000000E-01  1.50000000E+00  1.50000000E+00  8.00000000E-01
  8.00000000E-01  1.50000000E+00  1.50000000E+00  8.00000000E-01  8.00000000E-01
  1.50000000E+00  1.50000000E+00  8.00000000E-01  8.00000000E-01  1.50000000E+00
  1.50000000E+00  8.00000000E-01  8.00000000E-01  1.50000000E+00  1.50000000E+00
  8.00000000E-01  8.00000000E-01  1.50000000E+00  1.50000000E+00  8.00000000E-01
  8.00000000E-01  1.50000000E+00  1.50000000E+00  8.00000000E-01  8.00000000E-01
  1.50000000E+00  1.50000000E+00  8.00000000E-01  8.00000000E-01  1.50000000E+00
  1.50000000E+00  8.00000000E-01  8.00000000E-01  1.50000000E+00  1.50000000E+00
  8.00000000E-01  8.00000000E-01  1.50000000E+00  1.50000000E+00  8.00000000E-01
  8.00000000E-01  1.50000000E+00  1.50000000E+00  8.00000000E-01  8.00000000E-01
  1.50000000E+00  1.50000000E+00  8.00000000E-01  8.00000000E-01  1.50000000E+00
  1.50000000E+00  8.00000000E-01  8.00000000E-01  1.50000000E+00  1.50000000E+00
  8.00000000E-01  8.00000000E-01  1.50000000E+00  1.50000000E+00  8.00000000E-01
  8.00000000E-01  1.50000000E+00  1.50000000E+00  8.00000000E-01  8.00000000E-01
  1.50000000E+00  1.50000000E+00  8.00000000E-01  8.00000000E-01  1.50000000E+00
  1.50000000E+00  8.00000000E-01  8.00000000E-01  1.50000000E+00  1.50000000E+00
  8.00000000E-01  8.00000000E-01  1.50000000E+00  1.50000000E+00  8.00000000E-01
  8.00000000E-01  1.50000000E+00  1.50000000E+00  8.00000000E-01  8.00000000E-01
  1.50000000E+00  1.50000000E+00  8.00000000E-01  8.00000000E-01  1.50000000E+00
  1.50000000E+00  8.00000000E-01  8.00000000E-01  1.50000000E+00  1.50000000E+00
  8.00000000E-01  8.00000000E-01  1.50000000E+00  1.50000000E+00  8.00000000E-01
  8.00000000E-01  1.50000000E+00  1.50000000E+00  8.00000000E-01  8.00000000E-01
  1.50000000E+00  1.50000000E+00  8.00000000E-01  8.00000000E-01  1.50000000E+00
  1.50000000E+00  8.00000000E-01  8.00000000E-01  1.50000000E+00  1.50000000E+00
  8.00000000E-01  8.00000000E-01  1.50000000E+00  1.50000000E+00  8.00000000E-01
  8.00000000E-01  1.50000000E+00  1.50000000E+00  8.00000000E-01  8.00000000E-01
  1.50000000E+00  1.50000000E+00  8.00000000E-01  8.00000000E-01  1.50000000E+00
  1.50000000E+00  8.00000000E-01  8.00000000E-01  1.50000000E+00  1.50000000E+00
  8.00000000E-01  8.00000000E-01  1.50000000E+00  1.50000000E+00  8.00000000E-01
  8.00000000E-01  1.50000000E+00  1.50000000E+00  8.00000000E-01  8.00000000E-01
  1.50000000E+00  1.50000000E+00  8.00000000E-01  8.00000000E-01  1.50000000E+00
  1.50000000E+00  8.00000000E-01  8.00000000E-01  1.50000000E+00  1.50000000E+00
  8.00000000E-01  8.00000000E-01  1.50000000E+00  1.50000000E+00  8.00000000E-01
  8.00000000E-01  1.50000000E+00  1.50000000E+00  8.00000000E-01  8.00000000E-01
  1.50000000E+00  1.50000000E+00  8.00000000E-01  8.00000000E-01  1.50000000E+00
  1.50000000E+00  8.00000000E-01  8.00000000E-01  1.50000000E+00  1.50000000E+00
  8.00000000E-01  8.00000000E-01  1.50000000E+00  1.50000000E+00  8.00000000E-01
  8.00000000E-01  1.50000000E+00  1.50000000E+00  8.00000000E-01  8.00000000E-01
  1.50000000E+00  1.50000000E+00  8.00000000E-01  8.00000000E-01  1.50000000E+00
  1.50000000E+00  8.00000000E-01  8.00000000E-01  1.50000000E+00  1.50000000E+00
  8.00000000E-01  8.00000000E-01  1.50000000E+00  1.50000000E+00  8.00000000E-01
  8.00000000E-01  1.50000000E+00  1.50000000E+00  8.00000000E-01  8.00000000E-01
  1.50000000E+00  1.50000000E+00  8.00000000E-01  8.00000000E-01  1.50000000E+00
  1.50000000E+00  8.00000000E-01  8.00000000E-01  1.50000000E+00  1.50000000E+00
  8.00000000E-01  8.00000000E-01  1.50000000E+00  1.50000000E+00  8.00000000E-01
  8.00000000E-01  1.50000000E+00  1.50000000E+00  8.00000000E-01  8.00000000E-01
  1.50000000E+00  1.50000000E+00  8.00000000E-01  8.00000000E-01  1.50000000E+00
  1.50000000E+00  8.00000000E-01  8.00000000E-01  1.50000000E+00  1.50000000E+00
  8.00000000E-01  8.00000000E-01  1.50000000E+00  1.50000000E+00  8.00000000E-01
  8.00000000E-01  1.50000000E+00  1.50000000E+00  8.00000000E-01  8.00000000E-01
  1.50000000E+00  1.50000000E+00  8.00000000E-01  8.00000000E-01  1.50000000E+00
  1.50000000E+00  8.00000000E-01  8.00000000E-01  1.50000000E+00  1.50000000E+00
  8.00000000E-01  8.00000000E-01  1.50000000E+00  1.50000000E+00  8.00000000E-01
  8.00000000E-01  1.50000000E+00  1.50000000E+00  8.00000000E-01  8.00000000E-01
  1.50000000E+00  1.50000000E+00  8.00000000E-01  8.00000000E-01  1.50000000E+00
  1.50000000E+00  8.00000000E-01  8.00000000E-01  1.50000000E+00  1.50000000E+00
  8.00000000E-01  8.00000000E-01  1.50000000E+00  1.50000000E+00  8.00000000E-01
  8.00000000E-01  1.50000000E+00  1.50000000E+00  8.00000000E-01  8.00000000E-01
  1.50000000E+00  1.50000000E+00  8.00000000E-01  8.00000000E-01  1.50000000E+00
  1.50000000E+00  8.00000000E-01  8.00000000E-01  1.50000000E+00  1.50000000E+00
  8.00000000E-01  8.00000000E-01  1.50000000E+00  1.50000000E+00  8.00000000E-01
  8.00000000E-01  1.50000000E+00  1.50000000E+00  8.00000000E-01  8.00000000E-01
  1.50000000E+00  1.50000000E+00  8.00000000E-01  8.00000000E-01  1.50000000E+00
  1.50000000E+00  8.00000000E-01  8.00000000E-01  1.50000000E+00  1.50000000E+00
  8.00000000E-01  8.00000000E-01  1.50000000E+00  1.50000000E+00  8.00000000E-01
  8.00000000E-01  1.50000000E+00  1.50000000E+00  8.00000000E-01  8.00000000E-01
  1.50000000E+00  1.50000000E+00  8.00000000E-01  8.00000000E-01  1.50000000E+00
  1.50000000E+00  8.00000000E-01  8.00000000E-01  1.50000000E+00  1.50000000E+00
  8.00000000E-01  8.00000000E-01  1.50000000E+00  1.50000000E+00  8.00000000E-01
  8.00000000E-01  1.50000000E+00  1.50000000E+00  8.00000000E-01  8.00000000E-01
  1.50000000E+00  1.50000000E+00  8.00000000E-01  8.00000000E-01  1.50000000E+00
  1.50000000E+00  8.00000000E-01  8.00000000E-01  1.50000000E+00  1.50000000E+00
  8.00000000E-01  8.00000000E-01  1.50000000E+00  1.50000000E+00  8.00000000E-01
  8.00000000E-01  1.50000000E+00  1.50000000E+00  8.00000000E-01  8.00000000E-01
  1.50000000E+00  1.50000000E+00  8.00000000E-01  8.00000000E-01  1.50000000E+00
  1.50000000E+00  8.00000000E-01  8.00000000E-01  1.50000000E+00  1.50000000E+00
  8.00000000E-01  8.00000000E-01  1.50000000E+00  1.50000000E+00  8.00000000E-01
  8.00000000E-01  1.50000000E+00  1.50000000E+00  8.00000000E-01  8.00000000E-01
  1.50000000E+00  1.50000000E+00  8.00000000E-01  8.00000000E-01  1.50000000E+00
  1.50000000E+00  8.00000000E-01  8.00000000E-01  1.50000000E+00  1.50000000E+00
  8.00000000E-01  8.00000000E-01  1.50000000E+00  1.50000000E+00  8.00000000E-01
  8.00000000E-01  1.50000000E+00  1.50000000E+00  8.00000000E-01  8.00000000E-01
  1.50000000E+00  1.50000000E+00  8.00000000E-01  8.00000000E-01  1.50000000E+00
  1.50000000E+00  8.00000000E-01  8.00000000E-01  1.50000000E+00  1.50000000E+00
  8.00000000E-01  8.00000000E-01  1.50000000E+00  1.50000000E+00  8.00000000E-01
  8.00000000E-01  1.50000000E+00  1.50000000E+00  8.00000000E-01  8.00000000E-01
  1.50000000E+00  1.50000000E+00  8.00000000E-01  8.00000000E-01  1.50000000E+00
  1.50000000E+00  8.00000000E-01  8.00000000E-01  1.50000000E+00  1.50000000E+00
  8.00000000E-01  8.00000000E-01  1.50000000E+00  1.50000000E+00  8.00000000E-01
  8.00000000E-01  1.50000000E+00  1.50000000E+00  8.00000000E-01  8.00000000E-01
  1.50000000E+00  1.50000000E+00  8.00000000E-01  8.00000000E-01  1.50000000E+00
  1.50000000E+00  8.00000000E-01  8.00000000E-01  1.50000000E+00  1.50000000E+00
  8.00000000E-01  8.00000000E-01  1.50000000E+00  1.50000000E+00  8.00000000E-01
  8.00000000E-01  1.50000000E+00  1.50000000E+00  8.00000000E-01  8.00000000E-01
  1.50000000E+00  1.50000000E+00  8.00000000E-01  8.00000000E-01  1.50000000E+00
  1.50000000E+00  8.00000000E-01  8.00000000E-01  1.50000000E+00  1.50000000E+00
  8.00000000E-01  8.00000000E-01  1.50000000E+00  1.50000000E+00  8.00000000E-01
  8.00000000E-01  1.50000000E+00  1.50000000E+00  8.00000000E-01  8.00000000E-01
  1.50000000E+00  1.50000000E+00  8.00000000E-01  8.00000000E-01  1.50000000E+00
  1.50000000E+00  8.00000000E-01  8.00000000E-01  1.50000000E+00  1.50000000E+00
  8.00000000E-01  8.00000000E-01  1.50000000E+00  1.50000000E+00  8.00000000E-01
  8.00000000E-01  1.50000000E+00  1.50000000E+00  8.00000000E-01  8.00000000E-01
  1.50000000E+00  1.50000000E+00  8.00000000E-01  8.00000000E-01  1.50000000E+00
  1.50000000E+00  8.00000000E-01  8.00000000E-01  1.50000000E+00  1.50000000E+00
  8.00000000E-01  8.00000000E-01  1.50000000E+00  1.50000000E+00  8.00000000E-01
  8.00000000E-01  1.50000000E+00  1.50000000E+00  8.00000000E-01  8.00000000E-01
  1.50000000E+00  1.50000000E+00  8.00000000E-01  8.00000000E-01  1.50000000E+00
  1.50000000E+00  8.00000000E-01  8.00000000E-01  1.50000000E+00  1.50000000E+00
  8.00000000E-01  8.00000000E-01  1.50000000E+00  1.50000000E+00  8.00000000E-01
  8.00000000E-01  1.50000000E+00  1.50000000E+00  8.00000000E-01  8.00000000E-01
  1.50000000E+00  1.50000000E+00  8.00000000E-01  8.00000000E-01  1.50000000E+00
  1.50000000E+00  8.00000000E-01  8.00000000E-01  1.50000000E+00  1.50000000E+00
  8.00000000E-01  8.00000000E-01  1.50000000E+00  1.50000000E+00  8.00000000E-01
  8.00000000E-01  1.50000000E+00  1.50000000E+00  8.00000000E-01  8.00000000E-01
  1.50000000E+00  1.50000000E+00  8.00000000E-01  8.00000000E-01  1.50000000E+00
  1.50000000E+00  8.00000000E-01  8.00000000E-01  1.50000000E+00  1.50000000E+00
  8.00000000E-01  8.00000000E-01  1.50000000E+00  1.50000000E+00  8.00000000E-01
  8.00000000E-01  1.50000000E+00  1.50000000E+00  8.00000000E-01  8.00000000E-01
  1.50000000E+00  1.50000000E+00  8.00000000E-01  8.00000000E-01  1.50000000E+00
  1.50000000E+00  8.00000000E-01  8.00000000E-01  1.50000000E+00  1.50000000E+00
  8.00000000E-01  8.00000000E-01  1.50000000E+00  1.50000000E+00  8.00000000E-01
  8.00000000E-01  1.50000000E+00  1.50000000E+00  8.00000000E-01  8.00000000E-01
  1.50000000E+00  1.50000000E+00  8.00000000E-01  8.00000000E-01  1.50000000E+00
  1.50000000E+00  8.00000000E-01  8.00000000E-01  1.50000000E+00  1.50000000E+00
  8.00000000E-01  8.00000000E-01  1.50000000E+00  1.50000000E+00  8.00000000E-01
  8.00000000E-01  1.50000000E+00  1.50000000E+00  8.00000000E-01  8.00000000E-01
  1.50000000E+00  1.50000000E+00  8.00000000E-01  8.00000000E-01  1.50000000E+00
  1.50000000E+00  8.00000000E-01  8.00000000E-01  1.50000000E+00  1.50000000E+00
  8.00000000E-01  8.00000000E-01  1.50000000E+00  1.50000000E+00  8.00000000E-01
  8.00000000E-01  1.50000000E+00  1.50000000E+00  8.00000000E-01  8.00000000E-01
  1.50000000E+00  1.50000000E+00  8.00000000E-01  8.00000000E-01  1.50000000E+00
  1.50000000E+00  8.00000000E-01  8.00000000E-01  1.50000000E+00  1.50000000E+00
  8.00000000E-01  8.00000000E-01  1.50000000E+00  1.50000000E+00  8.00000000E-01
  8.00000000E-01  1.50000000E+00  1.50000000E+00  8.00000000E-01  8.00000000E-01
  1.50000000E+00  1.50000000E+00  8.00000000E-01  8.00000000E-01  1.50000000E+00
  1.50000000E+00  8.00000000E-01  8.00000000E-01  1.50000000E+00  1.50000000E+00
  8.00000000E-01  8.00000000E-01  1.50000000E+00  1.50000000E+00  8.00000000E-01
  8.00000000E-01  1.50000000E+00  1.50000000E+00  8.00000000E-01  8.00000000E-01
  1.50000000E+00  1.50000000E+00  8.00000000E-01  8.00000000E-01  1.50000000E+00
  1.50000000E+00  8.00000000E-01  8.00000000E-01  1.50000000E+00  1.50000000E+00
  8.00000000E-01  8.00000000E-01  1.50000000E+00  1.50000000E+00  8.00000000E-01
  8.00000000E-01  1.50000000E+00  1.50000000E+00  8.00000000E-01  8.00000000E-01
  1.50000000E+00  1.50000000E+00  8.00000000E-01  8.00000000E-01  1.50000000E+00
  1.50000000E+00  8.00000000E-01  8.00000000E-01  1.50000000E+00  1.50000000E+00
  8.00000000E-01  8.00000000E-01  1.50000000E+00  1.50000000E+00  8.00000000E-01
  8.00000000E-01  1.50000000E+00  1.50000000E+00  8.00000000E-01  8.00000000E-01
  1.50000000E+00  1.50000000E+00  8.00000000E-01  8.00000000E-01  1.50000000E+00
  1.50000000E+00  8.00000000E-01  8.00000000E-01  1.50000000E+00  1.50000000E+00
  8.00000000E-01  8.00000000E-01  1.50000000E+00  1.50000000E+00  8.00000000E-01
  8.00000000E-01  1.50000000E+00  1.50000000E+00  8.00000000E-01  8.00000000E-01
  1.50000000E+00  1.50000000E+00  8.00000000E-01  8.00000000E-01  1.50000000E+00
  1.50000000E+00  8.00000000E-01  8.00000000E-01  1.50000000E+00  1.50000000E+00
  8.00000000E-01  8.00000000E-01  1.50000000E+00  1.50000000E+00  8.00000000E-01
  8.00000000E-01  1.50000000E+00  1.50000000E+00  8.00000000E-01  8.00000000E-01
  1.50000000E+00  1.50000000E+00  8.00000000E-01  8.00000000E-01  1.50000000E+00
  1.50000000E+00  8.00000000E-01  8.00000000E-01  1.50000000E+00  1.50000000E+00
  8.00000000E-01  8.00000000E-01  1.50000000E+00  1.50000000E+00  8.00000000E-01
  8.00000000E-01  1.50000000E+00  1.50000000E+00  8.00000000E-01  8.00000000E-01
  1.50000000E+00  1.50000000E+00  8.00000000E-01  8.00000000E-01  1.50000000E+00
  1.50000000E+00  8.00000000E-01  8.00000000E-01  1.50000000E+00  1.50000000E+00
  8.00000000E-01  8.00000000E-01  1.50000000E+00  1.50000000E+00  8.00000000E-01
  8.00000000E-01  1.50000000E+00  1.50000000E+00  8.00000000E-01  8.00000000E-01
  1.50000000E+00  1.50000000E+00  8.00000000E-01  8.00000000E-01  1.50000000E+00
  1.50000000E+00  8.00000000E-01  8.00000000E-01  1.50000000E+00  1.50000000E+00
  8.00000000E-01  8.00000000E-01  1.50000000E+00  1.50000000E+00  8.00000000E-01
  8.00000000E-01  1.50000000E+00  1.50000000E+00  8.00000000E-01  8.00000000E-01
  1.50000000E+00  1.50000000E+00  8.00000000E-01  8.00000000E-01  1.50000000E+00
  1.50000000E+00  8.00000000E-01  8.00000000E-01  1.50000000E+00  1.50000000E+00
  8.00000000E-01  8.00000000E-01  1.50000000E+00  1.50000000E+00  8.00000000E-01
  8.00000000E-01  1.50000000E+00  1.50000000E+00  8.00000000E-01  8.00000000E-01
  1.50000000E+00  1.50000000E+00  8.00000000E-01  8.00000000E-01  1.50000000E+00
  1.50000000E+00  8.00000000E-01  8.00000000E-01  1.50000000E+00  1.50000000E+00
  8.00000000E-01  8.00000000E-01  1.50000000E+00  1.50000000E+00  8.00000000E-01
  8.00000000E-01  1.50000000E+00  1.50000000E+00  8.00000000E-01  8.00000000E-01
  1.50000000E+00  1.50000000E+00  8.00000000E-01  8.00000000E-01  1.50000000E+00
  1.50000000E+00  8.00000000E-01  8.00000000E-01  1.50000000E+00  1.50000000E+00
  8.00000000E-01  8.00000000E-01  1.50000000E+00  1.50000000E+00  8.00000000E-01
  8.00000000E-01  1.50000000E+00  1.50000000E+00  8.00000000E-01  8.00000000E-01
  1.50000000E+00  1.50000000E+00  8.00000000E-01  8.00000000E-01  1.50000000E+00
  1.50000000E+00  8.00000000E-01  8.00000000E-01  1.50000000E+00  1.50000000E+00
  8.00000000E-01  8.00000000E-01  1.50000000E+00  1.50000000E+00  8.00000000E-01
  8.00000000E-01  1.50000000E+00  1.50000000E+00  8.00000000E-01  8.00000000E-01
  1.50000000E+00  1.50000000E+00  8.00000000E-01  8.00000000E-01  1.50000000E+00
  1.50000000E+00  8.00000000E-01  8.00000000E-01  1.50000000E+00  1.50000000E+00
  8.00000000E-01  8.00000000E-01  1.50000000E+00  1.50000000E+00  8.00000000E-01
  8.00000000E-01  1.50000000E+00  1.50000000E+00  8.00000000E-01  8.00000000E-01
  1.50000000E+00  1.50000000E+00  8.00000000E-01  8.00000000E-01  1.50000000E+00
  1.50000000E+00  8.00000000E-01  8.00000000E-01  1.50000000E+00  1.50000000E+00
  8.00000000E-01  8.00000000E-01  1.50000000E+00  1.50000000E+00  8.00000000E-01
  8.00000000E-01  1.50000000E+00  1.50000000E+00  8.00000000E-01  8.00000000E-01
  1.50000000E+00  1.50000000E+00  8.00000000E-01  8.00000000E-01  1.50000000E+00
  1.50000000E+00  8.00000000E-01  8.00000000E-01  1.50000000E+00  1.50000000E+00
  8.00000000E-01  8.00000000E-01  1.50000000E+00  1.50000000E+00  8.00000000E-01
  8.00000000E-01  1.50000000E+00  1.50000000E+00  8.00000000E-01  8.00000000E-01
  1.50000000E+00  1.50000000E+00  8.00000000E-01  8.00000000E-01  1.50000000E+00
  1.50000000E+00  8.00000000E-01  8.00000000E-01  1.50000000E+00  1.50000000E+00
  8.00000000E-01  8.00000000E-01  1.50000000E+00  1.50000000E+00  8.00000000E-01
  8.00000000E-01  1.50000000E+00  1.50000000E+00  8.00000000E-01  8.00000000E-01
  1.50000000E+00  1.50000000E+00  8.00000000E-01  8.00000000E-01  1.50000000E+00
  1.50000000E+00  8.00000000E-01  8.00000000E-01  1.50000000E+00  1.50000000E+00
  8.00000000E-01  8.00000000E-01  1.50000000E+00  1.50000000E+00  8.00000000E-01
  8.00000000E-01  1.50000000E+00  1.50000000E+00  8.00000000E-01  8.00000000E-01
  1.50000000E+00  1.50000000E+00  8.00000000E-01  8.00000000E-01  1.50000000E+00
  1.50000000E+00  8.00000000E-01  8.00000000E-01  1.50000000E+00  1.50000000E+00
  8.00000000E-01  8.00000000E-01  1.50000000E+00  1.50000000E+00  8.00000000E-01
  8.00000000E-01  1.50000000E+00  1.50000000E+00  8.00000000E-01  8.00000000E-01
  1.50000000E+00  1.50000000E+00  8.00000000E-01  8.00000000E-01  1.50000000E+00
  1.50000000E+00  8.00000000E-01  8.00000000E-01  1.50000000E+00  1.50000000E+00
  8.00000000E-01  8.00000000E-01  1.50000000E+00  1.50000000E+00  8.00000000E-01
  8.00000000E-01  1.50000000E+00  1.50000000E+00  8.00000000E-01  8.00000000E-01
  1.50000000E+00  1.50000000E+00  8.00000000E-01  8.00000000E-01  1.50000000E+00
  1.50000000E+00  8.00000000E-01  8.00000000E-01  1.50000000E+00  1.50000000E+00
  8.00000000E-01  8.00000000E-01  1.50000000E+00  1.50000000E+00  8.00000000E-01
  8.00000000E-01  1.50000000E+00  1.50000000E+00  8.00000000E-01  8.00000000E-01
  1.50000000E+00  1.50000000E+00  8.00000000E-01  8.00000000E-01  1.50000000E+00
  1.50000000E+00  8.00000000E-01  8.00000000E-01  1.50000000E+00  1.50000000E+00
  8.00000000E-01  8.00000000E-01  1.50000000E+00  1.50000000E+00  8.00000000E-01
  8.00000000E-01  1.50000000E+00  1.50000000E+00  8.00000000E-01  8.00000000E-01
  1.50000000E+00  1.50000000E+00  8.00000000E-01  8.00000000E-01  1.50000000E+00
  1.50000000E+00  8.00000000E-01  8.00000000E-01  1.50000000E+00  1.50000000E+00
  8.00000000E-01  8.00000000E-01  1.50000000E+00  1.50000000E+00  8.00000000E-01
  8.00000000E-01  1.50000000E+00  1.50000000E+00  8.00000000E-01  8.00000000E-01
  1.50000000E+00  1.50000000E+00  8.00000000E-01  8.00000000E-01  1.50000000E+00
  1.50000000E+00  8.00000000E-01  8.00000000E-01  1.50000000E+00  1.50000000E+00
  8.00000000E-01  8.00000000E-01  1.50000000E+00  1.50000000E+00  8.00000000E-01
  8.00000000E-01  1.50000000E+00  1.50000000E+00  8.00000000E-01  8.00000000E-01
  1.50000000E+00  1.50000000E+00  8.00000000E-01  8.00000000E-01  1.50000000E+00
  1.50000000E+00  8.00000000E-01  8.00000000E-01  1.50000000E+00  1.50000000E+00
  8.00000000E-01  8.00000000E-01  1.50000000E+00  1.50000000E+00  8.00000000E-01
  8.00000000E-01  1.50000000E+00  1.50000000E+00  8.00000000E-01  8.00000000E-01
  1.50000000E+00  1.50000000E+00  8.00000000E-01  8.00000000E-01  1.50000000E+00
  1.50000000E+00  8.00000000E-01  8.00000000E-01  1.50000000E+00  1.50000000E+00
  8.00000000E-01  8.00000000E-01  1.50000000E+00  1.50000000E+00  8.00000000E-01
  8.00000000E-01  1.50000000E+00  1.50000000E+00  8.00000000E-01  8.00000000E-01
  1.50000000E+00  1.50000000E+00  8.00000000E-01  8.00000000E-01  1.50000000E+00
  1.50000000E+00  8.00000000E-01  8.00000000E-01  1.50000000E+00  1.50000000E+00
  8.00000000E-01  8.00000000E-01  1.50000000E+00  1.50000000E+00  8.00000000E-01
  8.00000000E-01  1.50000000E+00  1.50000000E+00  8.00000000E-01  8.00000000E-01
  1.50000000E+00  1.50000000E+00  8.00000000E-01  8.00000000E-01  1.50000000E+00
  1.50000000E+00  8.00000000E-01  8.00000000E-01  1.50000000E+00  1.50000000E+00
  8.00000000E-01  8.00000000E-01  1.50000000E+00  1.50000000E+00  8.00000000E-01
  8.00000000E-01  1.50000000E+00  1.50000000E+00  8.00000000E-01  8.00000000E-01
  1.50000000E+00  1.50000000E+00  8.00000000E-01  8.00000000E-01  1.50000000E+00
  1.50000000E+00  8.00000000E-01  8.00000000E-01  1.50000000E+00  1.50000000E+00
  8.00000000E-01  8.00000000E-01  1.50000000E+00  1.50000000E+00  8.00000000E-01
  8.00000000E-01  1.50000000E+00  1.50000000E+00  8.00000000E-01  8.00000000E-01
  1.50000000E+00  1.50000000E+00  8.00000000E-01  8.00000000E-01  1.50000000E+00
  1.50000000E+00  8.00000000E-01  8.00000000E-01  1.50000000E+00  1.50000000E+00
  8.00000000E-01  8.00000000E-01  1.50000000E+00  1.50000000E+00  8.00000000E-01
  8.00000000E-01  1.50000000E+00  1.50000000E+00  8.00000000E-01  8.00000000E-01
  1.50000000E+00  1.50000000E+00  8.00000000E-01  8.00000000E-01  1.50000000E+00
  1.50000000E+00  8.00000000E-01  8.00000000E-01  1.50000000E+00  1.50000000E+00
  8.00000000E-01  8.00000000E-01  1.50000000E+00  1.50000000E+00  8.00000000E-01
  8.00000000E-01  1.50000000E+00  1.50000000E+00  8.00000000E-01  8.00000000E-01
  1.50000000E+00  1.50000000E+00  8.00000000E-01  8.00000000E-01  1.50000000E+00
  1.50000000E+00  8.00000000E-01  8.00000000E-01  1.50000000E+00  1.50000000E+00
  8.00000000E-01  8.00000000E-01  1.50000000E+00  1.50000000E+00  8.00000000E-01
  8.00000000E-01  1.50000000E+00  1.50000000E+00  8.00000000E-01  8.00000000E-01
  1.50000000E+00  1.50000000E+00  8.00000000E-01  8.00000000E-01  1.50000000E+00
  1.50000000E+00  8.00000000E-01  8.00000000E-01  1.50000000E+00  1.50000000E+00
  8.00000000E-01  8.00000000E-01  1.50000000E+00  1.50000000E+00  8.00000000E-01
  8.00000000E-01  1.50000000E+00  1.50000000E+00  8.00000000E-01  8.00000000E-01
  1.50000000E+00  1.50000000E+00  8.00000000E-01  8.00000000E-01  1.50000000E+00
  1.50000000E+00  8.00000000E-01  8.00000000E-01  1.50000000E+00  1.50000000E+00
  8.00000000E-01  8.00000000E-01  1.50000000E+00  1.50000000E+00  8.00000000E-01
  8.00000000E-01  1.50000000E+00  1.50000000E+00  8.00000000E-01  8.00000000E-01
  1.50000000E+00  1.50000000E+00  8.00000000E-01  8.00000000E-01  1.50000000E+00
  1.50000000E+00  8.00000000E-01  8.00000000E-01  1.50000000E+00  1.50000000E+00
  8.00000000E-01  8.00000000E-01  1.50000000E+00  1.50000000E+00  8.00000000E-01
  8.00000000E-01  1.50000000E+00  1.50000000E+00  8.00000000E-01  8.00000000E-01
  1.50000000E+00  1.50000000E+00  8.00000000E-01  8.00000000E-01  1.50000000E+00
  1.50000000E+00  8.00000000E-01  8.00000000E-01  1.50000000E+00  1.50000000E+00
  8.00000000E-01  8.00000000E-01  1.50000000E+00  1.50000000E+00  8.00000000E-01
  8.00000000E-01  1.50000000E+00  1.50000000E+00  8.00000000E-01  8.00000000E-01
  1.50000000E+00  1.50000000E+00  8.00000000E-01  8.00000000E-01  1.50000000E+00
  1.50000000E+00  8.00000000E-01  8.00000000E-01  1.50000000E+00  1.50000000E+00
  8.00000000E-01  8.00000000E-01  1.50000000E+00  1.50000000E+00  8.00000000E-01
  8.00000000E-01  1.50000000E+00  1.50000000E+00  8.00000000E-01  8.00000000E-01
  1.50000000E+00  1.50000000E+00  8.00000000E-01  8.00000000E-01  1.50000000E+00
  1.50000000E+00  8.00000000E-01  8.00000000E-01  1.50000000E+00  1.50000000E+00
  8.00000000E-01  8.00000000E-01  1.50000000E+00  1.50000000E+00  8.00000000E-01
  8.00000000E-01  1.50000000E+00  1.50000000E+00  8.00000000E-01  8.00000000E-01
  1.50000000E+00  1.50000000E+00  8.00000000E-01  8.00000000E-01  1.50000000E+00
  1.50000000E+00  8.00000000E-01  8.00000000E-01  1.50000000E+00  1.50000000E+00
  8.00000000E-01  8.00000000E-01  1.50000000E+00  1.50000000E+00  8.00000000E-01
  8.00000000E-01  1.50000000E+00  1.50000000E+00  8.00000000E-01  8.00000000E-01
  1.50000000E+00  1.50000000E+00  8.00000000E-01  8.00000000E-01  1.50000000E+00
  1.50000000E+00  8.00000000E-01  8.00000000E-01  1.50000000E+00  1.50000000E+00
  8.00000000E-01  8.00000000E-01  1.50000000E+00  1.50000000E+00  8.00000000E-01
  8.00000000E-01  1.50000000E+00  1.50000000E+00  8.00000000E-01  8.00000000E-01
  1.50000000E+00  1.50000000E+00  8.00000000E-01  8.00000000E-01  1.50000000E+00
  1.50000000E+00  8.00000000E-01  8.00000000E-01  1.50000000E+00  1.50000000E+00
  8.00000000E-01  8.00000000E-01  1.50000000E+00  1.50000000E+00  8.00000000E-01
  8.00000000E-01  1.50000000E+00  1.50000000E+00  8.00000000E-01  8.00000000E-01
  1.50000000E+00  1.50000000E+00  8.00000000E-01  8.00000000E-01  1.50000000E+00
  1.50000000E+00  8.00000000E-01  8.00000000E-01  1.50000000E+00  1.50000000E+00
  8.00000000E-01  8.00000000E-01  1.50000000E+00  1.50000000E+00  8.00000000E-01
  8.00000000E-01  1.50000000E+00  1.50000000E+00  8.00000000E-01  8.00000000E-01
  1.50000000E+00  1.50000000E+00  8.00000000E-01  8.00000000E-01  1.50000000E+00
  1.50000000E+00  8.00000000E-01  8.00000000E-01  1.50000000E+00  1.50000000E+00
  8.00000000E-01  8.00000000E-01  1.50000000E+00  1.50000000E+00  8.00000000E-01
  8.00000000E-01  1.50000000E+00  1.50000000E+00  8.00000000E-01  8.00000000E-01
  1.50000000E+00  1.50000000E+00  8.00000000E-01  8.00000000E-01  1.50000000E+00
  1.50000000E+00  8.00000000E-01  8.00000000E-01  1.50000000E+00  1.50000000E+00
  8.00000000E-01  8.00000000E-01  1.50000000E+00  1.50000000E+00  8.00000000E-01
  8.00000000E-01  1.50000000E+00  1.50000000E+00  8.00000000E-01  8.00000000E-01
  1.50000000E+00  1.50000000E+00  8.00000000E-01  8.00000000E-01  1.50000000E+00
  1.50000000E+00  8.00000000E-01  8.00000000E-01  1.50000000E+00  1.50000000E+00
  8.00000000E-01  8.00000000E-01  1.50000000E+00  1.50000000E+00  8.00000000E-01
  8.00000000E-01  1.50000000E+00  1.50000000E+00  8.00000000E-01  8.00000000E-01
  1.50000000E+00  1.50000000E+00  8.00000000E-01  8.00000000E-01  1.50000000E+00
  1.50000000E+00  8.00000000E-01  8.00000000E-01  1.50000000E+00  1.50000000E+00
  8.00000000E-01  8.00000000E-01  1.50000000E+00  1.50000000E+00  8.00000000E-01
  8.00000000E-01  1.50000000E+00  1.50000000E+00  8.00000000E-01  8.00000000E-01
  1.50000000E+00  1.50000000E+00  8.00000000E-01  8.00000000E-01  1.50000000E+00
  1.50000000E+00  8.00000000E-01  8.00000000E-01  1.50000000E+00  1.50000000E+00
  8.00000000E-01  8.00000000E-01  1.50000000E+00  1.50000000E+00  8.00000000E-01
  8.00000000E-01  1.50000000E+00  1.50000000E+00  8.00000000E-01  8.00000000E-01
  1.50000000E+00  1.50000000E+00  8.00000000E-01  8.00000000E-01  1.50000000E+00
  1.50000000E+00  8.00000000E-01  8.00000000E-01  1.50000000E+00  1.50000000E+00
  8.00000000E-01  8.00000000E-01  1.50000000E+00  1.50000000E+00  8.00000000E-01
  8.00000000E-01  1.50000000E+00  1.50000000E+00  8.00000000E-01  8.00000000E-01
  1.50000000E+00  1.50000000E+00  8.00000000E-01  8.00000000E-01  1.50000000E+00
  1.50000000E+00  8.00000000E-01  8.00000000E-01  1.50000000E+00  1.50000000E+00
  8.00000000E-01  8.00000000E-01  1.50000000E+00  1.50000000E+00  8.00000000E-01
  8.00000000E-01  1.50000000E+00  1.50000000E+00  8.00000000E-01  8.00000000E-01
  1.50000000E+00  1.50000000E+00  8.00000000E-01  8.00000000E-01  1.50000000E+00
  1.50000000E+00  8.00000000E-01  8.00000000E-01  1.50000000E+00  1.50000000E+00
  8.00000000E-01  8.00000000E-01  1.50000000E+00  1.50000000E+00  8.00000000E-01
  8.00000000E-01  1.50000000E+00  1.50000000E+00  8.00000000E-01  8.00000000E-01
  1.50000000E+00  1.50000000E+00  8.00000000E-01  8.00000000E-01  1.50000000E+00
  1.50000000E+00  8.00000000E-01  8.00000000E-01  1.50000000E+00  1.50000000E+00
  8.00000000E-01  8.00000000E-01  1.50000000E+00  1.50000000E+00  8.00000000E-01
  8.00000000E-01  1.50000000E+00  1.50000000E+00  8.00000000E-01  8.00000000E-01
  1.50000000E+00  1.50000000E+00  8.00000000E-01  8.00000000E-01  1.50000000E+00
  1.50000000E+00  8.00000000E-01  8.00000000E-01  1.50000000E+00  1.50000000E+00
  8.00000000E-01  8.00000000E-01  1.50000000E+00  1.50000000E+00  8.00000000E-01
  8.00000000E-01  1.50000000E+00  1.50000000E+00  8.00000000E-01  8.00000000E-01
  1.50000000E+00  1.50000000E+00  8.00000000E-01  8.00000000E-01  1.50000000E+00
  1.50000000E+00  8.00000000E-01  8.00000000E-01  1.50000000E+00  1.50000000E+00
  8.00000000E-01  8.00000000E-01  1.50000000E+00  1.50000000E+00  8.00000000E-01
  8.00000000E-01  1.50000000E+00  1.50000000E+00  8.00000000E-01  8.00000000E-01
  1.50000000E+00  1.50000000E+00  8.00000000E-01  8.00000000E-01  1.50000000E+00
  1.50000000E+00  8.00000000E-01  8.00000000E-01  1.50000000E+00  1.50000000E+00
  8.00000000E-01  8.00000000E-01  1.50000000E+00  1.50000000E+00  8.00000000E-01
  8.00000000E-01  1.50000000E+00  1.50000000E+00  8.00000000E-01  8.00000000E-01
  1.50000000E+00  1.50000000E+00  8.00000000E-01  8.00000000E-01  1.50000000E+00
  1.50000000E+00  8.00000000E-01  8.00000000E-01  1.50000000E+00  1.50000000E+00
  8.00000000E-01  8.00000000E-01  1.50000000E+00  1.50000000E+00  8.00000000E-01
  8.00000000E-01  1.50000000E+00  1.50000000E+00  8.00000000E-01  8.00000000E-01
  1.50000000E+00  1.50000000E+00  8.00000000E-01  8.00000000E-01  1.50000000E+00
  1.50000000E+00  8.00000000E-01  8.00000000E-01  1.50000000E+00  1.50000000E+00
  8.00000000E-01  8.00000000E-01  1.50000000E+00  1.50000000E+00  8.00000000E-01
  8.00000000E-01  1.50000000E+00  1.50000000E+00  8.00000000E-01  8.00000000E-01
  1.50000000E+00  1.50000000E+00  8.00000000E-01  8.00000000E-01  1.50000000E+00
  1.50000000E+00  8.00000000E-01  8.00000000E-01  1.50000000E+00  1.50000000E+00
  8.00000000E-01  8.00000000E-01  1.50000000E+00  1.50000000E+00  8.00000000E-01
  8.00000000E-01  1.50000000E+00  1.50000000E+00  8.00000000E-01  8.00000000E-01
  1.50000000E+00  1.50000000E+00  8.00000000E-01  8.00000000E-01  1.50000000E+00
  1.50000000E+00  8.00000000E-01  8.00000000E-01  1.50000000E+00  1.50000000E+00
  8.00000000E-01  8.00000000E-01  1.50000000E+00  1.50000000E+00  8.00000000E-01
  8.00000000E-01  1.50000000E+00  1.50000000E+00  8.00000000E-01  8.00000000E-01
  1.50000000E+00  1.50000000E+00  8.00000000E-01  8.00000000E-01  1.50000000E+00
  1.50000000E+00  8.00000000E-01  8.00000000E-01  1.50000000E+00  1.50000000E+00
  8.00000000E-01  8.00000000E-01  1.50000000E+00  1.50000000E+00  8.00000000E-01
  8.00000000E-01  1.50000000E+00  1.50000000E+00  8.00000000E-01  8.00000000E-01
  1.50000000E+00  1.50000000E+00  8.00000000E-01  8.00000000E-01  1.50000000E+00
  1.50000000E+00  8.00000000E-01  8.00000000E-01  1.50000000E+00  1.50000000E+00
  8.00000000E-01  8.00000000E-01  1.50000000E+00  1.50000000E+00  8.00000000E-01
  8.00000000E-01  1.50000000E+00  1.50000000E+00  8.00000000E-01  8.00000000E-01
  1.50000000E+00  1.50000000E+00  8.00000000E-01  8.00000000E-01  1.50000000E+00
  1.50000000E+00  8.00000000E-01  8.00000000E-01  1.50000000E+00  1.50000000E+00
  8.00000000E-01  8.00000000E-01  1.50000000E+00  1.50000000E+00  8.00000000E-01
  8.00000000E-01  1.50000000E+00  1.50000000E+00  8.00000000E-01  8.00000000E-01
  1.50000000E+00  1.50000000E+00  8.00000000E-01  8.00000000E-01  1.50000000E+00
  1.50000000E+00  8.00000000E-01  8.00000000E-01  1.50000000E+00  1.50000000E+00
  8.00000000E-01  8.00000000E-01  1.50000000E+00  1.50000000E+00  8.00000000E-01
  8.00000000E-01  1.50000000E+00  1.50000000E+00  8.00000000E-01  8.00000000E-01
  1.50000000E+00  1.50000000E+00  8.00000000E-01  8.00000000E-01  1.50000000E+00
  1.50000000E+00  8.00000000E-01  8.00000000E-01  1.50000000E+00  1.50000000E+00
  8.00000000E-01  8.00000000E-01  1.50000000E+00  1.50000000E+00  8.00000000E-01
  8.00000000E-01  1.50000000E+00  1.50000000E+00  8.00000000E-01  8.00000000E-01
  1.50000000E+00  1.50000000E+00  8.00000000E-01  8.00000000E-01  1.50000000E+00
  1.50000000E+00  8.00000000E-01  8.00000000E-01  1.50000000E+00  1.50000000E+00
  8.00000000E-01  8.00000000E-01  1.50000000E+00  1.50000000E+00  8.00000000E-01
  8.00000000E-01  1.50000000E+00  1.50000000E+00  8.00000000E-01  8.00000000E-01
  1.50000000E+00  1.50000000E+00  8.00000000E-01  8.00000000E-01  1.50000000E+00
  1.50000000E+00  8.00000000E-01  8.00000000E-01  1.50000000E+00  1.50000000E+00
  8.00000000E-01  8.00000000E-01  1.50000000E+00  1.50000000E+00  8.00000000E-01
  8.00000000E-01  1.50000000E+00  1.50000000E+00  8.00000000E-01  8.00000000E-01
  1.50000000E+00  1.50000000E+00  8.00000000E-01  8.00000000E-01  1.50000000E+00
  1.50000000E+00  8.00000000E-01  8.00000000E-01  1.50000000E+00  1.50000000E+00
  8.00000000E-01  8.00000000E-01  1.50000000E+00  1.50000000E+00  8.00000000E-01
  8.00000000E-01  1.50000000E+00  1.50000000E+00  8.00000000E-01  8.00000000E-01
  1.50000000E+00  1.50000000E+00  8.00000000E-01  8.00000000E-01  1.50000000E+00
  1.50000000E+00  8.00000000E-01  8.00000000E-01  1.50000000E+00  1.50000000E+00
  8.00000000E-01  8.00000000E-01  1.50000000E+00  1.50000000E+00  8.00000000E-01
  8.00000000E-01  1.50000000E+00  1.50000000E+00  8.00000000E-01  8.00000000E-01
  1.50000000E+00  1.50000000E+00  8.00000000E-01  8.00000000E-01  1.50000000E+00
  1.50000000E+00  8.00000000E-01  8.00000000E-01  1.50000000E+00  1.50000000E+00
  8.00000000E-01  8.00000000E-01  1.50000000E+00  1.50000000E+00  8.00000000E-01
  8.00000000E-01  1.50000000E+00  1.50000000E+00  8.00000000E-01  8.00000000E-01
  1.50000000E+00  1.50000000E+00  8.00000000E-01  8.00000000E-01  1.50000000E+00
  1.50000000E+00  8.00000000E-01  8.00000000E-01  1.50000000E+00  1.50000000E+00
  8.00000000E-01  8.00000000E-01  1.50000000E+00  1.50000000E+00  8.00000000E-01
  8.00000000E-01  1.50000000E+00  1.50000000E+00  8.00000000E-01  8.00000000E-01
  1.50000000E+00  1.50000000E+00  8.00000000E-01  8.00000000E-01  1.50000000E+00
  1.50000000E+00  8.00000000E-01  8.00000000E-01  1.50000000E+00  1.50000000E+00
  8.00000000E-01  8.00000000E-01  1.50000000E+00  1.50000000E+00  8.00000000E-01
  8.00000000E-01  1.50000000E+00  1.50000000E+00  8.00000000E-01  8.00000000E-01
  1.50000000E+00  1.50000000E+00  8.00000000E-01  8.00000000E-01  1.50000000E+00
  1.50000000E+00  8.00000000E-01  8.00000000E-01  1.50000000E+00  1.50000000E+00
  8.00000000E-01  8.00000000E-01  1.50000000E+00  1.50000000E+00  8.00000000E-01
  8.00000000E-01  1.50000000E+00  1.50000000E+00  8.00000000E-01  8.00000000E-01
  1.50000000E+00  1.50000000E+00  8.00000000E-01  8.00000000E-01  1.50000000E+00
  1.50000000E+00  8.00000000E-01  8.00000000E-01  1.50000000E+00  1.50000000E+00
  8.00000000E-01  8.00000000E-01  1.50000000E+00  1.50000000E+00  8.00000000E-01
  8.00000000E-01  1.50000000E+00  1.50000000E+00  8.00000000E-01  8.00000000E-01
  1.50000000E+00  1.50000000E+00  8.00000000E-01  8.00000000E-01  1.50000000E+00
  1.50000000E+00  8.00000000E-01  8.00000000E-01  1.50000000E+00  1.50000000E+00
  8.00000000E-01  8.00000000E-01  1.50000000E+00  1.50000000E+00  8.00000000E-01
  8.00000000E-01  1.50000000E+00  1.50000000E+00  8.00000000E-01  8.00000000E-01
  1.50000000E+00  1.50000000E+00  8.00000000E-01  8.00000000E-01  1.50000000E+00
  1.50000000E+00  8.00000000E-01  8.00000000E-01  1.50000000E+00  1.50000000E+00
  8.00000000E-01  8.00000000E-01  1.50000000E+00  1.50000000E+00  8.00000000E-01
  8.00000000E-01  1.50000000E+00  1.50000000E+00  8.00000000E-01  8.00000000E-01
  1.50000000E+00  1.50000000E+00  8.00000000E-01  8.00000000E-01  1.50000000E+00
  1.50000000E+00  8.00000000E-01  8.00000000E-01  1.50000000E+00  1.50000000E+00
  8.00000000E-01  8.00000000E-01  1.50000000E+00  1.50000000E+00  8.00000000E-01
  8.00000000E-01  1.50000000E+00  1.50000000E+00  8.00000000E-01  8.00000000E-01
  1.50000000E+00  1.50000000E+00  8.00000000E-01  8.00000000E-01  1.50000000E+00
  1.50000000E+00  8.00000000E-01  8.00000000E-01  1.50000000E+00  1.50000000E+00
  8.00000000E-01  8.00000000E-01  1.50000000E+00  1.50000000E+00  8.00000000E-01
  8.00000000E-01  1.50000000E+00  1.50000000E+00  8.00000000E-01  8.00000000E-01
  1.50000000E+00  1.50000000E+00  8.00000000E-01  8.00000000E-01  1.50000000E+00
  1.50000000E+00  8.00000000E-01  8.00000000E-01  1.50000000E+00  1.50000000E+00
  8.00000000E-01  8.00000000E-01  1.50000000E+00  1.50000000E+00  8.00000000E-01
  8.00000000E-01  1.50000000E+00  1.50000000E+00  8.00000000E-01  8.00000000E-01
  1.50000000E+00  1.50000000E+00  8.00000000E-01  8.00000000E-01  1.50000000E+00
  1.50000000E+00  8.00000000E-01  8.00000000E-01  1.50000000E+00  1.50000000E+00
  8.00000000E-01  8.00000000E-01  1.50000000E+00  1.50000000E+00  8.00000000E-01
  8.00000000E-01  1.50000000E+00  1.50000000E+00  8.00000000E-01  8.00000000E-01
  1.50000000E+00  1.50000000E+00  8.00000000E-01  8.00000000E-01  1.50000000E+00
  1.50000000E+00  8.00000000E-01  8.00000000E-01  1.50000000E+00  1.50000000E+00
  8.00000000E-01  8.00000000E-01  1.50000000E+00  1.50000000E+00  8.00000000E-01
  8.00000000E-01  1.50000000E+00  1.50000000E+00  8.00000000E-01  8.00000000E-01
  1.50000000E+00  1.50000000E+00  8.00000000E-01  8.00000000E-01  1.50000000E+00
  1.50000000E+00  8.00000000E-01  8.00000000E-01  1.50000000E+00  1.50000000E+00
  8.00000000E-01  8.00000000E-01  1.50000000E+00  1.50000000E+00  8.00000000E-01
  8.00000000E-01  1.50000000E+00  1.50000000E+00  8.00000000E-01  8.00000000E-01
  1.50000000E+00  1.50000000E+00  8.00000000E-01  8.00000000E-01  1.50000000E+00
  1.50000000E+00  8.00000000E-01  8.00000000E-01  1.50000000E+00  1.50000000E+00
  8.00000000E-01  8.00000000E-01  1.50000000E+00  1.50000000E+00  8.00000000E-01
  8.00000000E-01  1.50000000E+00  1.50000000E+00  8.00000000E-01  8.00000000E-01
  1.50000000E+00  1.50000000E+00  8.00000000E-01  8.00000000E-01  1.50000000E+00
  1.50000000E+00  8.00000000E-01  8.00000000E-01  1.50000000E+00  1.50000000E+00
  8.00000000E-01  8.00000000E-01  1.50000000E+00  1.50000000E+00  8.00000000E-01
  8.00000000E-01  1.50000000E+00  1.50000000E+00  8.00000000E-01  8.00000000E-01
  1.50000000E+00  1.50000000E+00  8.00000000E-01  8.00000000E-01  1.50000000E+00
  1.50000000E+00  8.00000000E-01  8.00000000E-01  1.50000000E+00  1.50000000E+00
  8.00000000E-01  8.00000000E-01  1.50000000E+00  1.50000000E+00  8.00000000E-01
  8.00000000E-01  1.50000000E+00  1.50000000E+00  8.00000000E-01  8.00000000E-01
  1.50000000E+00  1.50000000E+00  8.00000000E-01  8.00000000E-01  1.50000000E+00
  1.50000000E+00  8.00000000E-01  8.00000000E-01  1.50000000E+00  1.50000000E+00
  8.00000000E-01  8.00000000E-01  1.50000000E+00  1.50000000E+00  8.00000000E-01
  8.00000000E-01  1.50000000E+00  1.50000000E+00  8.00000000E-01  8.00000000E-01
  1.50000000E+00  1.50000000E+00  8.00000000E-01  8.00000000E-01  1.50000000E+00
  1.50000000E+00  8.00000000E-01  8.00000000E-01  1.50000000E+00  1.50000000E+00
  8.00000000E-01  8.00000000E-01  1.50000000E+00  1.50000000E+00  8.00000000E-01
  8.00000000E-01  1.50000000E+00  1.50000000E+00  8.00000000E-01  8.00000000E-01
  1.50000000E+00  1.50000000E+00  8.00000000E-01  8.00000000E-01  1.50000000E+00
  1.50000000E+00  8.00000000E-01  8.00000000E-01  1.50000000E+00  1.50000000E+00
  8.00000000E-01  8.00000000E-01  1.50000000E+00  1.50000000E+00  8.00000000E-01
  8.00000000E-01  1.50000000E+00  1.50000000E+00  8.00000000E-01  8.00000000E-01
  1.50000000E+00  1.50000000E+00  8.00000000E-01  8.00000000E-01  1.50000000E+00
  1.50000000E+00  8.00000000E-01  8.00000000E-01  1.50000000E+00  1.50000000E+00
  8.00000000E-01  8.00000000E-01  1.50000000E+00  1.50000000E+00  8.00000000E-01
  8.00000000E-01  1.50000000E+00  1.50000000E+00  8.00000000E-01  8.00000000E-01
  1.50000000E+00  1.50000000E+00  8.00000000E-01  8.00000000E-01  1.50000000E+00
  1.50000000E+00  8.00000000E-01  8.00000000E-01  1.50000000E+00  1.50000000E+00
  8.00000000E-01  8.00000000E-01  1.50000000E+00  1.50000000E+00  8.00000000E-01
  8.00000000E-01  1.50000000E+00  1.50000000E+00  8.00000000E-01  8.00000000E-01
  1.50000000E+00  1.50000000E+00  8.00000000E-01  8.00000000E-01  1.50000000E+00
  1.50000000E+00  8.00000000E-01  8.00000000E-01  1.50000000E+00  1.50000000E+00
  8.00000000E-01  8.00000000E-01  1.50000000E+00  1.50000000E+00  8.00000000E-01
  8.00000000E-01  1.50000000E+00  1.50000000E+00  8.00000000E-01  8.00000000E-01
  1.50000000E+00  1.50000000E+00  8.00000000E-01  8.00000000E-01  1.50000000E+00
  1.50000000E+00  8.00000000E-01  8.00000000E-01  1.50000000E+00  1.50000000E+00
  8.00000000E-01  8.00000000E-01  1.50000000E+00  1.50000000E+00  8.00000000E-01
  8.00000000E-01  1.50000000E+00  1.50000000E+00  8.00000000E-01  8.00000000E-01
  1.50000000E+00  1.50000000E+00  8.00000000E-01  8.00000000E-01  1.50000000E+00
  1.50000000E+00  8.00000000E-01  8.00000000E-01  1.50000000E+00  1.50000000E+00
  8.00000000E-01  8.00000000E-01  1.50000000E+00  1.50000000E+00  8.00000000E-01
  8.00000000E-01  1.50000000E+00  1.50000000E+00  8.00000000E-01  8.00000000E-01
  1.50000000E+00  1.50000000E+00  8.00000000E-01  8.00000000E-01  1.50000000E+00
  1.50000000E+00  8.00000000E-01  8.00000000E-01  1.50000000E+00  1.50000000E+00
  8.00000000E-01  8.00000000E-01  1.50000000E+00  1.50000000E+00  8.00000000E-01
  8.00000000E-01  1.50000000E+00  1.50000000E+00  8.00000000E-01  8.00000000E-01
  1.50000000E+00  1.50000000E+00  8.00000000E-01  8.00000000E-01  1.50000000E+00
  1.50000000E+00  8.00000000E-01  8.00000000E-01  1.50000000E+00  1.50000000E+00
  8.00000000E-01  8.00000000E-01  1.50000000E+00  1.50000000E+00  8.00000000E-01
  8.00000000E-01  1.50000000E+00  1.50000000E+00  8.00000000E-01  8.00000000E-01
  1.50000000E+00  1.50000000E+00  8.00000000E-01  8.00000000E-01  1.50000000E+00
  1.50000000E+00  8.00000000E-01  8.00000000E-01  1.50000000E+00  1.50000000E+00
  8.00000000E-01  8.00000000E-01  1.50000000E+00  1.50000000E+00  8.00000000E-01
  8.00000000E-01  1.50000000E+00  1.50000000E+00  8.00000000E-01  8.00000000E-01
  1.50000000E+00  1.50000000E+00  8.00000000E-01  8.00000000E-01  1.50000000E+00
  1.50000000E+00  8.00000000E-01  8.00000000E-01  1.50000000E+00  1.50000000E+00
  8.00000000E-01  8.00000000E-01  1.50000000E+00  1.50000000E+00  8.00000000E-01
  8.00000000E-01  1.50000000E+00  1.50000000E+00  8.00000000E-01  8.00000000E-01
  1.50000000E+00  1.50000000E+00  8.00000000E-01  8.00000000E-01  1.50000000E+00
  1.50000000E+00  8.00000000E-01  8.00000000E-01  1.50000000E+00  1.50000000E+00
  8.00000000E-01  8.00000000E-01  1.50000000E+00  1.50000000E+00  8.00000000E-01
  8.00000000E-01  1.50000000E+00  1.50000000E+00  8.00000000E-01  8.00000000E-01
  1.50000000E+00  1.50000000E+00  8.00000000E-01  8.00000000E-01  1.50000000E+00
  1.50000000E+00  8.00000000E-01  8.00000000E-01  1.50000000E+00  1.50000000E+00
  8.00000000E-01  8.00000000E-01  1.50000000E+00  1.50000000E+00  8.00000000E-01
  8.00000000E-01  1.50000000E+00  1.50000000E+00  8.00000000E-01  8.00000000E-01
  1.50000000E+00  1.50000000E+00  8.00000000E-01  8.00000000E-01  1.50000000E+00
  1.50000000E+00  8.00000000E-01  8.00000000E-01  1.50000000E+00  1.50000000E+00
  8.00000000E-01  8.00000000E-01  1.50000000E+00  1.50000000E+00  8.00000000E-01
  8.00000000E-01  1.50000000E+00  1.50000000E+00  8.00000000E-01  8.00000000E-01
  1.50000000E+00  1.50000000E+00  8.00000000E-01  8.00000000E-01  1.50000000E+00
  1.50000000E+00  8.00000000E-01  8.00000000E-01  1.50000000E+00  1.50000000E+00
  8.00000000E-01  8.00000000E-01  1.50000000E+00  1.50000000E+00  8.00000000E-01
  8.00000000E-01  1.50000000E+00  1.50000000E+00  8.00000000E-01  8.00000000E-01
  1.50000000E+00  1.50000000E+00  8.00000000E-01  8.00000000E-01  1.50000000E+00
  1.50000000E+00  8.00000000E-01  8.00000000E-01  1.50000000E+00  1.50000000E+00
  8.00000000E-01  8.00000000E-01  1.50000000E+00  1.50000000E+00  8.00000000E-01
  8.00000000E-01  1.50000000E+00  1.50000000E+00  8.00000000E-01  8.00000000E-01
  1.50000000E+00  1.50000000E+00  8.00000000E-01  8.00000000E-01  1.50000000E+00
  1.50000000E+00  8.00000000E-01  8.00000000E-01  1.50000000E+00  1.50000000E+00
  8.00000000E-01  8.00000000E-01  1.50000000E+00  1.50000000E+00  8.00000000E-01
  8.00000000E-01  1.50000000E+00  1.50000000E+00  8.00000000E-01  8.00000000E-01
  1.50000000E+00  1.50000000E+00  8.00000000E-01  8.00000000E-01  1.50000000E+00
  1.50000000E+00  8.00000000E-01  8.00000000E-01  1.50000000E+00  1.50000000E+00
  8.00000000E-01  8.00000000E-01  1.50000000E+00  1.50000000E+00  8.00000000E-01
  8.00000000E-01  1.50000000E+00  1.50000000E+00  8.00000000E-01  8.00000000E-01
  1.50000000E+00  1.50000000E+00  8.00000000E-01  8.00000000E-01  1.50000000E+00
  1.50000000E+00  8.00000000E-01  8.00000000E-01  1.50000000E+00  1.50000000E+00
  8.00000000E-01  8.00000000E-01  1.50000000E+00  1.50000000E+00  8.00000000E-01
  8.00000000E-01  1.50000000E+00  1.50000000E+00  8.00000000E-01  8.00000000E-01
  1.50000000E+00  1.50000000E+00  8.00000000E-01  8.00000000E-01  1.50000000E+00
  1.50000000E+00  8.00000000E-01  8.00000000E-01  1.50000000E+00  1.50000000E+00
  8.00000000E-01  8.00000000E-01  1.50000000E+00  1.50000000E+00  8.00000000E-01
  8.00000000E-01  1.50000000E+00  1.50000000E+00  8.00000000E-01  8.00000000E-01
  1.50000000E+00  1.50000000E+00  8.00000000E-01  8.00000000E-01  1.50000000E+00
  1.50000000E+00  8.00000000E-01  8.00000000E-01  1.50000000E+00  1.50000000E+00
  8.00000000E-01  8.00000000E-01  1.50000000E+00  1.50000000E+00  8.00000000E-01
  8.00000000E-01  1.50000000E+00  1.50000000E+00  8.00000000E-01  8.00000000E-01
  1.50000000E+00  1.50000000E+00  8.00000000E-01  8.00000000E-01  1.50000000E+00
  1.50000000E+00  8.00000000E-01  8.00000000E-01  1.50000000E+00  1.50000000E+00
  8.00000000E-01  8.00000000E-01  1.50000000E+00  1.50000000E+00  8.00000000E-01
  8.00000000E-01  1.50000000E+00  1.50000000E+00  8.00000000E-01  8.00000000E-01
  1.50000000E+00  1.50000000E+00  8.00000000E-01  8.00000000E-01  1.50000000E+00
  1.50000000E+00  8.00000000E-01  8.00000000E-01  1.50000000E+00  1.50000000E+00
  8.00000000E-01  8.00000000E-01  1.50000000E+00  1.50000000E+00  8.00000000E-01
  8.00000000E-01  1.50000000E+00  1.50000000E+00  8.00000000E-01  8.00000000E-01
  1.50000000E+00  1.50000000E+00  8.00000000E-01  8.00000000E-01  1.50000000E+00
  1.50000000E+00  8.00000000E-01  8.00000000E-01  1.50000000E+00  1.50000000E+00
  8.00000000E-01  8.00000000E-01  1.50000000E+00  1.50000000E+00  8.00000000E-01
  8.00000000E-01  1.50000000E+00  1.50000000E+00  8.00000000E-01  8.00000000E-01
  1.50000000E+00  1.50000000E+00  8.00000000E-01  8.00000000E-01  1.50000000E+00
  1.50000000E+00  8.00000000E-01  8.00000000E-01  1.50000000E+00  1.50000000E+00
  8.00000000E-01  8.00000000E-01  1.50000000E+00  1.50000000E+00  8.00000000E-01
  8.00000000E-01  1.50000000E+00  1.50000000E+00  8.00000000E-01  8.00000000E-01
  1.50000000E+00  1.50000000E+00  8.00000000E-01  8.00000000E-01  1.50000000E+00
  1.50000000E+00  8.00000000E-01  8.00000000E-01  1.50000000E+00  1.50000000E+00
  8.00000000E-01  8.00000000E-01  1.50000000E+00  1.50000000E+00  8.00000000E-01
  8.00000000E-01  1.50000000E+00  1.50000000E+00  8.00000000E-01  8.00000000E-01
  1.50000000E+00  1.50000000E+00  8.00000000E-01  8.00000000E-01  1.50000000E+00
  1.50000000E+00  8.00000000E-01  8.00000000E-01  1.50000000E+00  1.50000000E+00
  8.00000000E-01  8.00000000E-01  1.50000000E+00  1.50000000E+00  8.00000000E-01
  8.00000000E-01  1.50000000E+00  1.50000000E+00  8.00000000E-01  8.00000000E-01
  1.50000000E+00  1.50000000E+00  8.00000000E-01  8.00000000E-01  1.50000000E+00
  1.50000000E+00  8.00000000E-01  8.00000000E-01  1.50000000E+00  1.50000000E+00
  8.00000000E-01  8.00000000E-01  1.50000000E+00  1.50000000E+00  8.00000000E-01
  8.00000000E-01  1.50000000E+00  1.50000000E+00  8.00000000E-01  8.00000000E-01
  1.50000000E+00  1.50000000E+00  8.00000000E-01  8.00000000E-01  1.50000000E+00
  1.50000000E+00  8.00000000E-01  8.00000000E-01  1.50000000E+00  1.50000000E+00
  8.00000000E-01  8.00000000E-01  1.50000000E+00  1.50000000E+00  8.00000000E-01
  8.00000000E-01  1.50000000E+00  1.50000000E+00  8.00000000E-01  8.00000000E-01
  1.50000000E+00  1.50000000E+00  8.00000000E-01  8.00000000E-01  1.50000000E+00
  1.50000000E+00  8.00000000E-01  8.00000000E-01  1.50000000E+00  1.50000000E+00
  8.00000000E-01  8.00000000E-01  1.50000000E+00  1.50000000E+00  8.00000000E-01
  8.00000000E-01  1.50000000E+00  1.50000000E+00  8.00000000E-01  8.00000000E-01
  1.50000000E+00  1.50000000E+00  8.00000000E-01  8.00000000E-01  1.50000000E+00
  1.50000000E+00  8.00000000E-01  8.00000000E-01  1.50000000E+00  1.50000000E+00
  8.00000000E-01  8.00000000E-01  1.50000000E+00  1.50000000E+00  8.00000000E-01
  8.00000000E-01  1.50000000E+00  1.50000000E+00  8.00000000E-01  8.00000000E-01
  1.50000000E+00  1.50000000E+00  8.00000000E-01  8.00000000E-01  1.50000000E+00
  1.50000000E+00  8.00000000E-01  8.00000000E-01  1.50000000E+00  1.50000000E+00
  8.00000000E-01  8.00000000E-01  1.50000000E+00  1.50000000E+00  8.00000000E-01
  8.00000000E-01  1.50000000E+00  1.50000000E+00  8.00000000E-01  8.00000000E-01
  1.50000000E+00  1.50000000E+00  8.00000000E-01  8.00000000E-01  1.50000000E+00
  1.50000000E+00  8.00000000E-01  8.00000000E-01  1.50000000E+00  1.50000000E+00
  8.00000000E-01  8.00000000E-01  1.50000000E+00  1.50000000E+00  8.00000000E-01
  8.00000000E-01  1.50000000E+00  1.50000000E+00  8.00000000E-01  8.00000000E-01
  1.50000000E+00  1.50000000E+00  8.00000000E-01  8.00000000E-01  1.50000000E+00
  1.50000000E+00  8.00000000E-01  8.00000000E-01  1.50000000E+00  1.50000000E+00
  8.00000000E-01  8.00000000E-01  1.50000000E+00  1.50000000E+00  8.00000000E-01
  8.00000000E-01  1.50000000E+00  1.50000000E+00  8.00000000E-01  8.00000000E-01
  1.50000000E+00  1.50000000E+00  8.00000000E-01  8.00000000E-01  1.50000000E+00
  1.50000000E+00  8.00000000E-01  8.00000000E-01  1.50000000E+00  1.50000000E+00
  8.00000000E-01  8.00000000E-01  1.50000000E+00  1.50000000E+00  8.00000000E-01
  8.00000000E-01  1.50000000E+00  1.50000000E+00  8.00000000E-01  8.00000000E-01
  1.50000000E+00  1.50000000E+00  8.00000000E-01  8.00000000E-01  1.50000000E+00
  1.50000000E+00  8.00000000E-01  8.00000000E-01  1.50000000E+00  1.50000000E+00
  8.00000000E-01  8.00000000E-01  1.50000000E+00  1.50000000E+00  8.00000000E-01
  8.00000000E-01  1.50000000E+00  1.50000000E+00  8.00000000E-01  8.00000000E-01
  1.50000000E+00  1.50000000E+00  8.00000000E-01  8.00000000E-01  1.50000000E+00
  1.50000000E+00  8.00000000E-01  8.00000000E-01  1.50000000E+00  1.50000000E+00
  8.00000000E-01  8.00000000E-01  1.50000000E+00  1.50000000E+00  8.00000000E-01
  8.00000000E-01  1.50000000E+00  1.50000000E+00  8.00000000E-01  8.00000000E-01
  1.50000000E+00  1.50000000E+00  8.00000000E-01  8.00000000E-01  1.50000000E+00
  1.50000000E+00  8.00000000E-01  8.00000000E-01  1.50000000E+00  1.50000000E+00
  8.00000000E-01  8.00000000E-01  1.50000000E+00  1.50000000E+00  8.00000000E-01
  8.00000000E-01  1.50000000E+00  1.50000000E+00  8.00000000E-01  8.00000000E-01
  1.50000000E+00  1.50000000E+00  8.00000000E-01  8.00000000E-01  1.50000000E+00
  1.50000000E+00  8.00000000E-01  8.00000000E-01  1.50000000E+00  1.50000000E+00
  8.00000000E-01  8.00000000E-01  1.50000000E+00  1.50000000E+00  8.00000000E-01
  8.00000000E-01  1.50000000E+00  1.50000000E+00  8.00000000E-01  8.00000000E-01
  1.50000000E+00  1.50000000E+00  8.00000000E-01  8.00000000E-01  1.50000000E+00
  1.50000000E+00  8.00000000E-01  8.00000000E-01  1.50000000E+00  1.50000000E+00
  8.00000000E-01  8.00000000E-01  1.50000000E+00  1.50000000E+00  8.00000000E-01
  8.00000000E-01  1.50000000E+00  1.50000000E+00  8.00000000E-01  8.00000000E-01
  1.50000000E+00  1.50000000E+00  8.00000000E-01  8.00000000E-01  1.50000000E+00
  1.50000000E+00  8.00000000E-01  8.00000000E-01  1.50000000E+00  1.50000000E+00
  8.00000000E-01  8.00000000E-01  1.50000000E+00  1.50000000E+00  8.00000000E-01
  8.00000000E-01  1.50000000E+00  1.50000000E+00  8.00000000E-01  8.00000000E-01
  1.50000000E+00  1.50000000E+00  8.00000000E-01  8.00000000E-01  1.50000000E+00
  1.50000000E+00  8.00000000E-01  8.00000000E-01  1.50000000E+00  1.50000000E+00
  8.00000000E-01  8.00000000E-01  1.50000000E+00  1.50000000E+00  8.00000000E-01
  8.00000000E-01  1.50000000E+00  1.50000000E+00  8.00000000E-01  8.00000000E-01
  1.50000000E+00  1.50000000E+00  8.00000000E-01  8.00000000E-01  1.50000000E+00
  1.50000000E+00  8.00000000E-01  8.00000000E-01  1.50000000E+00  1.50000000E+00
  8.00000000E-01  8.00000000E-01  1.50000000E+00  1.50000000E+00  8.00000000E-01
  8.00000000E-01  1.50000000E+00  1.50000000E+00  8.00000000E-01  8.00000000E-01
  1.50000000E+00  1.50000000E+00  8.00000000E-01  8.00000000E-01  1.50000000E+00
  1.50000000E+00  8.00000000E-01  8.00000000E-01  1.50000000E+00  1.50000000E+00
  8.00000000E-01  8.00000000E-01  1.50000000E+00  1.50000000E+00  8.00000000E-01
  8.00000000E-01  1.50000000E+00  1.50000000E+00  8.00000000E-01  8.00000000E-01
  1.50000000E+00  1.50000000E+00  8.00000000E-01  8.00000000E-01  1.50000000E+00
  1.50000000E+00  8.00000000E-01  8.00000000E-01  1.50000000E+00  1.50000000E+00
  8.00000000E-01  8.00000000E-01  1.50000000E+00  1.50000000E+00  8.00000000E-01
  8.00000000E-01  1.50000000E+00  1.50000000E+00  8.00000000E-01  8.00000000E-01
  1.50000000E+00  1.50000000E+00  8.00000000E-01  8.00000000E-01  1.50000000E+00
  1.50000000E+00  8.00000000E-01  8.00000000E-01  1.50000000E+00  1.50000000E+00
  8.00000000E-01  8.00000000E-01  1.50000000E+00  1.50000000E+00  8.00000000E-01
  8.00000000E-01  1.50000000E+00  1.50000000E+00  8.00000000E-01  8.00000000E-01
  1.50000000E+00  1.50000000E+00  8.00000000E-01  8.00000000E-01  1.50000000E+00
  1.50000000E+00  8.00000000E-01  8.00000000E-01  1.50000000E+00  1.50000000E+00
  8.00000000E-01  8.00000000E-01  1.50000000E+00  1.50000000E+00  8.00000000E-01
  8.00000000E-01  1.50000000E+00  1.50000000E+00  8.00000000E-01  8.00000000E-01
  1.50000000E+00  1.50000000E+00  8.00000000E-01  8.00000000E-01  1.50000000E+00
  1.50000000E+00  8.00000000E-01  8.00000000E-01  1.50000000E+00  1.50000000E+00
  8.00000000E-01  8.00000000E-01  1.50000000E+00  1.50000000E+00  8.00000000E-01
  8.00000000E-01  1.50000000E+00  1.50000000E+00  8.00000000E-01  8.00000000E-01
  1.50000000E+00  1.50000000E+00  8.00000000E-01  8.00000000E-01  1.50000000E+00
  1.50000000E+00  8.00000000E-01  8.00000000E-01  1.50000000E+00  1.50000000E+00
  8.00000000E-01  8.00000000E-01  1.50000000E+00  1.50000000E+00  8.00000000E-01
  8.00000000E-01  1.50000000E+00  1.50000000E+00  8.00000000E-01  8.00000000E-01
  1.50000000E+00  1.50000000E+00  8.00000000E-01  8.00000000E-01  1.50000000E+00
  1.50000000E+00  8.00000000E-01  8.00000000E-01  1.50000000E+00  1.50000000E+00
  8.00000000E-01  8.00000000E-01  1.50000000E+00  1.50000000E+00  8.00000000E-01
  8.00000000E-01  1.50000000E+00  1.50000000E+00  8.00000000E-01  8.00000000E-01
  1.50000000E+00  1.50000000E+00  8.00000000E-01  8.00000000E-01  1.50000000E+00
  1.50000000E+00  8.00000000E-01  8.00000000E-01  1.50000000E+00  1.50000000E+00
  8.00000000E-01  8.00000000E-01  1.50000000E+00  1.50000000E+00  8.00000000E-01
  8.00000000E-01  1.50000000E+00  1.50000000E+00  8.00000000E-01  8.00000000E-01
  1.50000000E+00  1.50000000E+00  8.00000000E-01  8.00000000E-01  1.50000000E+00
  1.50000000E+00  8.00000000E-01  8.00000000E-01  1.50000000E+00  1.50000000E+00
  8.00000000E-01  8.00000000E-01  1.50000000E+00  1.50000000E+00  8.00000000E-01
  8.00000000E-01  1.50000000E+00  1.50000000E+00  8.00000000E-01  8.00000000E-01
  1.50000000E+00  1.50000000E+00  8.00000000E-01  8.00000000E-01  1.50000000E+00
  1.50000000E+00  8.00000000E-01  8.00000000E-01  1.50000000E+00  1.50000000E+00
  8.00000000E-01  8.00000000E-01  1.50000000E+00  1.50000000E+00  8.00000000E-01
  8.00000000E-01  1.50000000E+00  1.50000000E+00  8.00000000E-01  8.00000000E-01
  1.50000000E+00  1.50000000E+00  8.00000000E-01  8.00000000E-01  1.50000000E+00
  1.50000000E+00  8.00000000E-01  8.00000000E-01  1.50000000E+00  1.50000000E+00
  8.00000000E-01  8.00000000E-01  1.50000000E+00  1.50000000E+00  8.00000000E-01
  8.00000000E-01  1.50000000E+00  1.50000000E+00  8.00000000E-01  8.00000000E-01
  1.50000000E+00  1.50000000E+00  8.00000000E-01  8.00000000E-01  1.50000000E+00
  1.50000000E+00  8.00000000E-01  8.00000000E-01  1.50000000E+00  1.50000000E+00
  8.00000000E-01  8.00000000E-01  1.50000000E+00  1.50000000E+00  8.00000000E-01
  8.00000000E-01  1.50000000E+00  1.50000000E+00  8.00000000E-01  8.00000000E-01
  1.50000000E+00  1.50000000E+00  8.00000000E-01  8.00000000E-01  1.50000000E+00
  1.50000000E+00  8.00000000E-01  8.00000000E-01  1.50000000E+00  1.50000000E+00
  8.00000000E-01  8.00000000E-01  1.50000000E+00  1.50000000E+00  8.00000000E-01
  8.00000000E-01  1.50000000E+00  1.50000000E+00  8.00000000E-01  8.00000000E-01
  1.50000000E+00  1.50000000E+00  8.00000000E-01  8.00000000E-01  1.50000000E+00
  1.50000000E+00  8.00000000E-01  8.00000000E-01  1.50000000E+00  1.50000000E+00
  8.00000000E-01  8.00000000E-01  1.50000000E+00  1.50000000E+00  8.00000000E-01
  8.00000000E-01  1.50000000E+00  1.50000000E+00  8.00000000E-01  8.00000000E-01
  1.50000000E+00  1.50000000E+00  8.00000000E-01  8.00000000E-01  1.50000000E+00
  1.50000000E+00  8.00000000E-01  8.00000000E-01  1.50000000E+00  1.50000000E+00
  8.00000000E-01  8.00000000E-01  1.50000000E+00  1.50000000E+00  8.00000000E-01
  8.00000000E-01  1.50000000E+00  1.50000000E+00  8.00000000E-01  8.00000000E-01
  1.50000000E+00  1.50000000E+00  8.00000000E-01  8.00000000E-01  1.50000000E+00
  1.50000000E+00  8.00000000E-01  8.00000000E-01  1.50000000E+00  1.50000000E+00
  8.00000000E-01  8.00000000E-01  1.50000000E+00  1.50000000E+00  8.00000000E-01
  8.00000000E-01  1.50000000E+00  1.50000000E+00  8.00000000E-01  8.00000000E-01
  1.50000000E+00  1.50000000E+00  8.00000000E-01  8.00000000E-01  1.50000000E+00
  1.50000000E+00  8.00000000E-01  8.00000000E-01  1.50000000E+00  1.50000000E+00
  8.00000000E-01  8.00000000E-01  1.50000000E+00  1.50000000E+00  8.00000000E-01
  8.00000000E-01  1.50000000E+00  1.50000000E+00  8.00000000E-01  8.00000000E-01
  1.50000000E+00  1.50000000E+00  8.00000000E-01  8.00000000E-01  1.50000000E+00
  1.50000000E+00  8.00000000E-01  8.00000000E-01  1.50000000E+00  1.50000000E+00
  8.00000000E-01  8.00000000E-01  1.50000000E+00  1.50000000E+00  8.00000000E-01
  8.00000000E-01  1.50000000E+00  1.50000000E+00  8.00000000E-01  8.00000000E-01
  1.50000000E+00  1.50000000E+00  8.00000000E-01  8.00000000E-01  1.50000000E+00
  1.50000000E+00  8.00000000E-01  8.00000000E-01  1.50000000E+00  1.50000000E+00
  8.00000000E-01  8.00000000E-01  1.50000000E+00  1.50000000E+00  8.00000000E-01
  8.00000000E-01  1.50000000E+00  1.50000000E+00  8.00000000E-01  8.00000000E-01
  1.50000000E+00  1.50000000E+00  8.00000000E-01  8.00000000E-01  1.50000000E+00
  1.50000000E+00  8.00000000E-01  8.00000000E-01  1.50000000E+00  1.50000000E+00
  8.00000000E-01  8.00000000E-01  1.50000000E+00  1.50000000E+00  8.00000000E-01
  8.00000000E-01  1.50000000E+00  1.50000000E+00  8.00000000E-01  8.00000000E-01
  1.50000000E+00  1.50000000E+00  8.00000000E-01  8.00000000E-01  1.50000000E+00
  1.50000000E+00  8.00000000E-01  8.00000000E-01  1.50000000E+00  1.50000000E+00
  8.00000000E-01  8.00000000E-01  1.50000000E+00  1.50000000E+00  8.00000000E-01
  8.00000000E-01  1.50000000E+00  1.50000000E+00  8.00000000E-01  8.00000000E-01
  1.50000000E+00  1.50000000E+00  8.00000000E-01  8.00000000E-01  1.50000000E+00
  1.50000000E+00  8.00000000E-01  8.00000000E-01  1.50000000E+00  1.50000000E+00
  8.00000000E-01  8.00000000E-01  1.50000000E+00  1.50000000E+00  8.00000000E-01
  8.00000000E-01  1.50000000E+00  1.50000000E+00  8.00000000E-01  8.00000000E-01
  1.50000000E+00  1.50000000E+00  8.00000000E-01  8.00000000E-01  1.50000000E+00
  1.50000000E+00  8.00000000E-01  8.00000000E-01  1.50000000E+00  1.50000000E+00
  8.00000000E-01  8.00000000E-01  1.50000000E+00  1.50000000E+00  8.00000000E-01
  8.00000000E-01  1.50000000E+00  1.50000000E+00  8.00000000E-01  8.00000000E-01
  1.50000000E+00  1.50000000E+00  8.00000000E-01  8.00000000E-01  1.50000000E+00
  1.50000000E+00  8.00000000E-01  8.00000000E-01  1.50000000E+00  1.50000000E+00
  8.00000000E-01  8.00000000E-01  1.50000000E+00  1.50000000E+00  8.00000000E-01
  8.00000000E-01  1.50000000E+00  1.50000000E+00  8.00000000E-01  8.00000000E-01
  1.50000000E+00  1.50000000E+00  8.00000000E-01  8.00000000E-01  1.50000000E+00
  1.50000000E+00  8.00000000E-01  8.00000000E-01  1.50000000E+00  1.50000000E+00
  8.00000000E-01  8.00000000E-01  1.50000000E+00  1.50000000E+00  8.00000000E-01
  8.00000000E-01  1.50000000E+00  1.50000000E+00  8.00000000E-01  8.00000000E-01
  1.50000000E+00  1.50000000E+00  8.00000000E-01  8.00000000E-01  1.50000000E+00
  1.50000000E+00  8.00000000E-01  8.00000000E-01  1.50000000E+00  1.50000000E+00
  8.00000000E-01  8.00000000E-01  1.50000000E+00  1.50000000E+00  8.00000000E-01
  8.00000000E-01  1.50000000E+00  1.50000000E+00  8.00000000E-01  8.00000000E-01
  1.50000000E+00  1.50000000E+00  8.00000000E-01  8.00000000E-01  1.50000000E+00
  1.50000000E+00  8.00000000E-01  8.00000000E-01  1.50000000E+00  1.50000000E+00
  8.00000000E-01  8.00000000E-01  1.50000000E+00  1.50000000E+00  8.00000000E-01
  8.00000000E-01  1.50000000E+00  1.50000000E+00  8.00000000E-01  8.00000000E-01
  1.50000000E+00  1.50000000E+00  8.00000000E-01  8.00000000E-01  1.50000000E+00
  1.50000000E+00  8.00000000E-01  8.00000000E-01  1.50000000E+00  1.50000000E+00
  8.00000000E-01  8.00000000E-01  1.50000000E+00  1.50000000E+00  8.00000000E-01
  8.00000000E-01  1.50000000E+00  1.50000000E+00  8.00000000E-01  8.00000000E-01
  1.50000000E+00  1.50000000E+00  8.00000000E-01  8.00000000E-01  1.50000000E+00
  1.50000000E+00  8.00000000E-01  8.00000000E-01  1.50000000E+00  1.50000000E+00
  8.00000000E-01  8.00000000E-01  1.50000000E+00  1.50000000E+00  8.00000000E-01
  8.00000000E-01  1.50000000E+00  1.50000000E+00  8.00000000E-01  8.00000000E-01
  1.50000000E+00  1.50000000E+00  8.00000000E-01  8.00000000E-01  1.50000000E+00
  1.50000000E+00  8.00000000E-01  8.00000000E-01  1.50000000E+00  1.50000000E+00
  8.00000000E-01  8.00000000E-01  1.50000000E+00  1.50000000E+00  8.00000000E-01
  8.00000000E-01  1.50000000E+00  1.50000000E+00  8.00000000E-01  8.00000000E-01
  1.50000000E+00  1.50000000E+00  8.00000000E-01  8.00000000E-01  1.50000000E+00
  1.50000000E+00  8.00000000E-01  8.00000000E-01  1.50000000E+00  1.50000000E+00
  8.00000000E-01  8.00000000E-01  1.50000000E+00  1.50000000E+00  8.00000000E-01
  8.00000000E-01  1.50000000E+00  1.50000000E+00  8.00000000E-01  8.00000000E-01
  1.50000000E+00  1.50000000E+00  8.00000000E-01  8.00000000E-01  1.50000000E+00
  1.50000000E+00  8.00000000E-01  8.00000000E-01  1.50000000E+00  1.50000000E+00
  8.00000000E-01  8.00000000E-01  1.50000000E+00  1.50000000E+00  8.00000000E-01
  8.00000000E-01  1.50000000E+00  1.50000000E+00  8.00000000E-01  8.00000000E-01
  1.50000000E+00  1.50000000E+00  8.00000000E-01  8.00000000E-01  1.50000000E+00
  1.50000000E+00  8.00000000E-01  8.00000000E-01  1.50000000E+00  1.50000000E+00
  8.00000000E-01  8.00000000E-01  1.50000000E+00  1.50000000E+00  8.00000000E-01
  8.00000000E-01  1.50000000E+00  1.50000000E+00  8.00000000E-01  8.00000000E-01
  1.50000000E+00  1.50000000E+00  8.00000000E-01  8.00000000E-01  1.50000000E+00
  1.50000000E+00  8.00000000E-01  8.00000000E-01  1.50000000E+00  1.50000000E+00
  8.00000000E-01  8.00000000E-01  1.50000000E+00  1.50000000E+00  8.00000000E-01
  8.00000000E-01  1.50000000E+00  1.50000000E+00  8.00000000E-01  8.00000000E-01
  1.50000000E+00  1.50000000E+00  8.00000000E-01  8.00000000E-01  1.50000000E+00
  1.50000000E+00  8.00000000E-01  8.00000000E-01  1.50000000E+00  1.50000000E+00
  8.00000000E-01  8.00000000E-01  1.50000000E+00  1.50000000E+00  8.00000000E-01
  8.00000000E-01  1.50000000E+00  1.50000000E+00  8.00000000E-01  8.00000000E-01
  1.50000000E+00  1.50000000E+00  8.00000000E-01  8.00000000E-01  1.50000000E+00
  1.50000000E+00  8.00000000E-01  8.00000000E-01  1.50000000E+00  1.50000000E+00
  8.00000000E-01  8.00000000E-01  1.50000000E+00  1.50000000E+00  8.00000000E-01
  8.00000000E-01  1.50000000E+00  1.50000000E+00  8.00000000E-01  8.00000000E-01
  1.50000000E+00  1.50000000E+00  8.00000000E-01  8.00000000E-01  1.50000000E+00
  1.50000000E+00  8.00000000E-01  8.00000000E-01  1.50000000E+00  1.50000000E+00
  8.00000000E-01  8.00000000E-01  1.50000000E+00  1.50000000E+00  8.00000000E-01
  8.00000000E-01  1.50000000E+00  1.50000000E+00  8.00000000E-01  8.00000000E-01
  1.50000000E+00  1.50000000E+00  8.00000000E-01  8.00000000E-01  1.50000000E+00
  1.50000000E+00  8.00000000E-01  8.00000000E-01  1.50000000E+00  1.50000000E+00
  8.00000000E-01  8.00000000E-01  1.50000000E+00  1.50000000E+00  8.00000000E-01
  8.00000000E-01  1.50000000E+00  1.50000000E+00  8.00000000E-01  8.00000000E-01
  1.50000000E+00  1.50000000E+00  8.00000000E-01  8.00000000E-01  1.50000000E+00
  1.50000000E+00  8.00000000E-01  8.00000000E-01  1.50000000E+00  1.50000000E+00
  8.00000000E-01  8.00000000E-01  1.50000000E+00  1.50000000E+00  8.00000000E-01
  8.00000000E-01  1.50000000E+00  1.50000000E+00  8.00000000E-01  8.00000000E-01
  1.50000000E+00  1.50000000E+00  8.00000000E-01  8.00000000E-01  1.50000000E+00
  1.50000000E+00  8.00000000E-01  8.00000000E-01  1.50000000E+00  1.50000000E+00
  8.00000000E-01  8.00000000E-01  1.50000000E+00  1.50000000E+00  8.00000000E-01
  8.00000000E-01  1.50000000E+00  1.50000000E+00  8.00000000E-01  8.00000000E-01
  1.50000000E+00  1.50000000E+00  8.00000000E-01  8.00000000E-01  1.50000000E+00
  1.50000000E+00  8.00000000E-01  8.00000000E-01  1.50000000E+00  1.50000000E+00
  8.00000000E-01  8.00000000E-01  1.50000000E+00  1.50000000E+00  8.00000000E-01
  8.00000000E-01  1.50000000E+00  1.50000000E+00  8.00000000E-01  8.00000000E-01
  1.50000000E+00  1.50000000E+00  8.00000000E-01  8.00000000E-01  1.50000000E+00
  1.50000000E+00  8.00000000E-01  8.00000000E-01  1.50000000E+00  1.50000000E+00
  8.00000000E-01  8.00000000E-01  1.50000000E+00  1.50000000E+00  8.00000000E-01
  8.00000000E-01  1.50000000E+00  1.50000000E+00  8.00000000E-01  8.00000000E-01
  1.50000000E+00  1.50000000E+00  8.00000000E-01  8.00000000E-01  1.50000000E+00
  1.50000000E+00  8.00000000E-01  8.00000000E-01  1.50000000E+00  1.50000000E+00
  8.00000000E-01  8.00000000E-01  1.50000000E+00  1.50000000E+00  8.00000000E-01
  8.00000000E-01  1.50000000E+00  1.50000000E+00  8.00000000E-01  8.00000000E-01
  1.50000000E+00  1.50000000E+00  8.00000000E-01  8.00000000E-01  1.50000000E+00
  1.50000000E+00  8.00000000E-01  8.00000000E-01  1.50000000E+00  1.50000000E+00
  8.00000000E-01  8.00000000E-01  1.50000000E+00  1.50000000E+00  8.00000000E-01
  8.00000000E-01  1.50000000E+00  1.50000000E+00  8.00000000E-01  8.00000000E-01
  1.50000000E+00  1.50000000E+00  8.00000000E-01  8.00000000E-01  1.50000000E+00
  1.50000000E+00  8.00000000E-01  8.00000000E-01  1.50000000E+00  1.50000000E+00
  8.00000000E-01  8.00000000E-01  1.50000000E+00  1.50000000E+00  8.00000000E-01
  8.00000000E-01  1.50000000E+00  1.50000000E+00  8.00000000E-01  8.00000000E-01
  1.50000000E+00  1.50000000E+00  8.00000000E-01  8.00000000E-01  1.50000000E+00
  1.50000000E+00  8.00000000E-01  8.00000000E-01  1.50000000E+00  1.50000000E+00
  8.00000000E-01  8.00000000E-01  1.50000000E+00  1.50000000E+00  8.00000000E-01
  8.00000000E-01  1.50000000E+00  1.50000000E+00  8.00000000E-01  8.00000000E-01
  1.50000000E+00  1.50000000E+00  8.00000000E-01  8.00000000E-01  1.50000000E+00
  1.50000000E+00  8.00000000E-01  8.00000000E-01  1.50000000E+00  1.50000000E+00
  8.00000000E-01  8.00000000E-01  1.50000000E+00  1.50000000E+00  8.00000000E-01
  8.00000000E-01  1.50000000E+00  1.50000000E+00  8.00000000E-01  8.00000000E-01
  1.50000000E+00  1.50000000E+00  8.00000000E-01  8.00000000E-01  1.50000000E+00
  1.50000000E+00  8.00000000E-01  8.00000000E-01  1.50000000E+00  1.50000000E+00
  8.00000000E-01  8.00000000E-01  1.50000000E+00  1.50000000E+00  8.00000000E-01
  8.00000000E-01  1.50000000E+00  1.50000000E+00  8.00000000E-01  8.00000000E-01
  1.50000000E+00  1.50000000E+00  8.00000000E-01  8.00000000E-01  1.50000000E+00
  1.50000000E+00  8.00000000E-01  8.00000000E-01  1.50000000E+00  1.50000000E+00
  8.00000000E-01  8.00000000E-01  1.50000000E+00  1.50000000E+00  8.00000000E-01
  8.00000000E-01  1.50000000E+00  1.50000000E+00  8.00000000E-01  8.00000000E-01
  1.50000000E+00  1.50000000E+00  8.00000000E-01  8.00000000E-01  1.50000000E+00
  1.50000000E+00  8.00000000E-01  8.00000000E-01  1.50000000E+00  1.50000000E+00
  8.00000000E-01  8.00000000E-01  1.50000000E+00  1.50000000E+00  8.00000000E-01
  8.00000000E-01  1.50000000E+00  1.50000000E+00  8.00000000E-01  8.00000000E-01
  1.50000000E+00  1.50000000E+00  8.00000000E-01  8.00000000E-01  1.50000000E+00
  1.50000000E+00  8.00000000E-01  8.00000000E-01  1.50000000E+00  1.50000000E+00
  8.00000000E-01  8.00000000E-01  1.50000000E+00  1.50000000E+00  8.00000000E-01
  8.00000000E-01  1.50000000E+00  1.50000000E+00  8.00000000E-01  8.00000000E-01
  1.50000000E+00  1.50000000E+00  8.00000000E-01  8.00000000E-01  1.50000000E+00
  1.50000000E+00  8.00000000E-01  8.00000000E-01  1.50000000E+00  1.50000000E+00
  8.00000000E-01  8.00000000E-01  1.50000000E+00  1.50000000E+00  8.00000000E-01
  8.00000000E-01  1.50000000E+00  1.50000000E+00  8.00000000E-01  8.00000000E-01
  1.50000000E+00  1.50000000E+00  8.00000000E-01  8.00000000E-01  1.50000000E+00
  1.50000000E+00  8.00000000E-01  8.00000000E-01  1.50000000E+00  1.50000000E+00
  8.00000000E-01  8.00000000E-01  1.50000000E+00  1.50000000E+00  8.00000000E-01
  8.00000000E-01  1.50000000E+00  1.50000000E+00  8.00000000E-01  8.00000000E-01
  1.50000000E+00  1.50000000E+00  8.00000000E-01  8.00000000E-01  1.50000000E+00
  1.50000000E+00  8.00000000E-01  8.00000000E-01  1.50000000E+00  1.50000000E+00
  8.00000000E-01  8.00000000E-01  1.50000000E+00  1.50000000E+00  8.00000000E-01
  8.00000000E-01  1.50000000E+00  1.50000000E+00  8.00000000E-01  8.00000000E-01
  1.50000000E+00  1.50000000E+00  8.00000000E-01  8.00000000E-01  1.50000000E+00
  1.50000000E+00  8.00000000E-01  8.00000000E-01  1.50000000E+00  1.50000000E+00
  8.00000000E-01  8.00000000E-01  1.50000000E+00  1.50000000E+00  8.00000000E-01
  8.00000000E-01  1.50000000E+00  1.50000000E+00  8.00000000E-01  8.00000000E-01
  1.50000000E+00  1.50000000E+00  8.00000000E-01  8.00000000E-01  1.50000000E+00
  1.50000000E+00  8.00000000E-01  8.00000000E-01  1.50000000E+00  1.50000000E+00
  8.00000000E-01  8.00000000E-01  1.50000000E+00  1.50000000E+00  8.00000000E-01
  8.00000000E-01  1.50000000E+00  1.50000000E+00  8.00000000E-01  8.00000000E-01
  1.50000000E+00  1.50000000E+00  8.00000000E-01  8.00000000E-01  1.50000000E+00
  1.50000000E+00  8.00000000E-01  8.00000000E-01  1.50000000E+00  1.50000000E+00
  8.00000000E-01  8.00000000E-01  1.50000000E+00  1.50000000E+00  8.00000000E-01
  8.00000000E-01  1.50000000E+00  1.50000000E+00  8.00000000E-01  8.00000000E-01
  1.50000000E+00  1.50000000E+00  8.00000000E-01  8.00000000E-01  1.50000000E+00
  1.50000000E+00  8.00000000E-01  8.00000000E-01  1.50000000E+00  1.50000000E+00
  8.00000000E-01  8.00000000E-01  1.50000000E+00  1.50000000E+00  8.00000000E-01
  8.00000000E-01  1.50000000E+00  1.50000000E+00  8.00000000E-01  8.00000000E-01
  1.50000000E+00  1.50000000E+00  8.00000000E-01  8.00000000E-01  1.50000000E+00
  1.50000000E+00  8.00000000E-01  8.00000000E-01  1.50000000E+00  1.50000000E+00
  8.00000000E-01  8.00000000E-01  1.50000000E+00  1.50000000E+00  8.00000000E-01
  8.00000000E-01  1.50000000E+00  1.50000000E+00  8.00000000E-01  8.00000000E-01
  1.50000000E+00  1.50000000E+00  8.00000000E-01  8.00000000E-01  1.50000000E+00
  1.50000000E+00  8.00000000E-01  8.00000000E-01  1.50000000E+00  1.50000000E+00
  8.00000000E-01  8.00000000E-01  1.50000000E+00  1.50000000E+00  8.00000000E-01
  8.00000000E-01  1.50000000E+00  1.50000000E+00  8.00000000E-01  8.00000000E-01
  1.50000000E+00  1.50000000E+00  8.00000000E-01  8.00000000E-01  1.50000000E+00
  1.50000000E+00  8.00000000E-01  8.00000000E-01  1.50000000E+00  1.50000000E+00
  8.00000000E-01  8.00000000E-01  1.50000000E+00  1.50000000E+00  8.00000000E-01
  8.00000000E-01  1.50000000E+00  1.50000000E+00  8.00000000E-01  8.00000000E-01
  1.50000000E+00  1.50000000E+00  8.00000000E-01  8.00000000E-01  1.50000000E+00
  1.50000000E+00  8.00000000E-01  8.00000000E-01  1.50000000E+00  1.50000000E+00
  8.00000000E-01  8.00000000E-01  1.50000000E+00  1.50000000E+00  8.00000000E-01
  8.00000000E-01  1.50000000E+00  1.50000000E+00  8.00000000E-01  8.00000000E-01
  1.50000000E+00  1.50000000E+00  8.00000000E-01  8.00000000E-01  1.50000000E+00
  1.50000000E+00  8.00000000E-01  8.00000000E-01  1.50000000E+00  1.50000000E+00
  8.00000000E-01  8.00000000E-01  1.50000000E+00  1.50000000E+00  8.00000000E-01
  8.00000000E-01  1.50000000E+00  1.50000000E+00  8.00000000E-01  8.00000000E-01
  1.50000000E+00  1.50000000E+00  8.00000000E-01  8.00000000E-01  1.50000000E+00
  1.50000000E+00  8.00000000E-01  8.00000000E-01  1.50000000E+00  1.50000000E+00
  8.00000000E-01  8.00000000E-01  1.50000000E+00  1.50000000E+00  8.00000000E-01
  8.00000000E-01  1.50000000E+00  1.50000000E+00  8.00000000E-01  8.00000000E-01
  1.50000000E+00  1.50000000E+00  8.00000000E-01  8.00000000E-01  1.50000000E+00
  1.50000000E+00  8.00000000E-01  8.00000000E-01  1.50000000E+00  1.50000000E+00
  8.00000000E-01  8.00000000E-01  1.50000000E+00  1.50000000E+00  8.00000000E-01
  8.00000000E-01  1.50000000E+00  1.50000000E+00  8.00000000E-01  8.00000000E-01
  1.50000000E+00  1.50000000E+00  8.00000000E-01  8.00000000E-01  1.50000000E+00
  1.50000000E+00  8.00000000E-01  8.00000000E-01  1.50000000E+00  1.50000000E+00
  8.00000000E-01  8.00000000E-01  1.50000000E+00  1.50000000E+00  8.00000000E-01
  8.00000000E-01  1.50000000E+00  1.50000000E+00  8.00000000E-01  8.00000000E-01
  1.50000000E+00  1.50000000E+00  8.00000000E-01  8.00000000E-01  1.50000000E+00
  1.50000000E+00  8.00000000E-01  8.00000000E-01  1.50000000E+00  1.50000000E+00
  8.00000000E-01  8.00000000E-01  1.50000000E+00  1.50000000E+00  8.00000000E-01
  8.00000000E-01  1.50000000E+00  1.50000000E+00  8.00000000E-01  8.00000000E-01
  1.50000000E+00  1.50000000E+00  8.00000000E-01  8.00000000E-01  1.50000000E+00
  1.50000000E+00  8.00000000E-01  8.00000000E-01  1.50000000E+00  1.50000000E+00
  8.00000000E-01  8.00000000E-01  1.50000000E+00  1.50000000E+00  8.00000000E-01
  8.00000000E-01  1.50000000E+00  1.50000000E+00  8.00000000E-01  8.00000000E-01
  1.50000000E+00  1.50000000E+00  8.00000000E-01  8.00000000E-01  1.50000000E+00
  1.50000000E+00  8.00000000E-01  8.00000000E-01  1.50000000E+00  1.50000000E+00
  8.00000000E-01  8.00000000E-01  1.50000000E+00  1.50000000E+00  8.00000000E-01
  8.00000000E-01  1.50000000E+00  1.50000000E+00  8.00000000E-01  8.00000000E-01
  1.50000000E+00  1.50000000E+00  8.00000000E-01  8.00000000E-01  1.50000000E+00
  1.50000000E+00  8.00000000E-01  8.00000000E-01  1.50000000E+00  1.50000000E+00
  8.00000000E-01  8.00000000E-01  1.50000000E+00  1.50000000E+00  8.00000000E-01
  8.00000000E-01  1.50000000E+00  1.50000000E+00  8.00000000E-01  8.00000000E-01
  1.50000000E+00  1.50000000E+00  8.00000000E-01  8.00000000E-01  1.50000000E+00
  1.50000000E+00  8.00000000E-01  8.00000000E-01  1.50000000E+00  1.50000000E+00
  8.00000000E-01  8.00000000E-01  1.50000000E+00  1.50000000E+00  8.00000000E-01
  8.00000000E-01  1.50000000E+00  1.50000000E+00  8.00000000E-01  8.00000000E-01
  1.50000000E+00  1.50000000E+00  8.00000000E-01  8.00000000E-01  1.50000000E+00
  1.50000000E+00  8.00000000E-01  8.00000000E-01  1.50000000E+00  1.50000000E+00
  8.00000000E-01  8.00000000E-01  1.50000000E+00  1.50000000E+00  8.00000000E-01
  8.00000000E-01  1.50000000E+00  1.50000000E+00  8.00000000E-01  8.00000000E-01
  1.50000000E+00  1.50000000E+00  8.00000000E-01  8.00000000E-01  1.50000000E+00
  1.50000000E+00  8.00000000E-01  8.00000000E-01  1.50000000E+00  1.50000000E+00
  8.00000000E-01  8.00000000E-01  1.50000000E+00  1.50000000E+00  8.00000000E-01
  8.00000000E-01  1.50000000E+00  1.50000000E+00  8.00000000E-01  8.00000000E-01
  1.50000000E+00  1.50000000E+00  8.00000000E-01  8.00000000E-01  1.50000000E+00
  1.50000000E+00  8.00000000E-01  8.00000000E-01  1.50000000E+00  1.50000000E+00
  8.00000000E-01  8.00000000E-01  1.50000000E+00  1.50000000E+00  8.00000000E-01
  8.00000000E-01  1.50000000E+00  1.50000000E+00  8.00000000E-01  8.00000000E-01
  1.50000000E+00  1.50000000E+00  8.00000000E-01  8.00000000E-01  1.50000000E+00
  1.50000000E+00  8.00000000E-01  8.00000000E-01  1.50000000E+00  1.50000000E+00
  8.00000000E-01  8.00000000E-01  1.50000000E+00  1.50000000E+00  8.00000000E-01
  8.00000000E-01  1.50000000E+00  1.50000000E+00  8.00000000E-01  8.00000000E-01
  1.50000000E+00  1.50000000E+00  8.00000000E-01  8.00000000E-01  1.50000000E+00
  1.50000000E+00  8.00000000E-01  8.00000000E-01  1.50000000E+00  1.50000000E+00
  8.00000000E-01  8.00000000E-01  1.50000000E+00  1.50000000E+00  8.00000000E-01
  8.00000000E-01  1.50000000E+00  1.50000000E+00  8.00000000E-01  8.00000000E-01
  1.50000000E+00  1.50000000E+00  8.00000000E-01  8.00000000E-01  1.50000000E+00
  1.50000000E+00  8.00000000E-01  8.00000000E-01  1.50000000E+00  1.50000000E+00
  8.00000000E-01  8.00000000E-01  1.50000000E+00  1.50000000E+00  8.00000000E-01
  8.00000000E-01  1.50000000E+00  1.50000000E+00  8.00000000E-01  8.00000000E-01
  1.50000000E+00  1.50000000E+00  8.00000000E-01  8.00000000E-01  1.50000000E+00
  1.50000000E+00  8.00000000E-01  8.00000000E-01  1.50000000E+00  1.50000000E+00
  8.00000000E-01  8.00000000E-01  1.50000000E+00  1.50000000E+00  8.00000000E-01
  8.00000000E-01  1.50000000E+00  1.50000000E+00  8.00000000E-01  8.00000000E-01
  1.50000000E+00  1.50000000E+00  8.00000000E-01  8.00000000E-01  1.50000000E+00
  1.50000000E+00  8.00000000E-01  8.00000000E-01  1.50000000E+00  1.50000000E+00
  8.00000000E-01  8.00000000E-01  1.50000000E+00  1.50000000E+00  8.00000000E-01
  8.00000000E-01  1.50000000E+00  1.50000000E+00  8.00000000E-01  8.00000000E-01
  1.50000000E+00  1.50000000E+00  8.00000000E-01  8.00000000E-01  1.50000000E+00
  1.50000000E+00  8.00000000E-01  8.00000000E-01  1.50000000E+00  1.50000000E+00
  8.00000000E-01  8.00000000E-01  1.50000000E+00  1.50000000E+00  8.00000000E-01
  8.00000000E-01  1.50000000E+00  1.50000000E+00  8.00000000E-01  8.00000000E-01
  1.50000000E+00  1.50000000E+00  8.00000000E-01  8.00000000E-01  1.50000000E+00
  1.50000000E+00  8.00000000E-01  8.00000000E-01  1.50000000E+00  1.50000000E+00
  8.00000000E-01  8.00000000E-01  1.50000000E+00  1.50000000E+00  8.00000000E-01
  8.00000000E-01  1.50000000E+00  1.50000000E+00  8.00000000E-01  8.00000000E-01
  1.50000000E+00  1.50000000E+00  8.00000000E-01  8.00000000E-01  1.50000000E+00
  1.50000000E+00  8.00000000E-01  8.00000000E-01  1.50000000E+00  1.50000000E+00
  8.00000000E-01  8.00000000E-01  1.50000000E+00  1.50000000E+00  8.00000000E-01
  8.00000000E-01  1.50000000E+00  1.50000000E+00  8.00000000E-01  8.00000000E-01
  1.50000000E+00  1.50000000E+00  8.00000000E-01  8.00000000E-01  1.50000000E+00
  1.50000000E+00  8.00000000E-01  8.00000000E-01  1.50000000E+00  1.50000000E+00
  8.00000000E-01  8.00000000E-01  1.50000000E+00  1.50000000E+00  8.00000000E-01
  8.00000000E-01  1.50000000E+00  1.50000000E+00  8.00000000E-01  8.00000000E-01
  1.50000000E+00  1.50000000E+00  8.00000000E-01  8.00000000E-01  1.50000000E+00
  1.50000000E+00  8.00000000E-01  8.00000000E-01  1.50000000E+00  1.50000000E+00
  8.00000000E-01  8.00000000E-01  1.50000000E+00  1.50000000E+00  8.00000000E-01
  8.00000000E-01  1.50000000E+00  1.50000000E+00  8.00000000E-01  8.00000000E-01
  1.50000000E+00  1.50000000E+00  8.00000000E-01  8.00000000E-01  1.50000000E+00
  1.50000000E+00  8.00000000E-01  8.00000000E-01  1.50000000E+00  1.50000000E+00
  8.00000000E-01  8.00000000E-01  1.50000000E+00  1.50000000E+00  8.00000000E-01
  8.00000000E-01  1.50000000E+00  1.50000000E+00  8.00000000E-01  8.00000000E-01
  1.50000000E+00  1.50000000E+00  8.00000000E-01  8.00000000E-01  1.50000000E+00
  1.50000000E+00  8.00000000E-01  8.00000000E-01  1.50000000E+00  1.50000000E+00
  8.00000000E-01  8.00000000E-01  1.50000000E+00  1.50000000E+00  8.00000000E-01
  8.00000000E-01  1.50000000E+00  1.50000000E+00  8.00000000E-01  8.00000000E-01
  1.50000000E+00  1.50000000E+00  8.00000000E-01  8.00000000E-01  1.50000000E+00
  1.50000000E+00  8.00000000E-01  8.00000000E-01  1.50000000E+00  1.50000000E+00
  8.00000000E-01  8.00000000E-01  1.50000000E+00  1.50000000E+00  8.00000000E-01
  8.00000000E-01  1.50000000E+00  1.50000000E+00  8.00000000E-01  8.00000000E-01
  1.50000000E+00  1.50000000E+00  8.00000000E-01  8.00000000E-01  1.50000000E+00
  1.50000000E+00  8.00000000E-01  8.00000000E-01  1.50000000E+00  1.50000000E+00
  8.00000000E-01  8.00000000E-01  1.50000000E+00  1.50000000E+00  8.00000000E-01
  8.00000000E-01  1.50000000E+00  1.50000000E+00  8.00000000E-01  8.00000000E-01
  1.50000000E+00  1.50000000E+00  8.00000000E-01  8.00000000E-01  1.50000000E+00
  1.50000000E+00  8.00000000E-01  8.00000000E-01  1.50000000E+00  1.50000000E+00
  8.00000000E-01  8.00000000E-01  1.50000000E+00  1.50000000E+00  8.00000000E-01
  8.00000000E-01  1.50000000E+00  1.50000000E+00  8.00000000E-01  8.00000000E-01
  1.50000000E+00  1.50000000E+00  8.00000000E-01  8.00000000E-01  1.50000000E+00
  1.50000000E+00  8.00000000E-01  8.00000000E-01  1.50000000E+00  1.50000000E+00
  8.00000000E-01  8.00000000E-01  1.50000000E+00  1.50000000E+00  8.00000000E-01
  8.00000000E-01  1.50000000E+00  1.50000000E+00  8.00000000E-01  8.00000000E-01
  1.50000000E+00  1.50000000E+00  8.00000000E-01  8.00000000E-01  1.50000000E+00
  1.50000000E+00  8.00000000E-01  8.00000000E-01  1.50000000E+00  1.50000000E+00
  8.00000000E-01  8.00000000E-01  1.50000000E+00  1.50000000E+00  8.00000000E-01
  8.00000000E-01  1.50000000E+00  1.50000000E+00  8.00000000E-01  8.00000000E-01
  1.50000000E+00  1.50000000E+00  8.00000000E-01  8.00000000E-01  1.50000000E+00
  1.50000000E+00  8.00000000E-01  8.00000000E-01  1.50000000E+00  1.50000000E+00
  8.00000000E-01  8.00000000E-01  1.50000000E+00  1.50000000E+00  8.00000000E-01
  8.00000000E-01  1.50000000E+00  1.50000000E+00  8.00000000E-01  8.00000000E-01
  1.50000000E+00  1.50000000E+00  8.00000000E-01  8.00000000E-01  1.50000000E+00
  1.50000000E+00  8.00000000E-01  8.00000000E-01  1.50000000E+00  1.50000000E+00
  8.00000000E-01  8.00000000E-01  1.50000000E+00  1.50000000E+00  8.00000000E-01
  8.00000000E-01  1.50000000E+00  1.50000000E+00  8.00000000E-01  8.00000000E-01
  1.50000000E+00  1.50000000E+00  8.00000000E-01  8.00000000E-01  1.50000000E+00
  1.50000000E+00  8.00000000E-01  8.00000000E-01  1.50000000E+00  1.50000000E+00
  8.00000000E-01  8.00000000E-01  1.50000000E+00  1.50000000E+00  8.00000000E-01
  8.00000000E-01  1.50000000E+00  1.50000000E+00  8.00000000E-01  8.00000000E-01
  1.50000000E+00  1.50000000E+00  8.00000000E-01  8.00000000E-01  1.50000000E+00
  1.50000000E+00  8.00000000E-01  8.00000000E-01  1.50000000E+00  1.50000000E+00
  8.00000000E-01  8.00000000E-01  1.50000000E+00  1.50000000E+00  8.00000000E-01
  8.00000000E-01  1.50000000E+00  1.50000000E+00  8.00000000E-01  8.00000000E-01
  1.50000000E+00  1.50000000E+00  8.00000000E-01  8.00000000E-01  1.50000000E+00
  1.50000000E+00  8.00000000E-01  8.00000000E-01  1.50000000E+00  1.50000000E+00
  8.00000000E-01  8.00000000E-01  1.50000000E+00  1.50000000E+00  8.00000000E-01
  8.00000000E-01  1.50000000E+00  1.50000000E+00  8.00000000E-01  8.00000000E-01
  1.50000000E+00  1.50000000E+00  8.00000000E-01  8.00000000E-01  1.50000000E+00
  1.50000000E+00  8.00000000E-01  8.00000000E-01  1.50000000E+00  1.50000000E+00
  8.00000000E-01  8.00000000E-01  1.50000000E+00  1.50000000E+00  8.00000000E-01
  8.00000000E-01  1.50000000E+00  1.50000000E+00  8.00000000E-01  8.00000000E-01
  1.50000000E+00  1.50000000E+00  8.00000000E-01  8.00000000E-01  1.50000000E+00
  1.50000000E+00  8.00000000E-01  8.00000000E-01  1.50000000E+00  1.50000000E+00
  8.00000000E-01  8.00000000E-01  1.50000000E+00  1.50000000E+00  8.00000000E-01
  8.00000000E-01  1.50000000E+00  1.50000000E+00  8.00000000E-01  8.00000000E-01
  1.50000000E+00  1.50000000E+00  8.00000000E-01  8.00000000E-01  1.50000000E+00
  1.50000000E+00  8.00000000E-01  8.00000000E-01  1.50000000E+00  1.50000000E+00
  8.00000000E-01  8.00000000E-01  1.50000000E+00  1.50000000E+00  8.00000000E-01
  8.00000000E-01  1.50000000E+00  1.50000000E+00  8.00000000E-01  8.00000000E-01
  1.50000000E+00  1.50000000E+00  8.00000000E-01  8.00000000E-01  1.50000000E+00
  1.50000000E+00  8.00000000E-01  8.00000000E-01  1.50000000E+00  1.50000000E+00
  8.00000000E-01  8.00000000E-01  1.50000000E+00  1.50000000E+00  8.00000000E-01
  8.00000000E-01  1.50000000E+00  1.50000000E+00  8.00000000E-01  8.00000000E-01
  1.50000000E+00  1.50000000E+00  8.00000000E-01  8.00000000E-01  1.50000000E+00
  1.50000000E+00  8.00000000E-01  8.00000000E-01  1.50000000E+00  1.50000000E+00
  8.00000000E-01  8.00000000E-01  1.50000000E+00  1.50000000E+00  8.00000000E-01
  8.00000000E-01  1.50000000E+00  1.50000000E+00  8.00000000E-01  8.00000000E-01
  1.50000000E+00  1.50000000E+00  8.00000000E-01  8.00000000E-01  1.50000000E+00
  1.50000000E+00  8.00000000E-01  8.00000000E-01  1.50000000E+00  1.50000000E+00
  8.00000000E-01  8.00000000E-01  1.50000000E+00  1.50000000E+00  8.00000000E-01
  8.00000000E-01  1.50000000E+00  1.50000000E+00  8.00000000E-01  8.00000000E-01
  1.50000000E+00  1.50000000E+00  8.00000000E-01  8.00000000E-01  1.50000000E+00
  1.50000000E+00  8.00000000E-01  8.00000000E-01  1.50000000E+00  1.50000000E+00
  8.00000000E-01  8.00000000E-01  1.50000000E+00  1.50000000E+00  8.00000000E-01
  8.00000000E-01  1.50000000E+00  1.50000000E+00  8.00000000E-01  8.00000000E-01
  1.50000000E+00  1.50000000E+00  8.00000000E-01  8.00000000E-01  1.50000000E+00
  1.50000000E+00  8.00000000E-01  8.00000000E-01  1.50000000E+00  1.50000000E+00
  8.00000000E-01  8.00000000E-01  1.50000000E+00  1.50000000E+00  8.00000000E-01
  8.00000000E-01  1.50000000E+00  1.50000000E+00  8.00000000E-01  8.00000000E-01
  1.50000000E+00  1.50000000E+00  8.00000000E-01  8.00000000E-01  1.50000000E+00
  1.50000000E+00  8.00000000E-01  8.00000000E-01  1.50000000E+00  1.50000000E+00
  8.00000000E-01  8.00000000E-01  1.50000000E+00  1.50000000E+00  8.00000000E-01
  8.00000000E-01  1.50000000E+00  1.50000000E+00  8.00000000E-01  8.00000000E-01
  1.50000000E+00  1.50000000E+00  8.00000000E-01  8.00000000E-01  1.50000000E+00
  1.50000000E+00  8.00000000E-01  8.00000000E-01  1.50000000E+00  1.50000000E+00
  8.00000000E-01  8.00000000E-01  1.50000000E+00  1.50000000E+00  8.00000000E-01
  8.00000000E-01  1.50000000E+00  1.50000000E+00  8.00000000E-01  8.00000000E-01
  1.50000000E+00  1.50000000E+00  8.00000000E-01  8.00000000E-01  1.50000000E+00
  1.50000000E+00  8.00000000E-01  8.00000000E-01  1.50000000E+00  1.50000000E+00
  8.00000000E-01  8.00000000E-01  1.50000000E+00  1.50000000E+00  8.00000000E-01
  8.00000000E-01  1.50000000E+00  1.50000000E+00  8.00000000E-01  8.00000000E-01
  1.50000000E+00  1.50000000E+00  8.00000000E-01  8.00000000E-01  1.50000000E+00
  1.50000000E+00  8.00000000E-01  8.00000000E-01  1.50000000E+00  1.50000000E+00
  8.00000000E-01  8.00000000E-01  1.50000000E+00  1.50000000E+00  8.00000000E-01
  8.00000000E-01  1.50000000E+00  1.50000000E+00  8.00000000E-01  8.00000000E-01
  1.50000000E+00  1.50000000E+00  8.00000000E-01  8.00000000E-01  1.50000000E+00
  1.50000000E+00  8.00000000E-01  8.00000000E-01  1.50000000E+00  1.50000000E+00
  8.00000000E-01  8.00000000E-01  1.50000000E+00  1.50000000E+00  8.00000000E-01
  8.00000000E-01  1.50000000E+00  1.50000000E+00  8.00000000E-01  8.00000000E-01
  1.50000000E+00  1.50000000E+00  8.00000000E-01  8.00000000E-01  1.50000000E+00
  1.50000000E+00  8.00000000E-01  8.00000000E-01  1.50000000E+00  1.50000000E+00
  8.00000000E-01  8.00000000E-01  1.50000000E+00  1.50000000E+00  8.00000000E-01
  8.00000000E-01  1.50000000E+00  1.50000000E+00  8.00000000E-01  8.00000000E-01
  1.50000000E+00  1.50000000E+00  8.00000000E-01  8.00000000E-01  1.50000000E+00
  1.50000000E+00  8.00000000E-01  8.00000000E-01  1.50000000E+00  1.50000000E+00
  8.00000000E-01  8.00000000E-01  1.50000000E+00  1.50000000E+00  8.00000000E-01
  8.00000000E-01  1.50000000E+00  1.50000000E+00  8.00000000E-01  8.00000000E-01
  1.50000000E+00  1.50000000E+00  8.00000000E-01  8.00000000E-01  1.50000000E+00
  1.50000000E+00  8.00000000E-01  8.00000000E-01  1.50000000E+00  1.50000000E+00
  8.00000000E-01  8.00000000E-01  1.50000000E+00  1.50000000E+00  8.00000000E-01
  8.00000000E-01  1.50000000E+00  1.50000000E+00  8.00000000E-01  8.00000000E-01
  1.50000000E+00  1.50000000E+00  8.00000000E-01  8.00000000E-01  1.50000000E+00
  1.50000000E+00  8.00000000E-01  8.00000000E-01  1.50000000E+00  1.50000000E+00
  8.00000000E-01  8.00000000E-01  1.50000000E+00  1.50000000E+00  8.00000000E-01
  8.00000000E-01  1.50000000E+00  1.50000000E+00  8.00000000E-01  8.00000000E-01
  1.50000000E+00  1.50000000E+00  8.00000000E-01  8.00000000E-01  1.50000000E+00
  1.50000000E+00  8.00000000E-01  8.00000000E-01  1.50000000E+00  1.50000000E+00
  8.00000000E-01  8.00000000E-01  1.50000000E+00  1.50000000E+00  8.00000000E-01
  8.00000000E-01  1.50000000E+00  1.50000000E+00  8.00000000E-01  8.00000000E-01
  1.50000000E+00  1.50000000E+00  8.00000000E-01  8.00000000E-01  1.50000000E+00
  1.50000000E+00  8.00000000E-01  8.00000000E-01  1.50000000E+00  1.50000000E+00
  8.00000000E-01  8.00000000E-01  1.50000000E+00  1.50000000E+00  8.00000000E-01
  8.00000000E-01  1.50000000E+00  1.50000000E+00  8.00000000E-01  8.00000000E-01
  1.50000000E+00  1.50000000E+00  8.00000000E-01  8.00000000E-01  1.50000000E+00
  1.50000000E+00  8.00000000E-01  8.00000000E-01  1.50000000E+00  1.50000000E+00
  8.00000000E-01  8.00000000E-01  1.50000000E+00  1.50000000E+00  8.00000000E-01
  8.00000000E-01  1.50000000E+00  1.50000000E+00  8.00000000E-01  8.00000000E-01
  1.50000000E+00  1.50000000E+00  8.00000000E-01  8.00000000E-01  1.50000000E+00
  1.50000000E+00  8.00000000E-01  8.00000000E-01  1.50000000E+00  1.50000000E+00
  8.00000000E-01  8.00000000E-01  1.50000000E+00  1.50000000E+00  8.00000000E-01
  8.00000000E-01  1.50000000E+00  1.50000000E+00  8.00000000E-01  8.00000000E-01
  1.50000000E+00  1.50000000E+00  8.00000000E-01  8.00000000E-01  1.50000000E+00
  1.50000000E+00  8.00000000E-01  8.00000000E-01  1.50000000E+00  1.50000000E+00
  8.00000000E-01  8.00000000E-01  1.50000000E+00  1.50000000E+00  8.00000000E-01
  8.00000000E-01  1.50000000E+00  1.50000000E+00  8.00000000E-01  8.00000000E-01
  1.50000000E+00  1.50000000E+00  8.00000000E-01  8.00000000E-01  1.50000000E+00
  1.50000000E+00  8.00000000E-01  8.00000000E-01  1.50000000E+00  1.50000000E+00
  8.00000000E-01  8.00000000E-01  1.50000000E+00  1.50000000E+00  8.00000000E-01
  8.00000000E-01  1.50000000E+00  1.50000000E+00  8.00000000E-01  8.00000000E-01
  1.50000000E+00  1.50000000E+00  8.00000000E-01  8.00000000E-01  1.50000000E+00
  1.50000000E+00  8.00000000E-01  8.00000000E-01  1.50000000E+00  1.50000000E+00
  8.00000000E-01  8.00000000E-01  1.50000000E+00  1.50000000E+00  8.00000000E-01
  8.00000000E-01  1.50000000E+00  1.50000000E+00  8.00000000E-01  8.00000000E-01
  1.50000000E+00  1.50000000E+00  8.00000000E-01  8.00000000E-01  1.50000000E+00
  1.50000000E+00  8.00000000E-01  8.00000000E-01  1.50000000E+00  1.50000000E+00
  8.00000000E-01  8.00000000E-01  1.50000000E+00  1.50000000E+00  8.00000000E-01
  8.00000000E-01  1.50000000E+00  1.50000000E+00  8.00000000E-01  8.00000000E-01
  1.50000000E+00  1.50000000E+00  8.00000000E-01  8.00000000E-01  1.50000000E+00
  1.50000000E+00  8.00000000E-01  8.00000000E-01  1.50000000E+00  1.50000000E+00
  8.00000000E-01  8.00000000E-01  1.50000000E+00  1.50000000E+00  8.00000000E-01
  8.00000000E-01  1.50000000E+00  1.50000000E+00  8.00000000E-01  8.00000000E-01
  1.50000000E+00  1.50000000E+00  8.00000000E-01  8.00000000E-01  1.50000000E+00
  1.50000000E+00  8.00000000E-01  8.00000000E-01  1.50000000E+00  1.50000000E+00
  8.00000000E-01  8.00000000E-01  1.50000000E+00  1.50000000E+00  8.00000000E-01
  8.00000000E-01  1.50000000E+00  1.50000000E+00  8.00000000E-01  8.00000000E-01
  1.50000000E+00  1.50000000E+00  8.00000000E-01  8.00000000E-01  1.50000000E+00
  1.50000000E+00  8.00000000E-01  8.00000000E-01  1.50000000E+00  1.50000000E+00
  8.00000000E-01  8.00000000E-01  1.50000000E+00  1.50000000E+00  8.00000000E-01
  8.00000000E-01  1.50000000E+00  1.50000000E+00  8.00000000E-01  8.00000000E-01
  1.50000000E+00  1.50000000E+00  8.00000000E-01  8.00000000E-01  1.50000000E+00
  1.50000000E+00  8.00000000E-01  8.00000000E-01  1.50000000E+00  1.50000000E+00
  8.00000000E-01  8.00000000E-01  1.50000000E+00  1.50000000E+00  8.00000000E-01
  8.00000000E-01  1.50000000E+00  1.50000000E+00  8.00000000E-01  8.00000000E-01
  1.50000000E+00  1.50000000E+00  8.00000000E-01  8.00000000E-01  1.50000000E+00
  1.50000000E+00  8.00000000E-01  8.00000000E-01  1.50000000E+00  1.50000000E+00
  8.00000000E-01  8.00000000E-01  1.50000000E+00  1.50000000E+00  8.00000000E-01
  8.00000000E-01  1.50000000E+00  1.50000000E+00  8.00000000E-01  8.00000000E-01
  1.50000000E+00  1.50000000E+00  8.00000000E-01  8.00000000E-01  1.50000000E+00
  1.50000000E+00  8.00000000E-01  8.00000000E-01  1.50000000E+00  1.50000000E+00
  8.00000000E-01  8.00000000E-01  1.50000000E+00  1.50000000E+00  8.00000000E-01
  8.00000000E-01  1.50000000E+00  1.50000000E+00  8.00000000E-01  8.00000000E-01
  1.50000000E+00  1.50000000E+00  8.00000000E-01  8.00000000E-01  1.50000000E+00
  1.50000000E+00  8.00000000E-01  8.00000000E-01  1.50000000E+00  1.50000000E+00
  8.00000000E-01  8.00000000E-01  1.50000000E+00  1.50000000E+00  8.00000000E-01
  8.00000000E-01  1.50000000E+00  1.50000000E+00  8.00000000E-01  8.00000000E-01
  1.50000000E+00  1.50000000E+00  8.00000000E-01  8.00000000E-01  1.50000000E+00
  1.50000000E+00  8.00000000E-01  8.00000000E-01  1.50000000E+00  1.50000000E+00
  8.00000000E-01  8.00000000E-01  1.50000000E+00  1.50000000E+00  8.00000000E-01
  8.00000000E-01  1.50000000E+00  1.50000000E+00  8.00000000E-01  8.00000000E-01
  1.50000000E+00  1.50000000E+00  8.00000000E-01  8.00000000E-01  1.50000000E+00
  1.50000000E+00  8.00000000E-01  8.00000000E-01  1.50000000E+00  1.50000000E+00
  8.00000000E-01  8.00000000E-01  1.50000000E+00  1.50000000E+00  8.00000000E-01
  8.00000000E-01  1.50000000E+00  1.50000000E+00  8.00000000E-01  8.00000000E-01
  1.50000000E+00  1.50000000E+00  8.00000000E-01  8.00000000E-01  1.50000000E+00
  1.50000000E+00  8.00000000E-01  8.00000000E-01  1.50000000E+00  1.50000000E+00
  8.00000000E-01  8.00000000E-01  1.50000000E+00  1.50000000E+00  8.00000000E-01
  8.00000000E-01  1.50000000E+00  1.50000000E+00  8.00000000E-01  8.00000000E-01
  1.50000000E+00  1.50000000E+00  8.00000000E-01  8.00000000E-01  1.50000000E+00
  1.50000000E+00  8.00000000E-01  8.00000000E-01  1.50000000E+00  1.50000000E+00
  8.00000000E-01  8.00000000E-01  1.50000000E+00  1.50000000E+00  8.00000000E-01
  8.00000000E-01  1.50000000E+00  1.50000000E+00  8.00000000E-01  8.00000000E-01
  1.50000000E+00  1.50000000E+00  8.00000000E-01  8.00000000E-01  1.50000000E+00
  1.50000000E+00  8.00000000E-01  8.00000000E-01  1.50000000E+00  1.50000000E+00
  8.00000000E-01  8.00000000E-01  1.50000000E+00  1.50000000E+00  8.00000000E-01
  8.00000000E-01  1.50000000E+00  1.50000000E+00  8.00000000E-01  8.00000000E-01
  1.50000000E+00  1.50000000E+00  8.00000000E-01  8.00000000E-01  1.50000000E+00
  1.50000000E+00  8.00000000E-01  8.00000000E-01  1.50000000E+00  1.50000000E+00
  8.00000000E-01  8.00000000E-01  1.50000000E+00  1.50000000E+00  8.00000000E-01
  8.00000000E-01  1.50000000E+00  1.50000000E+00  8.00000000E-01  8.00000000E-01
  1.50000000E+00  1.50000000E+00  8.00000000E-01  8.00000000E-01  1.50000000E+00
  1.50000000E+00  8.00000000E-01  8.00000000E-01  1.50000000E+00  1.50000000E+00
  8.00000000E-01  8.00000000E-01  1.50000000E+00  1.50000000E+00  8.00000000E-01
  8.00000000E-01  1.50000000E+00  1.50000000E+00  8.00000000E-01  8.00000000E-01
  1.50000000E+00  1.50000000E+00  8.00000000E-01  8.00000000E-01  1.50000000E+00
  1.50000000E+00  8.00000000E-01  8.00000000E-01  1.50000000E+00  1.50000000E+00
  8.00000000E-01  8.00000000E-01  1.50000000E+00  1.50000000E+00  8.00000000E-01
  8.00000000E-01  1.50000000E+00  1.50000000E+00  8.00000000E-01  8.00000000E-01
  1.50000000E+00  1.50000000E+00  8.00000000E-01  8.00000000E-01  1.50000000E+00
  1.50000000E+00  8.00000000E-01  8.00000000E-01  1.50000000E+00  1.50000000E+00
  8.00000000E-01  8.00000000E-01  1.50000000E+00  1.50000000E+00  8.00000000E-01
  8.00000000E-01  1.50000000E+00  1.50000000E+00  8.00000000E-01  8.00000000E-01
  1.50000000E+00  1.50000000E+00  8.00000000E-01  8.00000000E-01  1.50000000E+00
  1.50000000E+00  8.00000000E-01  8.00000000E-01  1.50000000E+00  1.50000000E+00
  8.00000000E-01  8.00000000E-01  1.50000000E+00  1.50000000E+00  8.00000000E-01
  8.00000000E-01  1.50000000E+00  1.50000000E+00  8.00000000E-01  8.00000000E-01
  1.50000000E+00  1.50000000E+00  8.00000000E-01  8.00000000E-01  1.50000000E+00
  1.50000000E+00  8.00000000E-01  8.00000000E-01  1.50000000E+00  1.50000000E+00
  8.00000000E-01  8.00000000E-01  1.50000000E+00  1.50000000E+00  8.00000000E-01
  8.00000000E-01  1.50000000E+00  1.50000000E+00  8.00000000E-01  8.00000000E-01
  1.50000000E+00  1.50000000E+00  8.00000000E-01  8.00000000E-01  1.50000000E+00
  1.50000000E+00  8.00000000E-01  8.00000000E-01  1.50000000E+00  1.50000000E+00
  8.00000000E-01  8.00000000E-01  1.50000000E+00  1.50000000E+00  8.00000000E-01
  8.00000000E-01  1.50000000E+00  1.50000000E+00  8.00000000E-01  8.00000000E-01
  1.50000000E+00  1.50000000E+00  8.00000000E-01  8.00000000E-01  1.50000000E+00
  1.50000000E+00  8.00000000E-01  8.00000000E-01  1.50000000E+00  1.50000000E+00
  8.00000000E-01  8.00000000E-01  1.50000000E+00  1.50000000E+00  8.00000000E-01
  8.00000000E-01  1.50000000E+00  1.50000000E+00  8.00000000E-01  8.00000000E-01
  1.50000000E+00  1.50000000E+00  8.00000000E-01  8.00000000E-01  1.50000000E+00
  1.50000000E+00  8.00000000E-01  8.00000000E-01  1.50000000E+00  1.50000000E+00
  8.00000000E-01  8.00000000E-01  1.50000000E+00  1.50000000E+00  8.00000000E-01
  8.00000000E-01  1.50000000E+00  1.50000000E+00  8.00000000E-01  8.00000000E-01
  1.50000000E+00  1.50000000E+00  8.00000000E-01  8.00000000E-01  1.50000000E+00
  1.50000000E+00  8.00000000E-01  8.00000000E-01  1.50000000E+00  1.50000000E+00
  8.00000000E-01  8.00000000E-01  1.50000000E+00  1.50000000E+00  8.00000000E-01
  8.00000000E-01  1.50000000E+00  1.50000000E+00  8.00000000E-01  8.00000000E-01
  1.50000000E+00  1.50000000E+00  8.00000000E-01  8.00000000E-01  1.50000000E+00
  1.50000000E+00  8.00000000E-01  8.00000000E-01  1.50000000E+00  1.50000000E+00
  8.00000000E-01  8.00000000E-01  1.50000000E+00  1.50000000E+00  8.00000000E-01
  8.00000000E-01  1.50000000E+00  1.50000000E+00  8.00000000E-01  8.00000000E-01
  1.50000000E+00  1.50000000E+00  8.00000000E-01  8.00000000E-01  1.50000000E+00
  1.50000000E+00  8.00000000E-01  8.00000000E-01  1.50000000E+00  1.50000000E+00
  8.00000000E-01  8.00000000E-01  1.50000000E+00  1.50000000E+00  8.00000000E-01
  8.00000000E-01  1.50000000E+00  1.50000000E+00  8.00000000E-01  8.00000000E-01
  1.50000000E+00  1.50000000E+00  8.00000000E-01  8.00000000E-01  1.50000000E+00
  1.50000000E+00  8.00000000E-01  8.00000000E-01  1.50000000E+00  1.50000000E+00
  8.00000000E-01  8.00000000E-01  1.50000000E+00  1.50000000E+00  8.00000000E-01
  8.00000000E-01  1.50000000E+00  1.50000000E+00  8.00000000E-01  8.00000000E-01
  1.50000000E+00  1.50000000E+00  8.00000000E-01  8.00000000E-01  1.50000000E+00
  1.50000000E+00  8.00000000E-01  8.00000000E-01  1.50000000E+00  1.50000000E+00
  8.00000000E-01  8.00000000E-01  1.50000000E+00  1.50000000E+00  8.00000000E-01
  8.00000000E-01  1.50000000E+00  1.50000000E+00  8.00000000E-01  8.00000000E-01
  1.50000000E+00  1.50000000E+00  8.00000000E-01  8.00000000E-01  1.50000000E+00
  1.50000000E+00  8.00000000E-01  8.00000000E-01  1.50000000E+00  1.50000000E+00
  8.00000000E-01  8.00000000E-01  1.50000000E+00  1.50000000E+00  8.00000000E-01
  8.00000000E-01  1.50000000E+00  1.50000000E+00  8.00000000E-01  8.00000000E-01
  1.50000000E+00  1.50000000E+00  8.00000000E-01  8.00000000E-01  1.50000000E+00
  1.50000000E+00  8.00000000E-01  8.00000000E-01  1.50000000E+00  1.50000000E+00
  8.00000000E-01  8.00000000E-01  1.50000000E+00  1.50000000E+00  8.00000000E-01
  8.00000000E-01  1.50000000E+00  1.50000000E+00  8.00000000E-01  8.00000000E-01
  1.50000000E+00  1.50000000E+00  8.00000000E-01  8.00000000E-01  1.50000000E+00
  1.50000000E+00  8.00000000E-01  8.00000000E-01  1.50000000E+00  1.50000000E+00
  8.00000000E-01  8.00000000E-01  1.50000000E+00  1.50000000E+00  8.00000000E-01
  8.00000000E-01  1.50000000E+00  1.50000000E+00  8.00000000E-01  8.00000000E-01
  1.50000000E+00  1.50000000E+00  8.00000000E-01  8.00000000E-01  1.50000000E+00
  1.50000000E+00  8.00000000E-01  8.00000000E-01  1.50000000E+00  1.50000000E+00
  8.00000000E-01  8.00000000E-01  1.50000000E+00  1.50000000E+00  8.00000000E-01
  8.00000000E-01  1.50000000E+00  1.50000000E+00  8.00000000E-01  8.00000000E-01
  1.50000000E+00  1.50000000E+00  8.00000000E-01  8.00000000E-01  1.50000000E+00
  1.50000000E+00  8.00000000E-01  8.00000000E-01  1.50000000E+00  1.50000000E+00
  8.00000000E-01  8.00000000E-01  1.50000000E+00  1.50000000E+00  8.00000000E-01
  8.00000000E-01  1.50000000E+00  1.50000000E+00  8.00000000E-01  8.00000000E-01
  1.50000000E+00  1.50000000E+00  8.00000000E-01  8.00000000E-01  1.50000000E+00
  1.50000000E+00  8.00000000E-01  8.00000000E-01  1.50000000E+00  1.50000000E+00
  8.00000000E-01  8.00000000E-01  1.50000000E+00  1.50000000E+00  8.00000000E-01
  8.00000000E-01  1.50000000E+00  1.50000000E+00  8.00000000E-01  8.00000000E-01
  1.50000000E+00  1.50000000E+00  8.00000000E-01  8.00000000E-01  1.50000000E+00
  1.50000000E+00  8.00000000E-01  8.00000000E-01  1.50000000E+00  1.50000000E+00
  8.00000000E-01  8.00000000E-01  1.50000000E+00  1.50000000E+00  8.00000000E-01
  8.00000000E-01  1.50000000E+00  1.50000000E+00  8.00000000E-01  8.00000000E-01
  1.50000000E+00  1.50000000E+00  8.00000000E-01  8.00000000E-01  1.50000000E+00
  1.50000000E+00  8.00000000E-01  8.00000000E-01  1.50000000E+00  1.50000000E+00
  8.00000000E-01  8.00000000E-01  1.50000000E+00  1.50000000E+00  8.00000000E-01
  8.00000000E-01  1.50000000E+00  1.50000000E+00  8.00000000E-01  8.00000000E-01
  1.50000000E+00  1.50000000E+00  8.00000000E-01  8.00000000E-01  1.50000000E+00
  1.50000000E+00  8.00000000E-01  8.00000000E-01  1.50000000E+00  1.50000000E+00
  8.00000000E-01  8.00000000E-01  1.50000000E+00  1.50000000E+00  8.00000000E-01
  8.00000000E-01  1.50000000E+00  1.50000000E+00  8.00000000E-01  8.00000000E-01
  1.50000000E+00  1.50000000E+00  8.00000000E-01  8.00000000E-01  1.50000000E+00
  1.50000000E+00  8.00000000E-01  8.00000000E-01  1.50000000E+00  1.50000000E+00
  8.00000000E-01  8.00000000E-01  1.50000000E+00  1.50000000E+00  8.00000000E-01
  8.00000000E-01  1.50000000E+00  1.50000000E+00  8.00000000E-01  8.00000000E-01
  1.50000000E+00  1.50000000E+00  8.00000000E-01  8.00000000E-01  1.50000000E+00
  1.50000000E+00  8.00000000E-01  8.00000000E-01  1.50000000E+00  1.50000000E+00
  8.00000000E-01  8.00000000E-01  1.50000000E+00  1.50000000E+00  8.00000000E-01
  8.00000000E-01  1.50000000E+00  1.50000000E+00  8.00000000E-01  8.00000000E-01
  1.50000000E+00  1.50000000E+00  8.00000000E-01  8.00000000E-01  1.50000000E+00
  1.50000000E+00  8.00000000E-01  8.00000000E-01  1.50000000E+00  1.50000000E+00
  8.00000000E-01  8.00000000E-01  1.50000000E+00  1.50000000E+00  8.00000000E-01
  8.00000000E-01  1.50000000E+00  1.50000000E+00  8.00000000E-01  8.00000000E-01
  1.50000000E+00  1.50000000E+00  8.00000000E-01  8.00000000E-01  1.50000000E+00
  1.50000000E+00  8.00000000E-01  8.00000000E-01  1.50000000E+00  1.50000000E+00
  8.00000000E-01  8.00000000E-01  1.50000000E+00  1.50000000E+00  8.00000000E-01
  8.00000000E-01  1.50000000E+00  1.50000000E+00  8.00000000E-01  8.00000000E-01
  1.50000000E+00  1.50000000E+00  8.00000000E-01  8.00000000E-01  1.50000000E+00
  1.50000000E+00  8.00000000E-01  8.00000000E-01  1.50000000E+00  1.50000000E+00
  8.00000000E-01  8.00000000E-01  1.50000000E+00  1.50000000E+00  8.00000000E-01
  8.00000000E-01  1.50000000E+00  1.50000000E+00  8.00000000E-01  8.00000000E-01
  1.50000000E+00  1.50000000E+00  8.00000000E-01  8.00000000E-01  1.50000000E+00
  1.50000000E+00  8.00000000E-01  8.00000000E-01  1.50000000E+00  1.50000000E+00
  8.00000000E-01  8.00000000E-01  1.50000000E+00  1.50000000E+00  8.00000000E-01
  8.00000000E-01  1.50000000E+00  1.50000000E+00  8.00000000E-01  8.00000000E-01
  1.50000000E+00  1.50000000E+00  8.00000000E-01  8.00000000E-01  1.50000000E+00
  1.50000000E+00  8.00000000E-01  8.00000000E-01  1.50000000E+00  1.50000000E+00
  8.00000000E-01  8.00000000E-01  1.50000000E+00  1.50000000E+00  8.00000000E-01
  8.00000000E-01  1.50000000E+00  1.50000000E+00  8.00000000E-01  8.00000000E-01
  1.50000000E+00  1.50000000E+00  8.00000000E-01  8.00000000E-01  1.50000000E+00
  1.50000000E+00  8.00000000E-01  8.00000000E-01  1.50000000E+00  1.50000000E+00
  8.00000000E-01  8.00000000E-01  1.50000000E+00  1.50000000E+00  8.00000000E-01
  8.00000000E-01  1.50000000E+00  1.50000000E+00  8.00000000E-01  8.00000000E-01
  1.50000000E+00  1.50000000E+00  8.00000000E-01  8.00000000E-01  1.50000000E+00
  1.50000000E+00  8.00000000E-01  8.00000000E-01  1.50000000E+00  1.50000000E+00
  8.00000000E-01  8.00000000E-01  1.50000000E+00  1.50000000E+00  8.00000000E-01
  8.00000000E-01  1.50000000E+00  1.50000000E+00  8.00000000E-01  8.00000000E-01
  1.50000000E+00  1.50000000E+00  8.00000000E-01  8.00000000E-01  1.50000000E+00
  1.50000000E+00  8.00000000E-01  8.00000000E-01  1.50000000E+00  1.50000000E+00
  8.00000000E-01  8.00000000E-01  1.50000000E+00  1.50000000E+00  8.00000000E-01
  8.00000000E-01  1.50000000E+00  1.50000000E+00  8.00000000E-01  8.00000000E-01
  1.50000000E+00  1.50000000E+00  8.00000000E-01  8.00000000E-01  1.50000000E+00
  1.50000000E+00  8.00000000E-01  8.00000000E-01  1.50000000E+00  1.50000000E+00
  8.00000000E-01  8.00000000E-01  1.50000000E+00  1.50000000E+00  8.00000000E-01
  8.00000000E-01  1.50000000E+00  1.50000000E+00  8.00000000E-01  8.00000000E-01
  1.50000000E+00  1.50000000E+00  8.00000000E-01  8.00000000E-01  1.50000000E+00
  1.50000000E+00  8.00000000E-01  8.00000000E-01  1.50000000E+00  1.50000000E+00
  8.00000000E-01  8.00000000E-01  1.50000000E+00  1.50000000E+00  8.00000000E-01
  8.00000000E-01  1.50000000E+00  1.50000000E+00  8.00000000E-01  8.00000000E-01
  1.50000000E+00  1.50000000E+00  8.00000000E-01  8.00000000E-01  1.50000000E+00
  1.50000000E+00  8.00000000E-01  8.00000000E-01  1.50000000E+00  1.50000000E+00
  8.00000000E-01  8.00000000E-01  1.50000000E+00  1.50000000E+00  8.00000000E-01
  8.00000000E-01  1.50000000E+00  1.50000000E+00  8.00000000E-01  8.00000000E-01
  1.50000000E+00  1.50000000E+00  8.00000000E-01  8.00000000E-01  1.50000000E+00
  1.50000000E+00  8.00000000E-01  8.00000000E-01  1.50000000E+00  1.50000000E+00
  8.00000000E-01  8.00000000E-01  1.50000000E+00  1.50000000E+00  8.00000000E-01
  8.00000000E-01  1.50000000E+00  1.50000000E+00  8.00000000E-01  8.00000000E-01
  1.50000000E+00  1.50000000E+00  8.00000000E-01  8.00000000E-01  1.50000000E+00
  1.50000000E+00  8.00000000E-01  8.00000000E-01  1.50000000E+00  1.50000000E+00
  8.00000000E-01  8.00000000E-01  1.50000000E+00  1.50000000E+00  8.00000000E-01
  8.00000000E-01  1.50000000E+00  1.50000000E+00  8.00000000E-01  8.00000000E-01
  1.50000000E+00  1.50000000E+00  8.00000000E-01  8.00000000E-01  1.50000000E+00
  1.50000000E+00  8.00000000E-01  8.00000000E-01  1.50000000E+00  1.50000000E+00
  8.00000000E-01  8.00000000E-01  1.50000000E+00  1.50000000E+00  8.00000000E-01
  8.00000000E-01  1.50000000E+00  1.50000000E+00  8.00000000E-01  8.00000000E-01
  1.50000000E+00  1.50000000E+00  8.00000000E-01  8.00000000E-01  1.50000000E+00
  1.50000000E+00  8.00000000E-01  8.00000000E-01  1.50000000E+00  1.50000000E+00
  8.00000000E-01  8.00000000E-01  1.50000000E+00  1.50000000E+00  8.00000000E-01
  8.00000000E-01  1.50000000E+00  1.50000000E+00  8.00000000E-01  8.00000000E-01
  1.50000000E+00  1.50000000E+00  8.00000000E-01  8.00000000E-01  1.50000000E+00
  1.50000000E+00  8.00000000E-01  8.00000000E-01  1.50000000E+00  1.50000000E+00
  8.00000000E-01  8.00000000E-01  1.50000000E+00  1.50000000E+00  8.00000000E-01
  8.00000000E-01  1.50000000E+00  1.50000000E+00  8.00000000E-01  8.00000000E-01
  1.50000000E+00  1.50000000E+00  8.00000000E-01  8.00000000E-01  1.50000000E+00
  1.50000000E+00  8.00000000E-01  8.00000000E-01  1.50000000E+00  1.50000000E+00
  8.00000000E-01  8.00000000E-01  1.50000000E+00  1.50000000E+00  8.00000000E-01
  8.00000000E-01  1.50000000E+00  1.50000000E+00  8.00000000E-01  8.00000000E-01
  1.50000000E+00  1.50000000E+00  8.00000000E-01  8.00000000E-01  1.50000000E+00
  1.50000000E+00  8.00000000E-01  8.00000000E-01  1.50000000E+00  1.50000000E+00
  8.00000000E-01  8.00000000E-01  1.50000000E+00  1.50000000E+00  8.00000000E-01
  8.00000000E-01  1.50000000E+00  1.50000000E+00  8.00000000E-01  8.00000000E-01
  1.50000000E+00  1.50000000E+00  8.00000000E-01  8.00000000E-01  1.50000000E+00
  1.50000000E+00  8.00000000E-01  8.00000000E-01  1.50000000E+00  1.50000000E+00
  8.00000000E-01  8.00000000E-01  1.50000000E+00  1.50000000E+00  8.00000000E-01
  8.00000000E-01  1.50000000E+00  1.50000000E+00  8.00000000E-01  8.00000000E-01
  1.50000000E+00  1.50000000E+00  8.00000000E-01  8.00000000E-01  1.50000000E+00
  1.50000000E+00  8.00000000E-01  8.00000000E-01  1.50000000E+00  1.50000000E+00
  8.00000000E-01  8.00000000E-01  1.50000000E+00  1.50000000E+00  8.00000000E-01
  8.00000000E-01  1.50000000E+00  1.50000000E+00  8.00000000E-01  8.00000000E-01
  1.50000000E+00  1.50000000E+00  8.00000000E-01  8.00000000E-01  1.50000000E+00
  1.50000000E+00  8.00000000E-01  8.00000000E-01  1.50000000E+00  1.50000000E+00
  8.00000000E-01  8.00000000E-01  1.50000000E+00  1.50000000E+00  8.00000000E-01
  8.00000000E-01  1.50000000E+00  1.50000000E+00  8.00000000E-01  8.00000000E-01
  1.50000000E+00  1.50000000E+00  8.00000000E-01  8.00000000E-01  1.50000000E+00
  1.50000000E+00  8.00000000E-01  8.00000000E-01  1.50000000E+00  1.50000000E+00
  8.00000000E-01  8.00000000E-01  1.50000000E+00  1.50000000E+00  8.00000000E-01
  8.00000000E-01  1.50000000E+00  1.50000000E+00  8.00000000E-01  8.00000000E-01
  1.50000000E+00  1.50000000E+00  8.00000000E-01  8.00000000E-01  1.50000000E+00
  1.50000000E+00  8.00000000E-01  8.00000000E-01  1.50000000E+00  1.50000000E+00
  8.00000000E-01  8.00000000E-01  1.50000000E+00  1.50000000E+00  8.00000000E-01
  8.00000000E-01  1.50000000E+00  1.50000000E+00  8.00000000E-01  8.00000000E-01
  1.50000000E+00  1.50000000E+00  8.00000000E-01  8.00000000E-01  1.50000000E+00
  1.50000000E+00  8.00000000E-01  8.00000000E-01  1.50000000E+00  1.50000000E+00
  8.00000000E-01  8.00000000E-01  1.50000000E+00  1.50000000E+00  8.00000000E-01
  8.00000000E-01  1.50000000E+00  1.50000000E+00  8.00000000E-01  8.00000000E-01
  1.50000000E+00  1.50000000E+00  8.00000000E-01  8.00000000E-01  1.50000000E+00
  1.50000000E+00  8.00000000E-01  8.00000000E-01  1.50000000E+00  1.50000000E+00
  8.00000000E-01  8.00000000E-01  1.50000000E+00  1.50000000E+00  8.00000000E-01
  8.00000000E-01  1.50000000E+00  1.50000000E+00  8.00000000E-01  8.00000000E-01
  1.50000000E+00  1.50000000E+00  8.00000000E-01  8.00000000E-01  1.50000000E+00
  1.50000000E+00  8.00000000E-01  8.00000000E-01  1.50000000E+00  1.50000000E+00
  8.00000000E-01  8.00000000E-01  1.50000000E+00  1.50000000E+00  8.00000000E-01
  8.00000000E-01  1.50000000E+00  1.50000000E+00  8.00000000E-01  8.00000000E-01
  1.50000000E+00  1.50000000E+00  8.00000000E-01  8.00000000E-01  1.50000000E+00
  1.50000000E+00  8.00000000E-01  8.00000000E-01  1.50000000E+00  1.50000000E+00
  8.00000000E-01  8.00000000E-01  1.50000000E+00  1.50000000E+00  8.00000000E-01
  8.00000000E-01  1.50000000E+00  1.50000000E+00  8.00000000E-01  8.00000000E-01
  1.50000000E+00  1.50000000E+00  8.00000000E-01  8.00000000E-01  1.50000000E+00
  1.50000000E+00  8.00000000E-01  8.00000000E-01  1.50000000E+00  1.50000000E+00
  8.00000000E-01  8.00000000E-01  1.50000000E+00  1.50000000E+00  8.00000000E-01
  8.00000000E-01  1.50000000E+00  1.50000000E+00  8.00000000E-01  8.00000000E-01
  1.50000000E+00  1.50000000E+00  8.00000000E-01  8.00000000E-01  1.50000000E+00
  1.50000000E+00  8.00000000E-01  8.00000000E-01  1.50000000E+00  1.50000000E+00
  8.00000000E-01  8.00000000E-01  1.50000000E+00  1.50000000E+00  8.00000000E-01
  8.00000000E-01  1.50000000E+00  1.50000000E+00  8.00000000E-01  8.00000000E-01
  1.50000000E+00  1.50000000E+00  8.00000000E-01  8.00000000E-01  1.50000000E+00
  1.50000000E+00  8.00000000E-01  8.00000000E-01  1.50000000E+00  1.50000000E+00
  8.00000000E-01  8.00000000E-01  1.50000000E+00  1.50000000E+00  8.00000000E-01
  8.00000000E-01  1.50000000E+00  1.50000000E+00  8.00000000E-01  8.00000000E-01
  1.50000000E+00  1.50000000E+00  8.00000000E-01  8.00000000E-01  1.50000000E+00
  1.50000000E+00  8.00000000E-01  8.00000000E-01  1.50000000E+00  1.50000000E+00
  8.00000000E-01  8.00000000E-01  1.50000000E+00  1.50000000E+00  8.00000000E-01
  8.00000000E-01  1.50000000E+00  1.50000000E+00  8.00000000E-01  8.00000000E-01
  1.50000000E+00  1.50000000E+00  8.00000000E-01  8.00000000E-01  1.50000000E+00
  1.50000000E+00  8.00000000E-01  8.00000000E-01  1.50000000E+00  1.50000000E+00
  8.00000000E-01  8.00000000E-01  1.50000000E+00  1.50000000E+00  8.00000000E-01
  8.00000000E-01  1.50000000E+00  1.50000000E+00  8.00000000E-01  8.00000000E-01
  1.50000000E+00  1.50000000E+00  8.00000000E-01  8.00000000E-01  1.50000000E+00
  1.50000000E+00  8.00000000E-01  8.00000000E-01  1.50000000E+00  1.50000000E+00
  8.00000000E-01  8.00000000E-01  1.50000000E+00  1.50000000E+00  8.00000000E-01
  8.00000000E-01  1.50000000E+00  1.50000000E+00  8.00000000E-01  8.00000000E-01
  1.50000000E+00  1.50000000E+00  8.00000000E-01  8.00000000E-01  1.50000000E+00
  1.50000000E+00  8.00000000E-01  8.00000000E-01  1.50000000E+00  1.50000000E+00
  8.00000000E-01  8.00000000E-01  1.50000000E+00  1.50000000E+00  8.00000000E-01
  8.00000000E-01  1.50000000E+00  1.50000000E+00  8.00000000E-01  8.00000000E-01
  1.50000000E+00  1.50000000E+00  8.00000000E-01  8.00000000E-01  1.50000000E+00
  1.50000000E+00  8.00000000E-01  8.00000000E-01  1.50000000E+00  1.50000000E+00
  8.00000000E-01  8.00000000E-01  1.50000000E+00  1.50000000E+00  8.00000000E-01
  8.00000000E-01  1.50000000E+00  1.50000000E+00  8.00000000E-01  8.00000000E-01
  1.50000000E+00  1.50000000E+00  8.00000000E-01  8.00000000E-01  1.50000000E+00
  1.50000000E+00  8.00000000E-01  8.00000000E-01  1.50000000E+00  1.50000000E+00
  8.00000000E-01  8.00000000E-01  1.50000000E+00  1.50000000E+00  8.00000000E-01
  8.00000000E-01  1.50000000E+00  1.50000000E+00  8.00000000E-01  8.00000000E-01
  1.50000000E+00  1.50000000E+00  8.00000000E-01  8.00000000E-01  1.50000000E+00
  1.50000000E+00  8.00000000E-01  8.00000000E-01  1.50000000E+00  1.50000000E+00
  8.00000000E-01  8.00000000E-01  1.50000000E+00  1.50000000E+00  8.00000000E-01
  8.00000000E-01  1.50000000E+00  1.50000000E+00  8.00000000E-01  8.00000000E-01
  1.50000000E+00  1.50000000E+00  8.00000000E-01  8.00000000E-01  1.50000000E+00
  1.50000000E+00  8.00000000E-01  8.00000000E-01  1.50000000E+00  1.50000000E+00
  8.00000000E-01  8.00000000E-01  1.50000000E+00  1.50000000E+00  8.00000000E-01
  8.00000000E-01  1.50000000E+00  1.50000000E+00  8.00000000E-01  8.00000000E-01
  1.50000000E+00  1.50000000E+00  8.00000000E-01  8.00000000E-01  1.50000000E+00
  1.50000000E+00  8.00000000E-01  8.00000000E-01  1.50000000E+00  1.50000000E+00
  8.00000000E-01  8.00000000E-01  1.50000000E+00  1.50000000E+00  8.00000000E-01
  8.00000000E-01  1.50000000E+00  1.50000000E+00  8.00000000E-01  8.00000000E-01
  1.50000000E+00  1.50000000E+00  8.00000000E-01  8.00000000E-01  1.50000000E+00
  1.50000000E+00  8.00000000E-01  8.00000000E-01  1.50000000E+00  1.50000000E+00
  8.00000000E-01  8.00000000E-01  1.50000000E+00  1.50000000E+00  8.00000000E-01
  8.00000000E-01  1.50000000E+00  1.50000000E+00  8.00000000E-01  8.00000000E-01
  1.50000000E+00  1.50000000E+00  8.00000000E-01  8.00000000E-01  1.50000000E+00
  1.50000000E+00  8.00000000E-01  8.00000000E-01  1.50000000E+00  1.50000000E+00
  8.00000000E-01  8.00000000E-01  1.50000000E+00  1.50000000E+00  8.00000000E-01
  8.00000000E-01  1.50000000E+00  1.50000000E+00  8.00000000E-01  8.00000000E-01
  1.50000000E+00  1.50000000E+00  8.00000000E-01  8.00000000E-01  1.50000000E+00
  1.50000000E+00  8.00000000E-01  8.00000000E-01  1.50000000E+00  1.50000000E+00
  8.00000000E-01  8.00000000E-01  1.50000000E+00  1.50000000E+00  8.00000000E-01
  8.00000000E-01  1.50000000E+00  1.50000000E+00  8.00000000E-01  8.00000000E-01
  1.50000000E+00  1.50000000E+00  8.00000000E-01  8.00000000E-01  1.50000000E+00
  1.50000000E+00  8.00000000E-01  8.00000000E-01  1.50000000E+00  1.50000000E+00
  8.00000000E-01  8.00000000E-01  1.50000000E+00  1.50000000E+00  8.00000000E-01
  8.00000000E-01  1.50000000E+00  1.50000000E+00  8.00000000E-01  8.00000000E-01
  1.50000000E+00  1.50000000E+00  8.00000000E-01  8.00000000E-01  1.50000000E+00
  1.50000000E+00  8.00000000E-01  8.00000000E-01  1.50000000E+00  1.50000000E+00
  8.00000000E-01  8.00000000E-01  1.50000000E+00  1.50000000E+00  8.00000000E-01
  8.00000000E-01  1.50000000E+00  1.50000000E+00  8.00000000E-01  8.00000000E-01
  1.50000000E+00  1.50000000E+00  8.00000000E-01  8.00000000E-01  1.50000000E+00
  1.50000000E+00  8.00000000E-01  8.00000000E-01  1.50000000E+00  1.50000000E+00
  8.00000000E-01  8.00000000E-01  1.50000000E+00  1.50000000E+00  8.00000000E-01
  8.00000000E-01  1.50000000E+00  1.50000000E+00  8.00000000E-01  8.00000000E-01
  1.50000000E+00  1.50000000E+00  8.00000000E-01  8.00000000E-01  1.50000000E+00
  1.50000000E+00  8.00000000E-01  8.00000000E-01  1.50000000E+00  1.50000000E+00
  8.00000000E-01  8.00000000E-01  1.50000000E+00  1.50000000E+00  8.00000000E-01
  8.00000000E-01  1.50000000E+00  1.50000000E+00  8.00000000E-01  8.00000000E-01
  1.50000000E+00  1.50000000E+00  8.00000000E-01  8.00000000E-01  1.50000000E+00
  1.50000000E+00  8.00000000E-01  8.00000000E-01  1.50000000E+00  1.50000000E+00
  8.00000000E-01  8.00000000E-01  1.50000000E+00  1.50000000E+00  8.00000000E-01
  8.00000000E-01  1.50000000E+00  1.50000000E+00  8.00000000E-01  8.00000000E-01
  1.50000000E+00  1.50000000E+00  8.00000000E-01  8.00000000E-01  1.50000000E+00
  1.50000000E+00  8.00000000E-01  8.00000000E-01  1.50000000E+00  1.50000000E+00
  8.00000000E-01  8.00000000E-01  1.50000000E+00  1.50000000E+00  8.00000000E-01
  8.00000000E-01  1.50000000E+00  1.50000000E+00  8.00000000E-01  8.00000000E-01
  1.50000000E+00  1.50000000E+00  8.00000000E-01  8.00000000E-01  1.50000000E+00
  1.50000000E+00  8.00000000E-01  8.00000000E-01  1.50000000E+00  1.50000000E+00
  8.00000000E-01  8.00000000E-01  1.50000000E+00  1.50000000E+00  8.00000000E-01
  8.00000000E-01  1.50000000E+00  1.50000000E+00  8.00000000E-01  8.00000000E-01
  1.50000000E+00  1.50000000E+00  8.00000000E-01  8.00000000E-01  1.50000000E+00
  1.50000000E+00  8.00000000E-01  8.00000000E-01  1.50000000E+00  1.50000000E+00
  8.00000000E-01  8.00000000E-01  1.50000000E+00  1.50000000E+00  8.00000000E-01
  8.00000000E-01  1.50000000E+00  1.50000000E+00  8.00000000E-01  8.00000000E-01
  1.50000000E+00  1.50000000E+00  8.00000000E-01  8.00000000E-01  1.50000000E+00
  1.50000000E+00  8.00000000E-01  8.00000000E-01  1.50000000E+00  1.50000000E+00
  8.00000000E-01  8.00000000E-01  1.50000000E+00  1.50000000E+00  8.00000000E-01
  8.00000000E-01  1.50000000E+00  1.50000000E+00  8.00000000E-01  8.00000000E-01
  1.50000000E+00  1.50000000E+00  8.00000000E-01  8.00000000E-01  1.50000000E+00
  1.50000000E+00  8.00000000E-01  8.00000000E-01  1.50000000E+00  1.50000000E+00
  8.00000000E-01  8.00000000E-01  1.50000000E+00  1.50000000E+00  8.00000000E-01
  8.00000000E-01  1.50000000E+00  1.50000000E+00  8.00000000E-01  8.00000000E-01
  1.50000000E+00  1.50000000E+00  8.00000000E-01  8.00000000E-01  1.50000000E+00
  1.50000000E+00  8.00000000E-01  8.00000000E-01  1.50000000E+00  1.50000000E+00
  8.00000000E-01  8.00000000E-01  1.50000000E+00  1.50000000E+00  8.00000000E-01
  8.00000000E-01  1.50000000E+00  1.50000000E+00  8.00000000E-01  8.00000000E-01
  1.50000000E+00  1.50000000E+00  8.00000000E-01  8.00000000E-01  1.50000000E+00
  1.50000000E+00  8.00000000E-01  8.00000000E-01  1.50000000E+00  1.50000000E+00
  8.00000000E-01  8.00000000E-01  1.50000000E+00  1.50000000E+00  8.00000000E-01
  8.00000000E-01  1.50000000E+00  1.50000000E+00  8.00000000E-01  8.00000000E-01
  1.50000000E+00  1.50000000E+00  8.00000000E-01  8.00000000E-01  1.50000000E+00
  1.50000000E+00  8.00000000E-01  8.00000000E-01  1.50000000E+00  1.50000000E+00
  8.00000000E-01  8.00000000E-01  1.50000000E+00  1.50000000E+00  8.00000000E-01
  8.00000000E-01  1.50000000E+00  1.50000000E+00  8.00000000E-01  8.00000000E-01
  1.50000000E+00  1.50000000E+00  8.00000000E-01  8.00000000E-01  1.50000000E+00
  1.50000000E+00  8.00000000E-01  8.00000000E-01  1.50000000E+00  1.50000000E+00
  8.00000000E-01  8.00000000E-01  1.50000000E+00  1.50000000E+00  8.00000000E-01
  8.00000000E-01  1.50000000E+00  1.50000000E+00  8.00000000E-01  8.00000000E-01
  1.50000000E+00  1.50000000E+00  8.00000000E-01  8.00000000E-01  1.50000000E+00
  1.50000000E+00  8.00000000E-01  8.00000000E-01  1.50000000E+00  1.50000000E+00
  8.00000000E-01  8.00000000E-01  1.50000000E+00  1.50000000E+00  8.00000000E-01
  8.00000000E-01  1.50000000E+00  1.50000000E+00  8.00000000E-01  8.00000000E-01
  1.50000000E+00  1.50000000E+00  8.00000000E-01  8.00000000E-01  1.50000000E+00
  1.50000000E+00  8.00000000E-01  8.00000000E-01  1.50000000E+00  1.50000000E+00
  8.00000000E-01  8.00000000E-01  1.50000000E+00  1.50000000E+00  8.00000000E-01
  8.00000000E-01  1.50000000E+00  1.50000000E+00  8.00000000E-01  8.00000000E-01
  1.50000000E+00  1.50000000E+00  8.00000000E-01  8.00000000E-01  1.50000000E+00
  1.50000000E+00  8.00000000E-01  8.00000000E-01  1.50000000E+00  1.50000000E+00
  8.00000000E-01  8.00000000E-01  1.50000000E+00  1.50000000E+00  8.00000000E-01
  8.00000000E-01  1.50000000E+00  1.50000000E+00  8.00000000E-01  8.00000000E-01
  1.50000000E+00  1.50000000E+00  8.00000000E-01  8.00000000E-01  1.50000000E+00
  1.50000000E+00  8.00000000E-01  8.00000000E-01  1.50000000E+00  1.50000000E+00
  8.00000000E-01  8.00000000E-01  1.50000000E+00  1.50000000E+00  8.00000000E-01
  8.00000000E-01  1.50000000E+00  1.50000000E+00  8.00000000E-01  8.00000000E-01
  1.50000000E+00  1.50000000E+00  8.00000000E-01  8.00000000E-01  1.50000000E+00
  1.50000000E+00  8.00000000E-01  8.00000000E-01  1.50000000E+00  1.50000000E+00
  8.00000000E-01  8.00000000E-01  1.50000000E+00  1.50000000E+00  8.00000000E-01
  8.00000000E-01  1.50000000E+00  1.50000000E+00  8.00000000E-01  8.00000000E-01
  1.50000000E+00  1.50000000E+00  8.00000000E-01  8.00000000E-01  1.50000000E+00
  1.50000000E+00  8.00000000E-01  8.00000000E-01  1.50000000E+00  1.50000000E+00
  8.00000000E-01  8.00000000E-01  1.50000000E+00  1.50000000E+00  8.00000000E-01
  8.00000000E-01  1.50000000E+00  1.50000000E+00  8.00000000E-01  8.00000000E-01
  1.50000000E+00  1.50000000E+00  8.00000000E-01  8.00000000E-01  1.50000000E+00
  1.50000000E+00  8.00000000E-01  8.00000000E-01  1.50000000E+00  1.50000000E+00
  8.00000000E-01  8.00000000E-01  1.50000000E+00  1.50000000E+00  8.00000000E-01
  8.00000000E-01  1.50000000E+00  1.50000000E+00  8.00000000E-01  8.00000000E-01
  1.50000000E+00  1.50000000E+00  8.00000000E-01  8.00000000E-01  1.50000000E+00
  1.50000000E+00  8.00000000E-01  8.00000000E-01  1.50000000E+00  1.50000000E+00
  8.00000000E-01  8.00000000E-01  1.50000000E+00  1.50000000E+00  8.00000000E-01
  8.00000000E-01  1.50000000E+00  1.50000000E+00  8.00000000E-01  8.00000000E-01
  1.50000000E+00  1.50000000E+00  8.00000000E-01  8.00000000E-01  1.50000000E+00
  1.50000000E+00  8.00000000E-01  8.00000000E-01  1.50000000E+00  1.50000000E+00
  8.00000000E-01  8.00000000E-01  1.50000000E+00  1.50000000E+00  8.00000000E-01
  8.00000000E-01  1.50000000E+00  1.50000000E+00  8.00000000E-01  8.00000000E-01
  1.50000000E+00  1.50000000E+00  8.00000000E-01  8.00000000E-01  1.50000000E+00
  1.50000000E+00  8.00000000E-01  8.00000000E-01  1.50000000E+00  1.50000000E+00
  8.00000000E-01  8.00000000E-01  1.50000000E+00  1.50000000E+00  8.00000000E-01
  8.00000000E-01  1.50000000E+00  1.50000000E+00  8.00000000E-01  8.00000000E-01
  1.50000000E+00  1.50000000E+00  8.00000000E-01  8.00000000E-01  1.50000000E+00
  1.50000000E+00  8.00000000E-01  8.00000000E-01  1.50000000E+00  1.50000000E+00
  8.00000000E-01  8.00000000E-01  1.50000000E+00  1.50000000E+00  8.00000000E-01
  8.00000000E-01  1.50000000E+00  1.50000000E+00  8.00000000E-01  8.00000000E-01
  1.50000000E+00  1.50000000E+00  8.00000000E-01  8.00000000E-01  1.50000000E+00
  1.50000000E+00  8.00000000E-01  8.00000000E-01  1.50000000E+00  1.50000000E+00
  8.00000000E-01  8.00000000E-01  1.50000000E+00  1.50000000E+00  8.00000000E-01
  8.00000000E-01  1.50000000E+00  1.50000000E+00  8.00000000E-01  8.00000000E-01
  1.50000000E+00  1.50000000E+00  8.00000000E-01  8.00000000E-01  1.50000000E+00
  1.50000000E+00  8.00000000E-01  8.00000000E-01  1.50000000E+00  1.50000000E+00
  8.00000000E-01  8.00000000E-01  1.50000000E+00  1.50000000E+00  8.00000000E-01
  8.00000000E-01  1.50000000E+00  1.50000000E+00  8.00000000E-01  8.00000000E-01
  1.50000000E+00  1.50000000E+00  8.00000000E-01  8.00000000E-01  1.50000000E+00
  1.50000000E+00  8.00000000E-01  8.00000000E-01  1.50000000E+00  1.50000000E+00
  8.00000000E-01  8.00000000E-01  1.50000000E+00  1.50000000E+00  8.00000000E-01
  8.00000000E-01  1.50000000E+00  1.50000000E+00  8.00000000E-01  8.00000000E-01
  1.50000000E+00  1.50000000E+00  8.00000000E-01  8.00000000E-01  1.50000000E+00
  1.50000000E+00  8.00000000E-01  8.00000000E-01  1.50000000E+00  1.50000000E+00
  8.00000000E-01  8.00000000E-01  1.50000000E+00  1.50000000E+00  8.00000000E-01
  8.00000000E-01  1.50000000E+00  1.50000000E+00  8.00000000E-01  8.00000000E-01
  1.50000000E+00  1.50000000E+00  8.00000000E-01  8.00000000E-01  1.50000000E+00
  1.50000000E+00  8.00000000E-01  8.00000000E-01  1.50000000E+00  1.50000000E+00
  8.00000000E-01  8.00000000E-01  1.50000000E+00  1.50000000E+00  8.00000000E-01
  8.00000000E-01  1.50000000E+00  1.50000000E+00  8.00000000E-01  8.00000000E-01
  1.50000000E+00  1.50000000E+00  8.00000000E-01  8.00000000E-01  1.50000000E+00
  1.50000000E+00  8.00000000E-01  8.00000000E-01  1.50000000E+00  1.50000000E+00
  8.00000000E-01  8.00000000E-01  1.50000000E+00  1.50000000E+00  8.00000000E-01
  8.00000000E-01  1.50000000E+00  1.50000000E+00  8.00000000E-01  8.00000000E-01
  1.50000000E+00  1.50000000E+00  8.00000000E-01  8.00000000E-01  1.50000000E+00
  1.50000000E+00  8.00000000E-01  8.00000000E-01  1.50000000E+00  1.50000000E+00
  8.00000000E-01  8.00000000E-01  1.50000000E+00  1.50000000E+00  8.00000000E-01
  8.00000000E-01  1.50000000E+00  1.50000000E+00  8.00000000E-01  8.00000000E-01
  1.50000000E+00  1.50000000E+00  8.00000000E-01  8.00000000E-01  1.50000000E+00
  1.50000000E+00  8.00000000E-01  8.00000000E-01  1.50000000E+00  1.50000000E+00
  8.00000000E-01  8.00000000E-01  1.50000000E+00  1.50000000E+00  8.00000000E-01
  8.00000000E-01  1.50000000E+00  1.50000000E+00  8.00000000E-01  8.00000000E-01
  1.50000000E+00  1.50000000E+00  8.00000000E-01  8.00000000E-01  1.50000000E+00
  1.50000000E+00  8.00000000E-01  8.00000000E-01  1.50000000E+00  1.50000000E+00
  8.00000000E-01  8.00000000E-01  1.50000000E+00  1.50000000E+00  8.00000000E-01
  8.00000000E-01  1.50000000E+00  1.50000000E+00  8.00000000E-01  8.00000000E-01
  1.50000000E+00  1.50000000E+00  8.00000000E-01  8.00000000E-01  1.50000000E+00
  1.50000000E+00  8.00000000E-01  8.00000000E-01  1.50000000E+00  1.50000000E+00
  8.00000000E-01  8.00000000E-01  1.50000000E+00  1.50000000E+00  8.00000000E-01
  8.00000000E-01  1.50000000E+00  1.50000000E+00  8.00000000E-01  8.00000000E-01
  1.50000000E+00  1.50000000E+00  8.00000000E-01  8.00000000E-01  1.50000000E+00
  1.50000000E+00  8.00000000E-01  8.00000000E-01  1.50000000E+00  1.50000000E+00
  8.00000000E-01  8.00000000E-01  1.50000000E+00  1.50000000E+00  8.00000000E-01
  8.00000000E-01  1.50000000E+00  1.50000000E+00  8.00000000E-01  8.00000000E-01
  1.50000000E+00  1.50000000E+00  8.00000000E-01  8.00000000E-01  1.50000000E+00
  1.50000000E+00  8.00000000E-01  8.00000000E-01  1.50000000E+00  1.50000000E+00
  8.00000000E-01  8.00000000E-01  1.50000000E+00  1.50000000E+00  8.00000000E-01
  8.00000000E-01  1.50000000E+00  1.50000000E+00  8.00000000E-01  8.00000000E-01
  1.50000000E+00  1.50000000E+00  8.00000000E-01  8.00000000E-01  1.50000000E+00
  1.50000000E+00  8.00000000E-01  8.00000000E-01  1.50000000E+00  1.50000000E+00
  8.00000000E-01  8.00000000E-01  1.50000000E+00  1.50000000E+00  8.00000000E-01
  8.00000000E-01  1.50000000E+00  1.50000000E+00  8.00000000E-01  8.00000000E-01
  1.50000000E+00  1.50000000E+00  8.00000000E-01  8.00000000E-01  1.50000000E+00
  1.50000000E+00  8.00000000E-01  8.00000000E-01  1.50000000E+00  1.50000000E+00
  8.00000000E-01  8.00000000E-01  1.50000000E+00  1.50000000E+00  8.00000000E-01
  8.00000000E-01  1.50000000E+00  1.50000000E+00  8.00000000E-01  8.00000000E-01
  1.50000000E+00  1.50000000E+00  8.00000000E-01  8.00000000E-01  1.50000000E+00
  1.50000000E+00  8.00000000E-01  8.00000000E-01  1.50000000E+00  1.50000000E+00
  8.00000000E-01  8.00000000E-01  1.50000000E+00  1.50000000E+00  8.00000000E-01
  8.00000000E-01  1.50000000E+00  1.50000000E+00  8.00000000E-01  8.00000000E-01
  1.50000000E+00  1.50000000E+00  8.00000000E-01  8.00000000E-01  1.50000000E+00
  1.50000000E+00  8.00000000E-01  8.00000000E-01  1.50000000E+00  1.50000000E+00
  8.00000000E-01  8.00000000E-01  1.50000000E+00  1.50000000E+00  8.00000000E-01
  8.00000000E-01  1.50000000E+00  1.50000000E+00  8.00000000E-01  8.00000000E-01
  1.50000000E+00  1.50000000E+00  8.00000000E-01  8.00000000E-01  1.50000000E+00
  1.50000000E+00  8.00000000E-01  8.00000000E-01  1.50000000E+00  1.50000000E+00
  8.00000000E-01  8.00000000E-01  1.50000000E+00  1.50000000E+00  8.00000000E-01
  8.00000000E-01  1.50000000E+00  1.50000000E+00  8.00000000E-01  8.00000000E-01
  1.50000000E+00  1.50000000E+00  8.00000000E-01  8.00000000E-01  1.50000000E+00
  1.50000000E+00  8.00000000E-01  8.00000000E-01  1.50000000E+00  1.50000000E+00
  8.00000000E-01  8.00000000E-01  1.50000000E+00  1.50000000E+00  8.00000000E-01
  8.00000000E-01  1.50000000E+00  1.50000000E+00  8.00000000E-01  8.00000000E-01
  1.50000000E+00  1.50000000E+00  8.00000000E-01  8.00000000E-01  1.50000000E+00
  1.50000000E+00  8.00000000E-01  8.00000000E-01  1.50000000E+00  1.50000000E+00
  8.00000000E-01  8.00000000E-01  1.50000000E+00  1.50000000E+00  8.00000000E-01
  8.00000000E-01  1.50000000E+00  1.50000000E+00  8.00000000E-01  8.00000000E-01
  1.50000000E+00  1.50000000E+00  8.00000000E-01  8.00000000E-01  1.50000000E+00
  1.50000000E+00  8.00000000E-01  8.00000000E-01  1.50000000E+00  1.50000000E+00
  8.00000000E-01  8.00000000E-01  1.50000000E+00  1.50000000E+00  8.00000000E-01
  8.00000000E-01  1.50000000E+00  1.50000000E+00  8.00000000E-01  8.00000000E-01
  1.50000000E+00  1.50000000E+00  8.00000000E-01  8.00000000E-01  1.50000000E+00
  1.50000000E+00  8.00000000E-01  8.00000000E-01  1.50000000E+00  1.50000000E+00
  8.00000000E-01  8.00000000E-01  1.50000000E+00  1.50000000E+00  8.00000000E-01
  8.00000000E-01  1.50000000E+00  1.50000000E+00  8.00000000E-01  8.00000000E-01
  1.50000000E+00  1.50000000E+00  8.00000000E-01  8.00000000E-01  1.50000000E+00
  1.50000000E+00  8.00000000E-01  8.00000000E-01  1.50000000E+00  1.50000000E+00
  8.00000000E-01  8.00000000E-01  1.50000000E+00  1.50000000E+00  8.00000000E-01
  8.00000000E-01  1.50000000E+00  1.50000000E+00  8.00000000E-01  8.00000000E-01
  1.50000000E+00  1.50000000E+00  8.00000000E-01  8.00000000E-01  1.50000000E+00
  1.50000000E+00  8.00000000E-01  8.00000000E-01  1.50000000E+00  1.50000000E+00
  8.00000000E-01  8.00000000E-01  1.50000000E+00  1.50000000E+00  8.00000000E-01
  8.00000000E-01  1.50000000E+00  1.50000000E+00  8.00000000E-01  8.00000000E-01
  1.50000000E+00  1.50000000E+00  8.00000000E-01  8.00000000E-01  1.50000000E+00
  1.50000000E+00  8.00000000E-01  8.00000000E-01  1.50000000E+00  1.50000000E+00
  8.00000000E-01  8.00000000E-01  1.50000000E+00  1.50000000E+00  8.00000000E-01
  8.00000000E-01  1.50000000E+00  1.50000000E+00  8.00000000E-01  8.00000000E-01
  1.50000000E+00  1.50000000E+00  8.00000000E-01  8.00000000E-01  1.50000000E+00
  1.50000000E+00  8.00000000E-01  8.00000000E-01  1.50000000E+00  1.50000000E+00
  8.00000000E-01  8.00000000E-01  1.50000000E+00  1.50000000E+00  8.00000000E-01
  8.00000000E-01  1.50000000E+00  1.50000000E+00  8.00000000E-01  8.00000000E-01
  1.50000000E+00  1.50000000E+00  8.00000000E-01  8.00000000E-01  1.50000000E+00
  1.50000000E+00  8.00000000E-01  8.00000000E-01  1.50000000E+00  1.50000000E+00
  8.00000000E-01  8.00000000E-01  1.50000000E+00  1.50000000E+00  8.00000000E-01
  8.00000000E-01  1.50000000E+00  1.50000000E+00  8.00000000E-01  8.00000000E-01
  1.50000000E+00  1.50000000E+00  8.00000000E-01  8.00000000E-01  1.50000000E+00
  1.50000000E+00  8.00000000E-01  8.00000000E-01  1.50000000E+00  1.50000000E+00
  8.00000000E-01  8.00000000E-01  1.50000000E+00  1.50000000E+00  8.00000000E-01
  8.00000000E-01  1.50000000E+00  1.50000000E+00  8.00000000E-01  8.00000000E-01
  1.50000000E+00  1.50000000E+00  8.00000000E-01  8.00000000E-01  1.50000000E+00
  1.50000000E+00  8.00000000E-01  8.00000000E-01  1.50000000E+00  1.50000000E+00
  8.00000000E-01  8.00000000E-01  1.50000000E+00  1.50000000E+00  8.00000000E-01
  8.00000000E-01  1.50000000E+00  1.50000000E+00  8.00000000E-01  8.00000000E-01
  1.50000000E+00  1.50000000E+00  8.00000000E-01  8.00000000E-01  1.50000000E+00
  1.50000000E+00  8.00000000E-01  8.00000000E-01  1.50000000E+00  1.50000000E+00
  8.00000000E-01  8.00000000E-01  1.50000000E+00  1.50000000E+00  8.00000000E-01
  8.00000000E-01  1.50000000E+00  1.50000000E+00  8.00000000E-01  8.00000000E-01
  1.50000000E+00  1.50000000E+00  8.00000000E-01  8.00000000E-01  1.50000000E+00
  1.50000000E+00  8.00000000E-01  8.00000000E-01  1.50000000E+00  1.50000000E+00
  8.00000000E-01  8.00000000E-01  1.50000000E+00  1.50000000E+00  8.00000000E-01
  8.00000000E-01  1.50000000E+00  1.50000000E+00  8.00000000E-01  8.00000000E-01
  1.50000000E+00  1.50000000E+00  8.00000000E-01  8.00000000E-01  1.50000000E+00
  1.50000000E+00  8.00000000E-01  8.00000000E-01  1.50000000E+00  1.50000000E+00
  8.00000000E-01  8.00000000E-01  1.50000000E+00  1.50000000E+00  8.00000000E-01
  8.00000000E-01  1.50000000E+00  1.50000000E+00  8.00000000E-01  8.00000000E-01
  1.50000000E+00  1.50000000E+00  8.00000000E-01  8.00000000E-01  1.50000000E+00
  1.50000000E+00  8.00000000E-01  8.00000000E-01  1.50000000E+00  1.50000000E+00
  8.00000000E-01  8.00000000E-01  1.50000000E+00  1.50000000E+00  8.00000000E-01
  8.00000000E-01  1.50000000E+00  1.50000000E+00  8.00000000E-01  8.00000000E-01
  1.50000000E+00  1.50000000E+00  8.00000000E-01  8.00000000E-01  1.50000000E+00
  1.50000000E+00  8.00000000E-01  8.00000000E-01  1.50000000E+00  1.50000000E+00
  8.00000000E-01  8.00000000E-01  1.50000000E+00  1.50000000E+00  8.00000000E-01
  8.00000000E-01  1.50000000E+00  1.50000000E+00  8.00000000E-01  8.00000000E-01
  1.50000000E+00  1.50000000E+00  8.00000000E-01  8.00000000E-01  1.50000000E+00
  1.50000000E+00  8.00000000E-01  8.00000000E-01  1.50000000E+00  1.50000000E+00
  8.00000000E-01  8.00000000E-01  1.50000000E+00  1.50000000E+00  8.00000000E-01
  8.00000000E-01  1.50000000E+00  1.50000000E+00  8.00000000E-01  8.00000000E-01
  1.50000000E+00  1.50000000E+00  8.00000000E-01  8.00000000E-01  1.50000000E+00
  1.50000000E+00  8.00000000E-01  8.00000000E-01  1.50000000E+00  1.50000000E+00
  8.00000000E-01  8.00000000E-01  1.50000000E+00  1.50000000E+00  8.00000000E-01
  8.00000000E-01  1.50000000E+00  1.50000000E+00  8.00000000E-01  8.00000000E-01
  1.50000000E+00  1.50000000E+00  8.00000000E-01  8.00000000E-01  1.50000000E+00
  1.50000000E+00  8.00000000E-01  8.00000000E-01  1.50000000E+00  1.50000000E+00
  8.00000000E-01  8.00000000E-01  1.50000000E+00  1.50000000E+00  8.00000000E-01
  8.00000000E-01  1.50000000E+00  1.50000000E+00  8.00000000E-01  8.00000000E-01
  1.50000000E+00  1.50000000E+00  8.00000000E-01  8.00000000E-01  1.50000000E+00
  1.50000000E+00  8.00000000E-01  8.00000000E-01  1.50000000E+00  1.50000000E+00
  8.00000000E-01  8.00000000E-01  1.50000000E+00  1.50000000E+00  8.00000000E-01
  8.00000000E-01  1.50000000E+00  1.50000000E+00  8.00000000E-01  8.00000000E-01
  1.50000000E+00  1.50000000E+00  8.00000000E-01  8.00000000E-01  1.50000000E+00
  1.50000000E+00  8.00000000E-01  8.00000000E-01  1.50000000E+00  1.50000000E+00
  8.00000000E-01  8.00000000E-01  1.50000000E+00  1.50000000E+00  8.00000000E-01
  8.00000000E-01  1.50000000E+00  1.50000000E+00  8.00000000E-01  8.00000000E-01
  1.50000000E+00  1.50000000E+00  8.00000000E-01  8.00000000E-01  1.50000000E+00
  1.50000000E+00  8.00000000E-01  8.00000000E-01  1.50000000E+00  1.50000000E+00
  8.00000000E-01  8.00000000E-01  1.50000000E+00  1.50000000E+00  8.00000000E-01
  8.00000000E-01  1.50000000E+00  1.50000000E+00  8.00000000E-01  8.00000000E-01
  1.50000000E+00  1.50000000E+00  8.00000000E-01  8.00000000E-01  1.50000000E+00
  1.50000000E+00  8.00000000E-01  8.00000000E-01  1.50000000E+00  1.50000000E+00
  8.00000000E-01  8.00000000E-01  1.50000000E+00  1.50000000E+00  8.00000000E-01
  8.00000000E-01  1.50000000E+00  1.50000000E+00  8.00000000E-01  8.00000000E-01
  1.50000000E+00  1.50000000E+00  8.00000000E-01  8.00000000E-01  1.50000000E+00
  1.50000000E+00  8.00000000E-01  8.00000000E-01  1.50000000E+00  1.50000000E+00
  8.00000000E-01  8.00000000E-01  1.50000000E+00  1.50000000E+00  8.00000000E-01
  8.00000000E-01  1.50000000E+00  1.50000000E+00  8.00000000E-01  8.00000000E-01
  1.50000000E+00  1.50000000E+00  8.00000000E-01  8.00000000E-01  1.50000000E+00
  1.50000000E+00  8.00000000E-01  8.00000000E-01  1.50000000E+00  1.50000000E+00
  8.00000000E-01  8.00000000E-01  1.50000000E+00  1.50000000E+00  8.00000000E-01
  8.00000000E-01  1.50000000E+00  1.50000000E+00  8.00000000E-01  8.00000000E-01
  1.50000000E+00  1.50000000E+00  8.00000000E-01  8.00000000E-01  1.50000000E+00
  1.50000000E+00  8.00000000E-01  8.00000000E-01  1.50000000E+00  1.50000000E+00
  8.00000000E-01  8.00000000E-01  1.50000000E+00  1.50000000E+00  8.00000000E-01
  8.00000000E-01  1.50000000E+00  1.50000000E+00  8.00000000E-01  8.00000000E-01
  1.50000000E+00  1.50000000E+00  8.00000000E-01  8.00000000E-01  1.50000000E+00
  1.50000000E+00  8.00000000E-01  8.00000000E-01  1.50000000E+00  1.50000000E+00
  8.00000000E-01  8.00000000E-01  1.50000000E+00  1.50000000E+00  8.00000000E-01
  8.00000000E-01  1.50000000E+00  1.50000000E+00  8.00000000E-01  8.00000000E-01
  1.50000000E+00  1.50000000E+00  8.00000000E-01  8.00000000E-01  1.50000000E+00
  1.50000000E+00  8.00000000E-01  8.00000000E-01  1.50000000E+00  1.50000000E+00
  8.00000000E-01  8.00000000E-01  1.50000000E+00  1.50000000E+00  8.00000000E-01
  8.00000000E-01  1.50000000E+00  1.50000000E+00  8.00000000E-01  8.00000000E-01
  1.50000000E+00  1.50000000E+00  8.00000000E-01  8.00000000E-01  1.50000000E+00
  1.50000000E+00  8.00000000E-01  8.00000000E-01  1.50000000E+00  1.50000000E+00
  8.00000000E-01  8.00000000E-01  1.50000000E+00  1.50000000E+00  8.00000000E-01
  8.00000000E-01  1.50000000E+00  1.50000000E+00  8.00000000E-01  8.00000000E-01
  1.50000000E+00  1.50000000E+00  8.00000000E-01  8.00000000E-01  1.50000000E+00
  1.50000000E+00  8.00000000E-01  8.00000000E-01  1.50000000E+00  1.50000000E+00
  8.00000000E-01  8.00000000E-01  1.50000000E+00  1.50000000E+00  8.00000000E-01
  8.00000000E-01  1.50000000E+00  1.50000000E+00  8.00000000E-01  8.00000000E-01
  1.50000000E+00  1.50000000E+00  8.00000000E-01  8.00000000E-01  1.50000000E+00
  1.50000000E+00  8.00000000E-01  8.00000000E-01  1.50000000E+00  1.50000000E+00
  8.00000000E-01  8.00000000E-01  1.50000000E+00  1.50000000E+00  8.00000000E-01
  8.00000000E-01  1.50000000E+00  1.50000000E+00  8.00000000E-01  8.00000000E-01
  1.50000000E+00  1.50000000E+00  8.00000000E-01  8.00000000E-01  1.50000000E+00
  1.50000000E+00  8.00000000E-01  8.00000000E-01  1.50000000E+00  1.50000000E+00
  8.00000000E-01  8.00000000E-01  1.50000000E+00  1.50000000E+00  8.00000000E-01
  8.00000000E-01  1.50000000E+00  1.50000000E+00  8.00000000E-01  8.00000000E-01
  1.50000000E+00  1.50000000E+00  8.00000000E-01  8.00000000E-01  1.50000000E+00
  1.50000000E+00  8.00000000E-01  8.00000000E-01  1.50000000E+00  1.50000000E+00
  8.00000000E-01  8.00000000E-01  1.50000000E+00  1.50000000E+00  8.00000000E-01
  8.00000000E-01  1.50000000E+00  1.50000000E+00  8.00000000E-01  8.00000000E-01
  1.50000000E+00  1.50000000E+00  8.00000000E-01  8.00000000E-01  1.50000000E+00
  1.50000000E+00  8.00000000E-01  8.00000000E-01  1.50000000E+00  1.50000000E+00
  8.00000000E-01  8.00000000E-01  1.50000000E+00  1.50000000E+00  8.00000000E-01
  8.00000000E-01  1.50000000E+00  1.50000000E+00  8.00000000E-01  8.00000000E-01
  1.50000000E+00  1.50000000E+00  8.00000000E-01  8.00000000E-01  1.50000000E+00
  1.50000000E+00  8.00000000E-01  8.00000000E-01  1.50000000E+00  1.50000000E+00
  8.00000000E-01  8.00000000E-01  1.50000000E+00  1.50000000E+00  8.00000000E-01
  8.00000000E-01  1.50000000E+00  1.50000000E+00  8.00000000E-01  8.00000000E-01
  1.50000000E+00  1.50000000E+00  8.00000000E-01  8.00000000E-01  1.50000000E+00
  1.50000000E+00  8.00000000E-01  8.00000000E-01  1.50000000E+00  1.50000000E+00
  8.00000000E-01  8.00000000E-01  1.50000000E+00  1.50000000E+00  8.00000000E-01
  8.00000000E-01  1.50000000E+00  1.50000000E+00  8.00000000E-01  8.00000000E-01
  1.50000000E+00  1.50000000E+00  8.00000000E-01  8.00000000E-01  1.50000000E+00
  1.50000000E+00  8.00000000E-01  8.00000000E-01  1.50000000E+00  1.50000000E+00
  8.00000000E-01  8.00000000E-01  1.50000000E+00  1.50000000E+00  8.00000000E-01
  8.00000000E-01  1.50000000E+00  1.50000000E+00  8.00000000E-01  8.00000000E-01
  1.50000000E+00  1.50000000E+00  8.00000000E-01  8.00000000E-01  1.50000000E+00
  1.50000000E+00  8.00000000E-01  8.00000000E-01  1.50000000E+00  1.50000000E+00
  8.00000000E-01  8.00000000E-01  1.50000000E+00  1.50000000E+00  8.00000000E-01
  8.00000000E-01  1.50000000E+00  1.50000000E+00  8.00000000E-01  8.00000000E-01
  1.50000000E+00  1.50000000E+00  8.00000000E-01  8.00000000E-01  1.50000000E+00
  1.50000000E+00  8.00000000E-01  8.00000000E-01  1.50000000E+00  1.50000000E+00
  8.00000000E-01  8.00000000E-01  1.50000000E+00  1.50000000E+00  8.00000000E-01
  8.00000000E-01  1.50000000E+00  1.50000000E+00  8.00000000E-01  8.00000000E-01
  1.50000000E+00  1.50000000E+00  8.00000000E-01  8.00000000E-01  1.50000000E+00
  1.50000000E+00  8.00000000E-01  8.00000000E-01  1.50000000E+00  1.50000000E+00
  8.00000000E-01  8.00000000E-01  1.50000000E+00  1.50000000E+00  8.00000000E-01
  8.00000000E-01  1.50000000E+00  1.50000000E+00  8.00000000E-01  8.00000000E-01
  1.50000000E+00  1.50000000E+00  8.00000000E-01  8.00000000E-01  1.50000000E+00
  1.50000000E+00  8.00000000E-01  8.00000000E-01  1.50000000E+00  1.50000000E+00
  8.00000000E-01  8.00000000E-01  1.50000000E+00  1.50000000E+00  8.00000000E-01
  8.00000000E-01  1.50000000E+00  1.50000000E+00  8.00000000E-01  8.00000000E-01
  1.50000000E+00  1.50000000E+00  8.00000000E-01  8.00000000E-01  1.50000000E+00
  1.50000000E+00  8.00000000E-01  8.00000000E-01  1.50000000E+00  1.50000000E+00
  8.00000000E-01  8.00000000E-01  1.50000000E+00  1.50000000E+00  8.00000000E-01
  8.00000000E-01  1.50000000E+00  1.50000000E+00  8.00000000E-01  8.00000000E-01
  1.50000000E+00  1.50000000E+00  8.00000000E-01  8.00000000E-01  1.50000000E+00
  1.50000000E+00  8.00000000E-01  8.00000000E-01  1.50000000E+00  1.50000000E+00
  8.00000000E-01  8.00000000E-01  1.50000000E+00  1.50000000E+00  8.00000000E-01
  8.00000000E-01  1.50000000E+00  1.50000000E+00  8.00000000E-01  8.00000000E-01
  1.50000000E+00  1.50000000E+00  8.00000000E-01  8.00000000E-01  1.50000000E+00
  1.50000000E+00  8.00000000E-01  8.00000000E-01  1.50000000E+00  1.50000000E+00
  8.00000000E-01  8.00000000E-01  1.50000000E+00  1.50000000E+00  8.00000000E-01
  8.00000000E-01  1.50000000E+00  1.50000000E+00  8.00000000E-01  8.00000000E-01
  1.50000000E+00  1.50000000E+00  8.00000000E-01  8.00000000E-01  1.50000000E+00
  1.50000000E+00  8.00000000E-01  8.00000000E-01  1.50000000E+00  1.50000000E+00
  8.00000000E-01  8.00000000E-01  1.50000000E+00  1.50000000E+00  8.00000000E-01
  8.00000000E-01  1.50000000E+00  1.50000000E+00  8.00000000E-01  8.00000000E-01
  1.50000000E+00  1.50000000E+00  8.00000000E-01  8.00000000E-01  1.50000000E+00
  1.50000000E+00  8.00000000E-01  8.00000000E-01  1.50000000E+00  1.50000000E+00
  8.00000000E-01  8.00000000E-01  1.50000000E+00  1.50000000E+00  8.00000000E-01
  8.00000000E-01  1.50000000E+00  1.50000000E+00  8.00000000E-01  8.00000000E-01
  1.50000000E+00  1.50000000E+00  8.00000000E-01  8.00000000E-01  1.50000000E+00
  1.50000000E+00  8.00000000E-01  8.00000000E-01  1.50000000E+00  1.50000000E+00
  8.00000000E-01  8.00000000E-01  1.50000000E+00  1.50000000E+00  8.00000000E-01
  8.00000000E-01  1.50000000E+00  1.50000000E+00  8.00000000E-01  8.00000000E-01
  1.50000000E+00  1.50000000E+00  8.00000000E-01  8.00000000E-01  1.50000000E+00
  1.50000000E+00  8.00000000E-01  8.00000000E-01  1.50000000E+00  1.50000000E+00
  8.00000000E-01  8.00000000E-01  1.50000000E+00  1.50000000E+00  8.00000000E-01
  8.00000000E-01  1.50000000E+00  1.50000000E+00  8.00000000E-01  8.00000000E-01
  1.50000000E+00  1.50000000E+00  8.00000000E-01  8.00000000E-01  1.50000000E+00
  1.50000000E+00  8.00000000E-01  8.00000000E-01  1.50000000E+00  1.50000000E+00
  8.00000000E-01  8.00000000E-01  1.50000000E+00  1.50000000E+00  8.00000000E-01
  8.00000000E-01  1.50000000E+00  1.50000000E+00  8.00000000E-01  8.00000000E-01
  1.50000000E+00  1.50000000E+00  8.00000000E-01  8.00000000E-01  1.50000000E+00
  1.50000000E+00  8.00000000E-01  8.00000000E-01  1.50000000E+00  1.50000000E+00
  8.00000000E-01  8.00000000E-01  1.50000000E+00  1.50000000E+00  8.00000000E-01
  8.00000000E-01  1.50000000E+00  1.50000000E+00  8.00000000E-01  8.00000000E-01
  1.50000000E+00  1.50000000E+00  8.00000000E-01  8.00000000E-01  1.50000000E+00
  1.50000000E+00  8.00000000E-01  8.00000000E-01  1.50000000E+00  1.50000000E+00
  8.00000000E-01  8.00000000E-01  1.50000000E+00  1.50000000E+00  8.00000000E-01
  8.00000000E-01  1.50000000E+00  1.50000000E+00  8.00000000E-01  8.00000000E-01
  1.50000000E+00  1.50000000E+00  8.00000000E-01  8.00000000E-01  1.50000000E+00
  1.50000000E+00  8.00000000E-01  8.00000000E-01  1.50000000E+00  1.50000000E+00
  8.00000000E-01  8.00000000E-01  1.50000000E+00  1.50000000E+00  8.00000000E-01
  8.00000000E-01  1.50000000E+00  1.50000000E+00  8.00000000E-01  8.00000000E-01
  1.50000000E+00  1.50000000E+00  8.00000000E-01  8.00000000E-01  1.50000000E+00
  1.50000000E+00  8.00000000E-01  8.00000000E-01  1.50000000E+00  1.50000000E+00
  8.00000000E-01  8.00000000E-01  1.50000000E+00  1.50000000E+00  8.00000000E-01
  8.00000000E-01  1.50000000E+00  1.50000000E+00  8.00000000E-01  8.00000000E-01
  1.50000000E+00  1.50000000E+00  8.00000000E-01  8.00000000E-01  1.50000000E+00
  1.50000000E+00  8.00000000E-01  8.00000000E-01  1.50000000E+00
%FLAG SCREEN                                                                    
%FORMAT(5E16.8)                                                                 
  8.50000000E-01  8.50000000E-01  7.20000000E-01  8.50000000E-01  8.50000000E-01
  7.20000000E-01  8.50000000E-01  8.50000000E-01  7.20000000E-01  8.50000000E-01
  7.90000000E-01  7.20000000E-01  8.50000000E-01  7.90000000E-01  7.20000000E-01
  7.20000000E-01  8.50000000E-01  7.90000000E-01  8.50000000E-01  7.20000000E-01
  7.90000000E-01  8.50000000E-01  8.50000000E-01  7.90000000E-01  7.20000000E-01
  7.20000000E-01  8.50000000E-01  7.20000000E-01  8.50000000E-01  8.50000000E-01
  8.50000000E-01  8.50000000E-01  8.60000000E-01  8.50000000E-01  8.50000000E-01
  8.50000000E-01  7.20000000E-01  8.50000000E-01  8.50000000E-01  7.20000000E-01
  8.50000000E-01  8.50000000E-01  7.20000000E-01  8.50000000E-01  7.90000000E-01
  7.20000000E-01  8.50000000E-01  7.90000000E-01  7.20000000E-01  7.20000000E-01
  8.50000000E-01  7.90000000E-01  8.50000000E-01  7.20000000E-01  7.90000000E-01
  8.50000000E-01  8.50000000E-01  7.90000000E-01  7.20000000E-01  7.20000000E-01
  8.50000000E-01  7.20000000E-01  8.50000000E-01  8.50000000E-01  8.50000000E-01
  8.50000000E-01  8.60000000E-01  8.50000000E-01  8.50000000E-01  8.50000000E-01
  7.20000000E-01  8.50000000E-01  8.50000000E-01  7.20000000E-01  8.50000000E-01
  8.50000000E-01  7.20000000E-01  8.50000000E-01  7.90000000E-01  7.20000000E-01
  8.50000000E-01  7.90000000E-01  7.20000000E-01  7.20000000E-01  7.90000000E-01
  8.50000000E-01  8.50000000E-01  7.90000000E-01  7.20000000E-01  8.50000000E-01
  7.90000000E-01  7.20000000E-01  7.20000000E-01  8.50000000E-01  7.20000000E-01
  8.50000000E-01  8.50000000E-01  8.50000000E-01  8.50000000E-01  8.60000000E-01
  8.50000000E-01  8.50000000E-01  8.50000000E-01  7.20000000E-01  8.50000000E-01
  8.50000000E-01  7.20000000E-01  8.50000000E-01  8.50000000E-01  7.20000000E-01
  8.50000000E-01  7.90000000E-01  7.20000000E-01  8.50000000E-01  7.20000000E-01
  8.50000000E-01  7.20000000E-01  8.50000000E-01  7.90000000E-01  8.50000000E-01
  7.20000000E-01  8.50000000E-01  7.20000000E-01  8.50000000E-01  7.20000000E-01
  8.50000000E-01  8.50000000E-01  8.50000000E-01  8.50000000E-01  8.60000000E-01
  8.50000000E-01  8.50000000E-01  8.50000000E-01  7.20000000E-01  8.50000000E-01
  8.50000000E-01  7.20000000E-01  8.50000000E-01  8.50000000E-01  7.20000000E-01
  8.50000000E-01  7.90000000E-01  7.20000000E-01  8.50000000E-01  7.20000000E-01
  8.50000000E-01  7.20000000E-01  7.90000000E-01  8.50000000E-01  8.50000000E-01
  7.90000000E-01  7.20000000E-01  8.50000000E-01  7.20000000E-01  8.50000000E-01
  7.20000000E-01  8.50000000E-01  8.50000000E-01  8.50000000E-01  8.50000000E-01
  8.60000000E-01  8.50000000E-01  8.50000000E-01  8.50000000E-01  7.20000000E-01
  8.50000000E-01  8.50000000E-01  7.20000000E-01  8.50000000E-01  8.50000000E-01
  7.20000000E-01  8.50000000E-01  7.90000000E-01  7.20000000E-01  8.50000000E-01
  7.90000000E-01  7.20000000E-01  7.20000000E-01  7.90000000E-01  8.50000000E-01
  8.50000000E-01  7.90000000E-01  7.20000000E-01  8.50000000E-01  7.90000000E-01
  7.20000000E-01  7.20000000E-01  8.50000000E-01  7.20000000E-01  8.50000000E-01
  8.50000000E-01  8.50000000E-01  8.50000000E-01  8.60000000E-01  8.50000000E-01
  8.50000000E-01  8.50000000E-01  7.20000000E-01  8.50000000E-01  8.50000000E-01
  7.20000000E-01  8.50000000E-01  8.50000000E-01  7.20000000E-01  8.50000000E-01
  7.90000000E-01  7.20000000E-01  8.50000000E-01  7.20000000E-01  8.50000000E-01
  7.20000000E-01  8.50000000E-01  7.90000000E-01  8.50000000E-01  7.20000000E-01
  8.50000000E-01  7.20000000E-01  8.50000000E-01  7.20000000E-01  8.50000000E-01
  8.50000000E-01  8.50000000E-01  8.50000000E-01  8.60000000E-01  8.50000000E-01
  8.50000000E-01  8.50000000E-01  7.20000000E-01  8.50000000E-01  8.50000000E-01
  7.20000000E-01  8.50000000E-01  8.50000000E-01  7.20000000E-01  8.50000000E-01
  7.90000000E-01  7.20000000E-01  8.50000000E-01  7.90000000E-01  7.20000000E-01
  7.20000000E-01  7.90000000E-01  8.50000000E-01  8.50000000E-01  7.90000000E-01
  7.20000000E-01  8.50000000E-01  7.90000000E-01  7.20000000E-01  7.20000000E-01
  8.50000000E-01  7.20000000E-01  8.50000000E-01  8.50000000E-01  8.50000000E-01
  8.50000000E-01  8.60000000E-01  8.50000000E-01  8.50000000E-01  8.50000000E-01
  7.20000000E-01  8.50000000E-01  8.50000000E-01  7.20000000E-01  8.50000000E-01
  8.50000000E-01  7.20000000E-01  8.50000000E-01  7.90000000E-01  7.20000000E-01
  8.50000000E-01  7.20000000E-01  8.50000000E-01  7.20000000E-01  8.50000000E-01
  7.90000000E-01  8.50000000E-01  7.20000000E-01  8.50000000E-01  7.20000000E-01
  8.50000000E-01  7.20000000E-01  8.50000000E-01  8.50000000E-01  8.50000000E-01
  8.50000000E-01  8.60000000E-01  8.50000000E-01  8.50000000E-01  8.50000000E-01
  7.20000000E-01  8.50000000E-01  8.50000000E-01  7.20000000E-01  8.50000000E-01
  8.50000000E-01  7.20000000E-01  8.50000000E-01  7.90000000E-01  7.20000000E-01
  8.50000000E-01  7.90000000E-01  7.20000000E-01  7.20000000E-01  7.90000000E-01
  8.50000000E-01  8.50000000E-01  7.90000000E-01  7.20000000E-01  8.50000000E-01
  7.90000000E-01  7.20000000E-01  7.20000000E-01  8.50000000E-01  7.20000000E-01
  8.50000000E-01  8.50000000E-01  8.50000000E-01  8.50000000E-01  8.60000000E-01
  8.50000000E-01  8.50000000E-01  8.50000000E-01  7.20000000E-01  8.50000000E-01
  8.50000000E-01  7.20000000E-01  8.50000000E-01  8.50000000E-01  7.20000000E-01
  8.50000000E-01  7.90000000E-01  7.20000000E-01  8.50000000E-01  7.90000000E-01
  7.20000000E-01  7.20000000E-01  7.90000000E-01  8.50000000E-01  8.50000000E-01
  7.90000000E-01  7.20000000E-01  8.50000000E-01  7.90000000E-01  7.20000000E-01
  7.20000000E-01  8.50000000E-01  7.20000000E-01  8.50000000E-01  8.50000000E-01
  8.50000000E-01  8.50000000E-01  8.60000000E-01  8.50000000E-01  8.50000000E-01
  8.50000000E-01  7.20000000E-01  8.50000000E-01  8.50000000E-01  7.20000000E-01
  8.50000000E-01  8.50000000E-01  7.20000000E-01  8.50000000E-01  7.90000000E-01
  7.20000000E-01  8.50000000E-01  7.20000000E-01  8.50000000E-01  7.20000000E-01
  8.50000000E-01  7.90000000E-01  8.50000000E-01  7.20000000E-01  8.50000000E-01
  7.20000000E-01  8.50000000E-01  7.20000000E-01  8.50000000E-01  8.50000000E-01
  8.50000000E-01  8.50000000E-01  8.60000000E-01  8.50000000E-01  8.50000000E-01
  8.50000000E-01  7.20000000E-01  8.50000000E-01  8.50000000E-01  7.20000000E-01
  8.50000000E-01  8.50000000E-01  7.20000000E-01  8.50000000E-01  7.90000000E-01
  7.20000000E-01  8.50000000E-01  7.20000000E-01  8.50000000E-01  7.20000000E-01
  7.90000000E-01  8.50000000E-01  8.50000000E-01  7.90000000E-01  7.20000000E-01
  8.50000000E-01  7.20000000E-01  8.50000000E-01  7.20000000E-01  8.50000000E-01
  8.50000000E-01  8.50000000E-01  8.50000000E-01  8.60000000E-01  8.50000000E-01
  8.50000000E-01  8.50000000E-01  7.20000000E-01  8.50000000E-01  8.50000000E-01
  7.20000000E-01  8.50000000E-01  8.50000000E-01  7.20000000E-01  8.50000000E-01
  7.90000000E-01  7.20000000E-01  8.50000000E-01  7.90000000E-01  7.20000000E-01
  7.20000000E-01  8.50000000E-01  7.90000000E-01  8.50000000E-01  7.20000000E-01
  7.90000000E-01  8.50000000E-01  8.50000000E-01  7.90000000E-01  7.20000000E-01
  7.20000000E-01  8.50000000E-01  7.20000000E-01  8.50000000E-01  8.50000000E-01
  8.50000000E-01  8.50000000E-01  8.60000000E-01  8.50000000E-01  8.50000000E-01
  8.50000000E-01  7.20000000E-01  8.50000000E-01  8.50000000E-01  7.20000000E-01
  8.50000000E-01  8.50000000E-01  7.20000000E-01  8.50000000E-01  7.90000000E-01
  7.20000000E-01  8.50000000E-01  7.20000000E-01  8.50000000E-01  7.20000000E-01
  7.90000000E-01  8.50000000E-01  8.50000000E-01  7.90000000E-01  7.20000000E-01
  8.50000000E-01  7.20000000E-01  8.50000000E-01  7.20000000E-01  8.50000000E-01
  8.50000000E-01  8.50000000E-01  8.50000000E-01  8.60000000E-01  8.50000000E-01
  8.50000000E-01  8.50000000E-01  7.20000000E-01  8.50000000E-01  8.50000000E-01
  7.20000000E-01  8.50000000E-01  8.50000000E-01  7.20000000E-01  8.50000000E-01
  7.90000000E-01  7.20000000E-01  8.50000000E-01  7.90000000E-01  7.20000000E-01
  7.20000000E-01  8.50000000E-01  7.90000000E-01  8.50000000E-01  7.20000000E-01
  7.90000000E-01  8.50000000E-01  8.50000000E-01  7.90000000E-01  7.20000000E-01
  7.20000000E-01  8.50000000E-01  7.20000000E-01  8.50000000E-01  8.50000000E-01
  8.50000000E-01  8.50000000E-01  8.60000000E-01  8.50000000E-01  8.50000000E-01
  8.50000000E-01  7.20000000E-01  8.50000000E-01  8.50000000E-01  7.20000000E-01
  8.50000000E-01  8.50000000E-01  7.20000000E-01  8.50000000E-01  7.90000000E-01
  7.20000000E-01  8.50000000E-01  7.20000000E-01  8.50000000E-01  7.20000000E-01
  8.50000000E-01  7.90000000E-01  8.50000000E-01  7.20000000E-01  8.50000000E-01
  7.20000000E-01  8.50000000E-01  7.20000000E-01  8.50000000E-01  8.50000000E-01
  8.50000000E-01  8.50000000E-01  8.60000000E-01  8.50000000E-01  8.50000000E-01
  8.50000000E-01  7.20000000E-01  8.50000000E-01  8.50000000E-01  7.20000000E-01
  8.50000000E-01  8.50000000E-01  7.20000000E-01  8.50000000E-01  7.90000000E-01
  7.20000000E-01  8.50000000E-01  7.90000000E-01  7.20000000E-01  7.20000000E-01
  8.50000000E-01  7.90000000E-01  8.50000000E-01  7.20000000E-01  7.90000000E-01
  8.50000000E-01  8.50000000E-01  7.90000000E-01  7.20000000E-01  7.20000000E-01
  8.50000000E-01  7.20000000E-01  8.50000000E-01  8.50000000E-01  8.50000000E-01
  8.50000000E-01  8.60000000E-01  8.50000000E-01  8.50000000E-01  8.50000000E-01
  7.20000000E-01  8.50000000E-01  8.50000000E-01  7.20000000E-01  8.50000000E-01
  8.50000000E-01  7.20000000E-01  8.50000000E-01  7.90000000E-01  7.20000000E-01
  8.50000000E-01  7.90000000E-01  7.20000000E-01  7.20000000E-01  8.50000000E-01
  7.90000000E-01  8.50000000E-01  7.20000000E-01  7.90000000E-01  8.50000000E-01
  8.50000000E-01  7.90000000E-01  7.20000000E-01  7.20000000E-01  8.50000000E-01
  7.20000000E-01  8.50000000E-01  8.50000000E-01  8.50000000E-01  8.50000000E-01
  8.60000000E-01  8.50000000E-01  8.50000000E-01  8.50000000E-01  7.20000000E-01
  8.50000000E-01  8.50000000E-01  7.20000000E-01  8.50000000E-01  8.50000000E-01
  7.20000000E-01  8.50000000E-01  7.90000000E-01  7.20000000E-01  8.50000000E-01
  7.90000000E-01  7.20000000E-01  7.20000000E-01  7.90000000E-01  8.50000000E-01
  8.50000000E-01  7.90000000E-01  7.20000000E-01  8.50000000E-01  7.90000000E-01
  7.20000000E-01  7.20000000E-01  8.50000000E-01  7.20000000E-01  8.50000000E-01
  8.50000000E-01  8.50000000E-01  8.50000000E-01  8.60000000E-01  8.50000000E-01
  8.50000000E-01  8.50000000E-01  7.20000000E-01  8.50000000E-01  8.50000000E-01
  7.20000000E-01  8.50000000E-01  8.50000000E-01  7.20000000E-01  8.50000000E-01
  7.90000000E-01  7.20000000E-01  8.50000000E-01  7.20000000E-01  8.50000000E-01
  7.20000000E-01  8.50000000E-01  7.90000000E-01  8.50000000E-01  7.20000000E-01
  8.50000000E-01  7.20000000E-01  8.50000000E-01  7.20000000E-01  8.50000000E-01
  8.50000000E-01  8.50000000E-01  8.50000000E-01  8.60000000E-01  8.50000000E-01
  8.50000000E-01  8.50000000E-01  7.20000000E-01  8.50000000E-01  8.50000000E-01
  7.20000000E-01  8.50000000E-01  8.50000000E-01  7.20000000E-01  8.50000000E-01
  7.90000000E-01  7.20000000E-01  8.50000000E-01  7.90000000E-01  7.20000000E-01
  7.20000000E-01  7.90000000E-01  8.50000000E-01  8.50000000E-01  7.90000000E-01
  7.20000000E-01  8.50000000E-01  7.90000000E-01  7.20000000E-01  7.20000000E-01
  8.50000000E-01  7.20000000E-01  8.50000000E-01  8.50000000E-01  8.50000000E-01
  8.50000000E-01  8.60000000E-01  8.50000000E-01  8.50000000E-01  8.50000000E-01
  7.20000000E-01  8.50000000E-01  8.50000000E-01  7.20000000E-01  8.50000000E-01
  8.50000000E-01  7.20000000E-01  8.50000000E-01  7.90000000E-01  7.20000000E-01
  8.50000000E-01  7.20000000E-01  8.50000000E-01  7.20000000E-01  8.50000000E-01
  7.90000000E-01  8.50000000E-01  7.20000000E-01  8.50000000E-01  7.20000000E-01
  8.50000000E-01  7.20000000E-01  8.50000000E-01  8.50000000E-01  8.50000000E-01
  8.50000000E-01  8.60000000E-01  8.50000000E-01  8.50000000E-01  8.50000000E-01
  7.20000000E-01  8.50000000E-01  8.50000000E-01  7.20000000E-01  8.50000000E-01
  8.50000000E-01  7.20000000E-01  8.50000000E-01  7.90000000E-01  7.20000000E-01
  8.50000000E-01  7.90000000E-01  7.20000000E-01  7.20000000E-01  8.50000000E-01
  7.90000000E-01  8.50000000E-01  7.20000000E-01  7.90000000E-01  8.50000000E-01
  8.50000000E-01  7.90000000E-01  7.20000000E-01  7.20000000E-01  8.50000000E-01
  7.20000000E-01  8.50000000E-01  8.50000000E-01  8.50000000E-01  8.50000000E-01
  8.60000000E-01  8.50000000E-01  8.50000000E-01  8.50000000E-01  7.20000000E-01
  8.50000000E-01  8.50000000E-01  7.20000000E-01  8.50000000E-01  8.50000000E-01
  7.20000000E-01  8.50000000E-01  7.90000000E-01  7.20000000E-01  8.50000000E-01
  7.90000000E-01  7.20000000E-01  7.20000000E-01  8.50000000E-01  7.90000000E-01
  8.50000000E-01  7.20000000E-01  7.90000000E-01  8.50000000E-01  8.50000000E-01
  7.90000000E-01  7.20000000E-01  7.20000000E-01  8.50000000E-01  7.20000000E-01
  8.50000000E-01  8.50000000E-01  8.50000000E-01  8.50000000E-01  8.60000000E-01
  8.50000000E-01  8.50000000E-01  8.50000000E-01  7.20000000E-01  8.50000000E-01
  8.50000000E-01  7.20000000E-01  8.50000000E-01  8.50000000E-01  7.20000000E-01
  8.50000000E-01  7.90000000E-01  7.20000000E-01  8.50000000E-01  7.20000000E-01
  8.50000000E-01  7.20000000E-01  7.90000000E-01  8.50000000E-01  8.50000000E-01
  7.90000000E-01  7.20000000E-01  8.50000000E-01  7.20000000E-01  8.50000000E-01
  7.20000000E-01  8.50000000E-01  8.50000000E-01  8.50000000E-01  8.50000000E-01
  8.60000000E-01  8.50000000E-01  8.50000000E-01  8.50000000E-01  7.20000000E-01
  8.50000000E-01  8.50000000E-01  7.20000000E-01  8.50000000E-01  8.50000000E-01
  7.20000000E-01  8.50000000E-01  7.90000000E-01  7.20000000E-01  8.50000000E-01
  7.90000000E-01  7.20000000E-01  7.20000000E-01  7.90000000E-01  8.50000000E-01
  8.50000000E-01  7.90000000E-01  7.20000000E-01  8.50000000E-01  7.90000000E-01
  7.20000000E-01  7.20000000E-01  8.50000000E-01  7.20000000E-01  8.50000000E-01
  8.50000000E-01  8.50000000E-01  8.50000000E-01  8.60000000E-01  8.50000000E-01
  8.50000000E-01  8.50000000E-01  7.20000000E-01  8.50000000E-01  8.50000000E-01
  7.20000000E-01  8.50000000E-01  8.50000000E-01  7.20000000E-01  8.50000000E-01
  7.90000000E-01  7.20000000E-01  8.50000000E-01  7.20000000E-01  8.50000000E-01
  7.20000000E-01  7.90000000E-01  8.50000000E-01  8.50000000E-01  7.90000000E-01
  7.20000000E-01  8.50000000E-01  7.20000000E-01  8.50000000E-01  7.20000000E-01
  8.50000000E-01  8.50000000E-01  8.50000000E-01  8.50000000E-01  8.60000000E-01
  8.50000000E-01  8.50000000E-01  8.50000000E-01  7.20000000E-01  8.50000000E-01
  8.50000000E-01  7.20000000E-01  8.50000000E-01  8.50000000E-01  7.20000000E-01
  8.50000000E-01  7.90000000E-01  7.20000000E-01  8.50000000E-01  7.90000000E-01
  7.20000000E-01  7.20000000E-01  8.50000000E-01  7.90000000E-01  8.50000000E-01
  7.20000000E-01  7.90000000E-01  8.50000000E-01  8.50000000E-01  7.90000000E-01
  7.20000000E-01  7.20000000E-01  8.50000000E-01  7.20000000E-01  8.50000000E-01
  8.50000000E-01  8.50000000E-01  8.50000000E-01  8.60000000E-01  8.50000000E-01
  8.50000000E-01  8.50000000E-01  7.20000000E-01  8.50000000E-01  8.50000000E-01
  7.20000000E-01  8.50000000E-01  8.50000000E-01  7.20000000E-01  8.50000000E-01
  7.90000000E-01  7.20000000E-01  8.50000000E-01  7.20000000E-01  8.50000000E-01
  7.20000000E-01  7.90000000E-01  8.50000000E-01  8.50000000E-01  7.90000000E-01
  7.20000000E-01  8.50000000E-01  7.20000000E-01  8.50000000E-01  7.20000000E-01
  8.50000000E-01  8.50000000E-01  8.50000000E-01  8.50000000E-01  8.60000000E-01
  8.50000000E-01  8.50000000E-01  8.50000000E-01  7.20000000E-01  8.50000000E-01
  8.50000000E-01  7.20000000E-01  8.50000000E-01  8.50000000E-01  7.20000000E-01
  8.50000000E-01  7.90000000E-01  7.20000000E-01  8.50000000E-01  7.90000000E-01
  7.20000000E-01  7.20000000E-01  7.90000000E-01  8.50000000E-01  8.50000000E-01
  7.90000000E-01  7.20000000E-01  8.50000000E-01  7.90000000E-01  7.20000000E-01
  7.20000000E-01  8.50000000E-01  7.20000000E-01  8.50000000E-01  8.50000000E-01
  8.50000000E-01  8.50000000E-01  8.60000000E-01  8.50000000E-01  8.50000000E-01
  8.50000000E-01  7.20000000E-01  8.50000000E-01  8.50000000E-01  7.20000000E-01
  8.50000000E-01  8.50000000E-01  7.20000000E-01  8.50000000E-01  7.90000000E-01
  7.20000000E-01  8.50000000E-01  7.90000000E-01  7.20000000E-01  7.20000000E-01
  7.90000000E-01  8.50000000E-01  8.50000000E-01  7.90000000E-01  7.20000000E-01
  8.50000000E-01  7.90000000E-01  7.20000000E-01  7.20000000E-01  8.50000000E-01
  7.20000000E-01  8.50000000E-01  8.50000000E-01  8.50000000E-01  8.50000000E-01
  8.60000000E-01  8.50000000E-01  8.50000000E-01  8.50000000E-01  7.20000000E-01
  8.50000000E-01  8.50000000E-01  7.20000000E-01  8.50000000E-01  8.50000000E-01
  7.20000000E-01  8.50000000E-01  7.90000000E-01  7.20000000E-01  8.50000000E-01
  7.90000000E-01  7.20000000E-01  7.20000000E-01  8.50000000E-01  7.90000000E-01
  8.50000000E-01  7.20000000E-01  7.90000000E-01  8.50000000E-01  8.50000000E-01
  7.90000000E-01  7.20000000E-01  7.20000000E-01  8.50000000E-01  7.20000000E-01
  8.50000000E-01  8.50000000E-01  8.50000000E-01  8.50000000E-01  8.60000000E-01
  8.50000000E-01  8.50000000E-01  8.50000000E-01  7.20000000E-01  8.50000000E-01
  8.50000000E-01  7.20000000E-01  8.50000000E-01  8.50000000E-01  7.20000000E-01
  8.50000000E-01  7.90000000E-01  7.20000000E-01  8.50000000E-01  7.20000000E-01
  8.50000000E-01  7.20000000E-01  8.50000000E-01  7.90000000E-01  8.50000000E-01
  7.20000000E-01  8.50000000E-01  7.20000000E-01  8.50000000E-01  7.20000000E-01
  8.50000000E-01  8.50000000E-01  8.50000000E-01  8.50000000E-01  8.60000000E-01
  8.50000000E-01  8.50000000E-01  8.50000000E-01  7.20000000E-01  8.50000000E-01
  8.50000000E-01  7.20000000E-01  8.50000000E-01  8.50000000E-01  7.20000000E-01
  8.50000000E-01  7.90000000E-01  7.20000000E-01  8.50000000E-01  7.20000000E-01
  8.50000000E-01  7.20000000E-01  8.50000000E-01  7.90000000E-01  8.50000000E-01
  7.20000000E-01  8.50000000E-01  7.20000000E-01  8.50000000E-01  7.20000000E-01
  8.50000000E-01  8.50000000E-01  8.50000000E-01  8.50000000E-01  8.60000000E-01
  8.50000000E-01  8.50000000E-01  8.50000000E-01  7.20000000E-01  8.50000000E-01
  8.50000000E-01  7.20000000E-01  8.50000000E-01  8.50000000E-01  7.20000000E-01
  8.50000000E-01  7.90000000E-01  7.20000000E-01  8.50000000E-01  7.20000000E-01
  8.50000000E-01  7.20000000E-01  8.50000000E-01  7.90000000E-01  8.50000000E-01
  7.20000000E-01  8.50000000E-01  7.20000000E-01  8.50000000E-01  7.20000000E-01
  8.50000000E-01  8.50000000E-01  8.50000000E-01  8.50000000E-01  8.60000000E-01
  8.50000000E-01  8.50000000E-01  8.50000000E-01  7.20000000E-01  8.50000000E-01
  8.50000000E-01  7.20000000E-01  8.50000000E-01  8.50000000E-01  7.20000000E-01
  8.50000000E-01  7.90000000E-01  7.20000000E-01  8.50000000E-01  7.20000000E-01
  8.50000000E-01  7.20000000E-01  7.90000000E-01  8.50000000E-01  8.50000000E-01
  7.90000000E-01  7.20000000E-01  8.50000000E-01  7.20000000E-01  8.50000000E-01
  7.20000000E-01  8.50000000E-01  8.50000000E-01  8.50000000E-01  8.50000000E-01
  8.60000000E-01  8.50000000E-01  8.50000000E-01  8.50000000E-01  7.20000000E-01
  8.50000000E-01  8.50000000E-01  7.20000000E-01  8.50000000E-01  8.50000000E-01
  7.20000000E-01  8.50000000E-01  7.90000000E-01  7.20000000E-01  8.50000000E-01
  7.20000000E-01  8.50000000E-01  7.20000000E-01  8.50000000E-01  7.90000000E-01
  8.50000000E-01  7.20000000E-01  8.50000000E-01  7.20000000E-01  8.50000000E-01
  7.20000000E-01  8.50000000E-01  8.50000000E-01  8.50000000E-01  8.50000000E-01
  8.60000000E-01  8.50000000E-01  8.50000000E-01  8.50000000E-01  7.20000000E-01
  8.50000000E-01  8.50000000E-01  7.20000000E-01  8.50000000E-01  8.50000000E-01
  7.20000000E-01  8.50000000E-01  7.90000000E-01  7.20000000E-01  8.50000000E-01
  7.90000000E-01  7.20000000E-01  7.20000000E-01  7.90000000E-01  8.50000000E-01
  8.50000000E-01  7.90000000E-01  7.20000000E-01  8.50000000E-01  7.90000000E-01
  7.20000000E-01  7.20000000E-01  8.50000000E-01  7.20000000E-01  8.50000000E-01
  8.50000000E-01  8.50000000E-01  8.50000000E-01  8.60000000E-01  8.50000000E-01
  8.50000000E-01  8.50000000E-01  7.20000000E-01  8.50000000E-01  8.50000000E-01
  7.20000000E-01  8.50000000E-01  8.50000000E-01  7.20000000E-01  8.50000000E-01
  7.90000000E-01  7.20000000E-01  8.50000000E-01  7.20000000E-01  8.50000000E-01
  7.20000000E-01  7.90000000E-01  8.50000000E-01  8.50000000E-01  7.90000000E-01
  7.20000000E-01  8.50000000E-01  7.20000000E-01  8.50000000E-01  7.20000000E-01
  8.50000000E-01  8.50000000E-01  8.50000000E-01  8.50000000E-01  8.60000000E-01
  8.50000000E-01  8.50000000E-01  8.50000000E-01  7.20000000E-01  8.50000000E-01
  8.50000000E-01  7.20000000E-01  8.50000000E-01  8.50000000E-01  7.20000000E-01
  8.50000000E-01  7.90000000E-01  7.20000000E-01  8.50000000E-01  7.20000000E-01
  8.50000000E-01  7.20000000E-01  7.90000000E-01  8.50000000E-01  8.50000000E-01
  7.90000000E-01  7.20000000E-01  8.50000000E-01  7.20000000E-01  8.50000000E-01
  7.20000000E-01  8.50000000E-01  8.50000000E-01  8.50000000E-01  8.50000000E-01
  8.60000000E-01  8.50000000E-01  8.50000000E-01  8.50000000E-01  7.20000000E-01
  8.50000000E-01  8.50000000E-01  7.20000000E-01  8.50000000E-01  8.50000000E-01
  7.20000000E-01  8.50000000E-01  7.90000000E-01  7.20000000E-01  8.50000000E-01
  7.90000000E-01  7.20000000E-01  7.20000000E-01  8.50000000E-01  7.90000000E-01
  8.50000000E-01  7.20000000E-01  7.90000000E-01  8.50000000E-01  8.50000000E-01
  7.90000000E-01  7.20000000E-01  7.20000000E-01  8.50000000E-01  7.20000000E-01
  8.50000000E-01  8.50000000E-01  8.50000000E-01  8.50000000E-01  8.60000000E-01
  8.50000000E-01  8.50000000E-01  8.50000000E-01  7.20000000E-01  8.50000000E-01
  8.50000000E-01  7.20000000E-01  8.50000000E-01  8.50000000E-01  7.20000000E-01
  8.50000000E-01  7.90000000E-01  7.20000000E-01  8.50000000E-01  7.90000000E-01
  7.20000000E-01  7.20000000E-01  8.50000000E-01  7.90000000E-01  8.50000000E-01
  7.20000000E-01  7.90000000E-01  8.50000000E-01  8.50000000E-01  7.90000000E-01
  7.20000000E-01  7.20000000E-01  8.50000000E-01  7.20000000E-01  8.50000000E-01
  8.50000000E-01  8.50000000E-01  8.50000000E-01  8.60000000E-01  8.50000000E-01
  8.50000000E-01  8.50000000E-01  7.20000000E-01  8.50000000E-01  8.50000000E-01
  7.20000000E-01  8.50000000E-01  8.50000000E-01  7.20000000E-01  8.50000000E-01
  7.90000000E-01  7.20000000E-01  8.50000000E-01  7.90000000E-01  7.20000000E-01
  7.20000000E-01  8.50000000E-01  7.90000000E-01  8.50000000E-01  7.20000000E-01
  7.90000000E-01  8.50000000E-01  8.50000000E-01  7.90000000E-01  7.20000000E-01
  7.20000000E-01  8.50000000E-01  7.20000000E-01  8.50000000E-01  8.50000000E-01
  8.50000000E-01  8.50000000E-01  8.60000000E-01  8.50000000E-01  8.50000000E-01
  8.50000000E-01  7.20000000E-01  8.50000000E-01  8.50000000E-01  7.20000000E-01
  8.50000000E-01  8.50000000E-01  7.20000000E-01  8.50000000E-01  7.90000000E-01
  7.20000000E-01  8.50000000E-01  7.20000000E-01  8.50000000E-01  7.20000000E-01
  7.90000000E-01  8.50000000E-01  8.50000000E-01  7.90000000E-01  7.20000000E-01
  8.50000000E-01  7.20000000E-01  8.50000000E-01  7.20000000E-01  8.50000000E-01
  8.50000000E-01  8.50000000E-01  8.50000000E-01  8.60000000E-01  8.50000000E-01
  8.50000000E-01  8.50000000E-01  7.20000000E-01  8.50000000E-01  8.50000000E-01
  7.20000000E-01  8.50000000E-01  8.50000000E-01  7.20000000E-01  8.50000000E-01
  7.90000000E-01  7.20000000E-01  8.50000000E-01  7.90000000E-01  7.20000000E-01
  7.20000000E-01  7.90000000E-01  8.50000000E-01  8.50000000E-01  7.90000000E-01
  7.20000000E-01  8.50000000E-01  7.90000000E-01  7.20000000E-01  7.20000000E-01
  8.50000000E-01  7.20000000E-01  8.50000000E-01  8.50000000E-01  8.50000000E-01
  8.50000000E-01  8.60000000E-01  8.50000000E-01  8.50000000E-01  8.50000000E-01
  7.20000000E-01  8.50000000E-01  8.50000000E-01  7.20000000E-01  8.50000000E-01
  8.50000000E-01  7.20000000E-01  8.50000000E-01  7.90000000E-01  7.20000000E-01
  8.50000000E-01  7.20000000E-01  8.50000000E-01  7.20000000E-01  7.90000000E-01
  8.50000000E-01  8.50000000E-01  7.90000000E-01  7.20000000E-01  8.50000000E-01
  7.20000000E-01  8.50000000E-01  7.20000000E-01  8.50000000E-01  8.50000000E-01
  8.50000000E-01  8.50000000E-01  8.60000000E-01  8.50000000E-01  8.50000000E-01
  8.50000000E-01  7.20000000E-01  8.50000000E-01  8.50000000E-01  7.20000000E-01
  8.50000000E-01  8.50000000E-01  7.20000000E-01  8.50000000E-01  7.90000000E-01
  7.20000000E-01  8.50000000E-01  7.20000000E-01  8.50000000E-01  7.20000000E-01
  7.90000000E-01  8.50000000E-01  8.50000000E-01  7.90000000E-01  7.20000000E-01
  8.50000000E-01  7.20000000E-01  8.50000000E-01  7.20000000E-01  8.50000000E-01
  8.50000000E-01  8.50000000E-01  8.50000000E-01  8.60000000E-01  8.50000000E-01
  8.50000000E-01  8.50000000E-01  7.20000000E-01  8.50000000E-01  8.50000000E-01
  7.20000000E-01  8.50000000E-01  8.50000000E-01  7.20000000E-01  8.50000000E-01
  7.90000000E-01  7.20000000E-01  8.50000000E-01  7.90000000E-01  7.20000000E-01
  7.20000000E-01  8.50000000E-01  7.90000000E-01  8.50000000E-01  7.20000000E-01
  7.90000000E-01  8.50000000E-01  8.50000000E-01  7.90000000E-01  7.20000000E-01
  7.20000000E-01  8.50000000E-01  7.20000000E-01  8.50000000E-01  8.50000000E-01
  8.50000000E-01  8.50000000E-01  8.60000000E-01  8.50000000E-01  8.50000000E-01
  8.50000000E-01  7.20000000E-01  8.50000000E-01  8.50000000E-01  7.20000000E-01
  8.50000000E-01  8.50000000E-01  7.20000000E-01  8.50000000E-01  7.90000000E-01
  7.20000000E-01  8.50000000E-01  7.20000000E-01  8.50000000E-01  7.20000000E-01
  8.50000000E-01  7.90000000E-01  8.50000000E-01  7.20000000E-01  8.50000000E-01
  7.20000000E-01  8.50000000E-01  7.20000000E-01  8.50000000E-01  8.50000000E-01
  8.50000000E-01  8.50000000E-01  8.60000000E-01  8.50000000E-01  8.50000000E-01
  8.50000000E-01  7.20000000E-01  8.50000000E-01  8.50000000E-01  7.20000000E-01
  8.50000000E-01  8.50000000E-01  7.20000000E-01  8.50000000E-01  7.90000000E-01
  7.20000000E-01  8.50000000E-01  7.90000000E-01  7.20000000E-01  7.20000000E-01
  7.90000000E-01  8.50000000E-01  8.50000000E-01  7.90000000E-01  7.20000000E-01
  8.50000000E-01  7.90000000E-01  7.20000000E-01  7.20000000E-01  8.50000000E-01
  7.20000000E-01  8.50000000E-01  8.50000000E-01  8.50000000E-01  8.50000000E-01
  8.60000000E-01  8.50000000E-01  8.50000000E-01  8.50000000E-01  7.20000000E-01
  8.50000000E-01  8.50000000E-01  7.20000000E-01  8.50000000E-01  8.50000000E-01
  7.20000000E-01  8.50000000E-01  7.90000000E-01  7.20000000E-01  8.50000000E-01
  7.90000000E-01  7.20000000E-01  7.20000000E-01  7.90000000E-01  8.50000000E-01
  8.50000000E-01  7.90000000E-01  7.20000000E-01  8.50000000E-01  7.90000000E-01
  7.20000000E-01  7.20000000E-01  8.50000000E-01  7.20000000E-01  8.50000000E-01
  8.50000000E-01  8.50000000E-01  8.50000000E-01  8.60000000E-01  8.50000000E-01
  8.50000000E-01  8.50000000E-01  7.20000000E-01  8.50000000E-01  8.50000000E-01
  7.20000000E-01  8.50000000E-01  8.50000000E-01  7.20000000E-01  8.50000000E-01
  7.90000000E-01  7.20000000E-01  8.50000000E-01  7.90000000E-01  7.20000000E-01
  7.20000000E-01  7.90000000E-01  8.50000000E-01  8.50000000E-01  7.90000000E-01
  7.20000000E-01  8.50000000E-01  7.90000000E-01  7.20000000E-01  7.20000000E-01
  8.50000000E-01  7.20000000E-01  8.50000000E-01  8.50000000E-01  8.50000000E-01
  8.50000000E-01  8.60000000E-01  8.50000000E-01  8.50000000E-01  8.50000000E-01
  7.20000000E-01  8.50000000E-01  8.50000000E-01  7.20000000E-01  8.50000000E-01
  8.50000000E-01  7.20000000E-01  8.50000000E-01  7.90000000E-01  7.20000000E-01
  8.50000000E-01  7.20000000E-01  8.50000000E-01  7.20000000E-01  8.50000000E-01
  7.90000000E-01  8.50000000E-01  7.20000000E-01  8.50000000E-01  7.20000000E-01
  8.50000000E-01  7.20000000E-01  8.50000000E-01  8.50000000E-01  8.50000000E-01
  8.50000000E-01  8.60000000E-01  8.50000000E-01  8.50000000E-01  8.50000000E-01
  7.20000000E-01  8.50000000E-01  8.50000000E-01  7.20000000E-01  8.50000000E-01
  8.50000000E-01  7.20000000E-01  8.50000000E-01  7.90000000E-01  7.20000000E-01
  8.50000000E-01  7.90000000E-01  7.20000000E-01  7.20000000E-01  8.50000000E-01
  7.90000000E-01  8.50000000E-01  7.20000000E-01  7.90000000E-01  8.50000000E-01
  8.50000000E-01  7.90000000E-01  7.20000000E-01  7.20000000E-01  8.50000000E-01
  7.20000000E-01  8.50000000E-01  8.50000000E-01  8.50000000E-01  8.50000000E-01
  8.60000000E-01  8.50000000E-01  8.50000000E-01  8.50000000E-01  7.20000000E-01
  8.50000000E-01  8.50000000E-01  7.20000000E-01  8.50000000E-01  8.50000000E-01
  7.20000000E-01  8.50000000E-01  7.90000000E-01  7.20000000E-01  8.50000000E-01
  7.20000000E-01  8.50000000E-01  7.20000000E-01  8.50000000E-01  7.90000000E-01
  8.50000000E-01  7.20000000E-01  8.50000000E-01  7.20000000E-01  8.50000000E-01
  7.20000000E-01  8.50000000E-01  8.50000000E-01  8.50000000E-01  8.50000000E-01
  8.60000000E-01  8.50000000E-01  8.50000000E-01  8.50000000E-01  7.20000000E-01
  8.50000000E-01  8.50000000E-01  7.20000000E-01  8.50000000E-01  8.50000000E-01
  7.20000000E-01  8.50000000E-01  7.90000000E-01  7.20000000E-01  8.50000000E-01
  7.20000000E-01  8.50000000E-01  7.20000000E-01  7.90000000E-01  8.50000000E-01
  8.50000000E-01  7.90000000E-01  7.20000000E-01  8.50000000E-01  7.20000000E-01
  8.50000000E-01  7.20000000E-01  8.50000000E-01  8.50000000E-01  8.50000000E-01
  8.50000000E-01  8.60000000E-01  8.50000000E-01  8.50000000E-01  8.50000000E-01
  7.20000000E-01  8.50000000E-01  8.50000000E-01  7.20000000E-01  8.50000000E-01
  8.50000000E-01  7.20000000E-01  8.50000000E-01  7.90000000E-01  7.20000000E-01
  8.50000000E-01  7.20000000E-01  8.50000000E-01  7.20000000E-01  7.90000000E-01
  8.50000000E-01  8.50000000E-01  7.90000000E-01  7.20000000E-01  8.50000000E-01
  7.20000000E-01  8.50000000E-01  7.20000000E-01  8.50000000E-01  8.50000000E-01
  8.50000000E-01  8.50000000E-01  8.60000000E-01  8.50000000E-01  8.50000000E-01
  8.50000000E-01  7.20000000E-01  8.50000000E-01  8.50000000E-01  7.20000000E-01
  8.50000000E-01  8.50000000E-01  7.20000000E-01  8.50000000E-01  7.90000000E-01
  7.20000000E-01  8.50000000E-01  7.90000000E-01  7.20000000E-01  7.20000000E-01
  8.50000000E-01  7.90000000E-01  8.50000000E-01  7.20000000E-01  7.90000000E-01
  8.50000000E-01  8.50000000E-01  7.90000000E-01  7.20000000E-01  7.20000000E-01
  8.50000000E-01  7.20000000E-01  8.50000000E-01  8.50000000E-01  8.50000000E-01
  8.50000000E-01  8.60000000E-01  8.50000000E-01  8.50000000E-01  8.50000000E-01
  7.20000000E-01  8.50000000E-01  8.50000000E-01  7.20000000E-01  8.50000000E-01
  8.50000000E-01  7.20000000E-01  8.50000000E-01  7.90000000E-01  7.20000000E-01
  8.50000000E-01  7.90000000E-01  7.20000000E-01  7.20000000E-01  7.90000000E-01
  8.50000000E-01  8.50000000E-01  7.90000000E-01  7.20000000E-01  8.50000000E-01
  7.90000000E-01  7.20000000E-01  7.20000000E-01  8.50000000E-01  7.20000000E-01
  8.50000000E-01  8.50000000E-01  8.50000000E-01  8.50000000E-01  8.60000000E-01
  8.50000000E-01  8.50000000E-01  8.50000000E-01  7.20000000E-01  8.50000000E-01
  8.50000000E-01  7.20000000E-01  8.50000000E-01  8.50000000E-01  7.20000000E-01
  8.50000000E-01  7.90000000E-01  7.20000000E-01  8.50000000E-01  7.20000000E-01
  8.50000000E-01  7.20000000E-01  7.90000000E-01  8.50000000E-01  8.50000000E-01
  7.90000000E-01  7.20000000E-01  8.50000000E-01  7.20000000E-01  8.50000000E-01
  7.20000000E-01  8.50000000E-01  8.50000000E-01  8.50000000E-01  8.50000000E-01
  8.60000000E-01  8.50000000E-01  8.50000000E-01  8.50000000E-01  7.20000000E-01
  8.50000000E-01  8.50000000E-01  7.20000000E-01  8.50000000E-01  8.50000000E-01
  7.20000000E-01  8.50000000E-01  7.90000000E-01  7.20000000E-01  8.50000000E-01
  7.20000000E-01  8.50000000E-01  7.20000000E-01  8.50000000E-01  7.90000000E-01
  8.50000000E-01  7.20000000E-01  8.50000000E-01  7.20000000E-01  8.50000000E-01
  7.20000000E-01  8.50000000E-01  8.50000000E-01  8.50000000E-01  8.50000000E-01
  8.60000000E-01  8.50000000E-01  8.50000000E-01  8.50000000E-01  7.20000000E-01
  8.50000000E-01  8.50000000E-01  7.20000000E-01  8.50000000E-01  8.50000000E-01
  7.20000000E-01  8.50000000E-01  7.90000000E-01  7.20000000E-01  8.50000000E-01
  7.90000000E-01  7.20000000E-01  7.20000000E-01  7.90000000E-01  8.50000000E-01
  8.50000000E-01  7.90000000E-01  7.20000000E-01  8.50000000E-01  7.90000000E-01
  7.20000000E-01  7.20000000E-01  8.50000000E-01  7.20000000E-01  8.50000000E-01
  8.50000000E-01  8.50000000E-01  8.50000000E-01  8.60000000E-01  8.50000000E-01
  8.50000000E-01  8.50000000E-01  7.20000000E-01  8.50000000E-01  8.50000000E-01
  7.20000000E-01  8.50000000E-01  8.50000000E-01  7.20000000E-01  8.50000000E-01
  7.90000000E-01  7.20000000E-01  8.50000000E-01  7.20000000E-01  8.50000000E-01
  7.20000000E-01  8.50000000E-01  7.90000000E-01  8.50000000E-01  7.20000000E-01
  8.50000000E-01  7.20000000E-01  8.50000000E-01  7.20000000E-01  8.50000000E-01
  8.50000000E-01  8.50000000E-01  8.50000000E-01  8.60000000E-01  8.50000000E-01
  8.50000000E-01  8.50000000E-01  7.20000000E-01  8.50000000E-01  8.50000000E-01
  7.20000000E-01  8.50000000E-01  8.50000000E-01  7.20000000E-01  8.50000000E-01
  7.90000000E-01  7.20000000E-01  8.50000000E-01  7.90000000E-01  7.20000000E-01
  7.20000000E-01  8.50000000E-01  7.90000000E-01  8.50000000E-01  7.20000000E-01
  7.90000000E-01  8.50000000E-01  8.50000000E-01  7.90000000E-01  7.20000000E-01
  7.20000000E-01  8.50000000E-01  7.20000000E-01  8.50000000E-01  8.50000000E-01
  8.50000000E-01  8.50000000E-01  8.60000000E-01  8.50000000E-01  8.50000000E-01
  8.50000000E-01  7.20000000E-01  8.50000000E-01  8.50000000E-01  7.20000000E-01
  8.50000000E-01  8.50000000E-01  7.20000000E-01  8.50000000E-01  7.90000000E-01
  7.20000000E-01  8.50000000E-01  7.90000000E-01  7.20000000E-01  7.20000000E-01
  8.50000000E-01  7.90000000E-01  8.50000000E-01  7.20000000E-01  7.90000000E-01
  8.50000000E-01  8.50000000E-01  7.90000000E-01  7.20000000E-01  7.20000000E-01
  8.50000000E-01  7.20000000E-01  8.50000000E-01  8.50000000E-01  8.50000000E-01
  8.50000000E-01  8.60000000E-01  8.50000000E-01  8.50000000E-01  8.50000000E-01
  7.20000000E-01  8.50000000E-01  8.50000000E-01  7.20000000E-01  8.50000000E-01
  8.50000000E-01  7.20000000E-01  8.50000000E-01  7.90000000E-01  7.20000000E-01
  8.50000000E-01  7.20000000E-01  8.50000000E-01  7.20000000E-01  8.50000000E-01
  7.90000000E-01  8.50000000E-01  7.20000000E-01  8.50000000E-01  7.20000000E-01
  8.50000000E-01  7.20000000E-01  8.50000000E-01  8.50000000E-01  8.50000000E-01
  8.50000000E-01  8.60000000E-01  8.50000000E-01  8.50000000E-01  8.50000000E-01
  7.20000000E-01  8.50000000E-01  8.50000000E-01  7.20000000E-01  8.50000000E-01
  8.50000000E-01  7.20000000E-01  8.50000000E-01  7.90000000E-01  7.20000000E-01
  8.50000000E-01  7.20000000E-01  8.50000000E-01  7.20000000E-01  7.90000000E-01
  8.50000000E-01  8.50000000E-01  7.90000000E-01  7.20000000E-01  8.50000000E-01
  7.20000000E-01  8.50000000E-01  7.20000000E-01  8.50000000E-01  8.50000000E-01
  8.50000000E-01  8.50000000E-01  8.50000000E-01  8.00000000E-01  8.00000000E-01
  8.00000000E-01  8.00000000E-01  8.00000000E-01  8.00000000E-01  8.00000000E-01
  8.00000000E-01  8.00000000E-01  8.00000000E-01  8.00000000E-01  8.00000000E-01
  8.00000000E-01  8.00000000E-01  8.00000000E-01  8.00000000E-01  8.00000000E-01
  8.00000000E-01  8.00000000E-01  8.00000000E-01  8.00000000E-01  8.00000000E-01
  8.00000000E-01  8.00000000E-01  8.00000000E-01  8.00000000E-01  8.00000000E-01
  8.00000000E-01  8.00000000E-01  8.00000000E-01  8.00000000E-01  8.00000000E-01
  8.00000000E-01  8.00000000E-01  8.00000000E-01  8.00000000E-01  8.00000000E-01
  8.00000000E-01  8.00000000E-01  8.00000000E-01  8.00000000E-01  8.00000000E-01
  8.00000000E-01  8.00000000E-01  8.00000000E-01  8.00000000E-01  8.00000000E-01
  8.00000000E-01  8.00000000E-01  8.00000000E-01  8.00000000E-01  8.00000000E-01
  8.00000000E-01  8.00000000E-01  8.00000000E-01  8.00000000E-01  8.00000000E-01
  8.00000000E-01  8.00000000E-01  8.00000000E-01  8.00000000E-01  8.00000000E-01
  8.00000000E-01  8.00000000E-01  8.00000000E-01  8.00000000E-01  8.00000000E-01
  8.00000000E-01  8.00000000E-01  8.00000000E-01  8.00000000E-01  8.00000000E-01
  8.00000000E-01  8.00000000E-01  8.00000000E-01  8.00000000E-01  8.00000000E-01
  8.00000000E-01  8.00000000E-01  8.00000000E-01  8.00000000E-01  8.00000000E-01
  8.00000000E-01  8.00000000E-01  8.00000000E-01  8.00000000E-01  8.00000000E-01
  8.00000000E-01  8.00000000E-01  8.00000000E-01  8.00000000E-01  8.00000000E-01
  8.00000000E-01  8.00000000E-01  8.00000000E-01  8.00000000E-01  8.00000000E-01
  8.00000000E-01  8.00000000E-01  8.00000000E-01  8.00000000E-01  8.00000000E-01
  8.00000000E-01  8.00000000E-01  8.00000000E-01  8.00000000E-01  8.00000000E-01
  8.00000000E-01  8.00000000E-01  8.00000000E-01  8.00000000E-01  8.00000000E-01
  8.00000000E-01  8.00000000E-01  8.00000000E-01  8.00000000E-01  8.00000000E-01
  8.00000000E-01  8.00000000E-01  8.00000000E-01  8.00000000E-01  8.00000000E-01
  8.00000000E-01  8.00000000E-01  8.00000000E-01  8.00000000E-01  8.00000000E-01
  8.00000000E-01  8.00000000E-01  8.00000000E-01  8.00000000E-01  8.50000000E-01
  7.20000000E-01  7.90000000E-01  7.20000000E-01  7.90000000E-01  8.50000000E-01
  7.20000000E-01  7.20000000E-01  7.20000000E-01  7.20000000E-01  7.20000000E-01
  7.20000000E-01  7.20000000E-01  7.90000000E-01  7.20000000E-01  7.20000000E-01
  7.90000000E-01  7.20000000E-01  7.90000000E-01  8.50000000E-01  8.50000000E-01
  8.50000000E-01  8.50000000E-01  8.50000000E-01  8.50000000E-01  8.50000000E-01
  8.50000000E-01  8.50000000E-01  8.50000000E-01  8.50000000E-01  8.50000000E-01
  8.50000000E-01  8.50000000E-01  8.00000000E-01  8.50000000E-01  8.50000000E-01
  8.50000000E-01  8.00000000E-01  8.50000000E-01  8.50000000E-01  8.50000000E-01
  8.00000000E-01  8.50000000E-01  8.50000000E-01  8.50000000E-01  8.00000000E-01
  8.50000000E-01  8.50000000E-01  8.50000000E-01  8.00000000E-01  8.50000000E-01
  8.50000000E-01  8.50000000E-01  8.00000000E-01  8.50000000E-01  8.50000000E-01
  8.50000000E-01  8.00000000E-01  8.50000000E-01  8.50000000E-01  8.50000000E-01
  8.00000000E-01  8.50000000E-01  8.50000000E-01  8.50000000E-01  8.00000000E-01
  8.50000000E-01  8.50000000E-01  8.50000000E-01  8.00000000E-01  8.50000000E-01
  8.50000000E-01  8.50000000E-01  8.00000000E-01  8.50000000E-01  8.50000000E-01
  8.50000000E-01  8.00000000E-01  8.50000000E-01  8.50000000E-01  8.50000000E-01
  8.00000000E-01  8.50000000E-01  8.50000000E-01  8.50000000E-01  8.00000000E-01
  8.50000000E-01  8.50000000E-01  8.50000000E-01  8.00000000E-01  8.50000000E-01
  8.50000000E-01  8.50000000E-01  8.00000000E-01  8.50000000E-01  8.50000000E-01
  8.50000000E-01  8.00000000E-01  8.50000000E-01  8.50000000E-01  8.50000000E-01
  8.00000000E-01  8.50000000E-01  8.50000000E-01  8.50000000E-01  8.00000000E-01
  8.50000000E-01  8.50000000E-01  8.50000000E-01  8.00000000E-01  8.50000000E-01
  8.50000000E-01  8.50000000E-01  8.00000000E-01  8.50000000E-01  8.50000000E-01
  8.50000000E-01  8.00000000E-01  8.50000000E-01  8.50000000E-01  8.50000000E-01
  8.00000000E-01  8.50000000E-01  8.50000000E-01  8.50000000E-01  8.00000000E-01
  8.50000000E-01  8.50000000E-01  8.50000000E-01  8.00000000E-01  8.50000000E-01
  8.50000000E-01  8.50000000E-01  8.00000000E-01  8.50000000E-01  8.50000000E-01
  8.50000000E-01  8.00000000E-01  8.50000000E-01  8.50000000E-01  8.50000000E-01
  8.00000000E-01  8.50000000E-01  8.50000000E-01  8.50000000E-01  8.00000000E-01
  8.50000000E-01  8.50000000E-01  8.50000000E-01  8.00000000E-01  8.50000000E-01
  8.50000000E-01  8.50000000E-01  8.00000000E-01  8.50000000E-01  8.50000000E-01
  8.50000000E-01  8.00000000E-01  8.50000000E-01  8.50000000E-01  8.50000000E-01
  8.00000000E-01  8.50000000E-01  8.50000000E-01  8.50000000E-01  8.00000000E-01
  8.50000000E-01  8.50000000E-01  8.50000000E-01  8.00000000E-01  8.50000000E-01
  8.50000000E-01  8.50000000E-01  8.00000000E-01  8.50000000E-01  8.50000000E-01
  8.50000000E-01  8.00000000E-01  8.50000000E-01  8.50000000E-01  8.50000000E-01
  8.00000000E-01  8.50000000E-01  8.50000000E-01  8.50000000E-01  8.00000000E-01
  8.50000000E-01  8.50000000E-01  8.50000000E-01  8.00000000E-01  8.50000000E-01
  8.50000000E-01  8.50000000E-01  8.00000000E-01  8.50000000E-01  8.50000000E-01
  8.50000000E-01  8.00000000E-01  8.50000000E-01  8.50000000E-01  8.50000000E-01
  8.00000000E-01  8.50000000E-01  8.50000000E-01  8.50000000E-01  8.00000000E-01
  8.50000000E-01  8.50000000E-01  8.50000000E-01  8.00000000E-01  8.50000000E-01
  8.50000000E-01  8.50000000E-01  8.00000000E-01  8.50000000E-01  8.50000000E-01
  8.50000000E-01  8.00000000E-01  8.50000000E-01  8.50000000E-01  8.50000000E-01
  8.00000000E-01  8.50000000E-01  8.50000000E-01  8.50000000E-01  8.00000000E-01
  8.50000000E-01  8.50000000E-01  8.50000000E-01  8.00000000E-01  8.50000000E-01
  8.50000000E-01  8.50000000E-01  8.00000000E-01  8.50000000E-01  8.50000000E-01
  8.50000000E-01  8.00000000E-01  8.50000000E-01  8.50000000E-01  8.50000000E-01
  8.00000000E-01  8.50000000E-01  8.50000000E-01  8.50000000E-01  8.00000000E-01
  8.50000000E-01  8.50000000E-01  8.50000000E-01  8.00000000E-01  8.50000000E-01
  8.50000000E-01  8.50000000E-01  8.00000000E-01  8.50000000E-01  8.50000000E-01
  8.50000000E-01  8.00000000E-01  8.50000000E-01  8.50000000E-01  8.50000000E-01
  8.00000000E-01  8.50000000E-01  8.50000000E-01  8.50000000E-01  8.00000000E-01
  8.50000000E-01  8.50000000E-01  8.50000000E-01  8.00000000E-01  8.50000000E-01
  8.50000000E-01  8.50000000E-01  8.00000000E-01  8.50000000E-01  8.50000000E-01
  8.50000000E-01  8.00000000E-01  8.50000000E-01  8.50000000E-01  8.50000000E-01
  8.00000000E-01  8.50000000E-01  8.50000000E-01  8.50000000E-01  8.00000000E-01
  8.50000000E-01  8.50000000E-01  8.50000000E-01  8.00000000E-01  8.50000000E-01
  8.50000000E-01  8.50000000E-01  8.00000000E-01  8.50000000E-01  8.50000000E-01
  8.50000000E-01  8.00000000E-01  8.50000000E-01  8.50000000E-01  8.50000000E-01
  8.00000000E-01  8.50000000E-01  8.50000000E-01  8.50000000E-01  8.00000000E-01
  8.50000000E-01  8.50000000E-01  8.50000000E-01  8.00000000E-01  8.50000000E-01
  8.50000000E-01  8.50000000E-01  8.00000000E-01  8.50000000E-01  8.50000000E-01
  8.50000000E-01  8.00000000E-01  8.50000000E-01  8.50000000E-01  8.50000000E-01
  8.00000000E-01  8.50000000E-01  8.50000000E-01  8.50000000E-01  8.00000000E-01
  8.50000000E-01  8.50000000E-01  8.50000000E-01  8.00000000E-01  8.50000000E-01
  8.50000000E-01  8.50000000E-01  8.00000000E-01  8.50000000E-01  8.50000000E-01
  8.50000000E-01  8.00000000E-01  8.50000000E-01  8.50000000E-01  8.50000000E-01
  8.00000000E-01  8.50000000E-01  8.50000000E-01  8.50000000E-01  8.00000000E-01
  8.50000000E-01  8.50000000E-01  8.50000000E-01  8.00000000E-01  8.50000000E-01
  8.50000000E-01  8.50000000E-01  8.00000000E-01  8.50000000E-01  8.50000000E-01
  8.50000000E-01  8.00000000E-01  8.50000000E-01  8.50000000E-01  8.50000000E-01
  8.00000000E-01  8.50000000E-01  8.50000000E-01  8.50000000E-01  8.00000000E-01
  8.50000000E-01  8.50000000E-01  8.50000000E-01  8.00000000E-01  8.50000000E-01
  8.50000000E-01  8.50000000E-01  8.00000000E-01  8.50000000E-01  8.50000000E-01
  8.50000000E-01  8.00000000E-01  8.50000000E-01  8.50000000E-01  8.50000000E-01
  8.00000000E-01  8.50000000E-01  8.50000000E-01  8.50000000E-01  8.00000000E-01
  8.50000000E-01  8.50000000E-01  8.50000000E-01  8.00000000E-01  8.50000000E-01
  8.50000000E-01  8.50000000E-01  8.00000000E-01  8.50000000E-01  8.50000000E-01
  8.50000000E-01  8.00000000E-01  8.50000000E-01  8.50000000E-01  8.50000000E-01
  8.00000000E-01  8.50000000E-01  8.50000000E-01  8.50000000E-01  8.00000000E-01
  8.50000000E-01  8.50000000E-01  8.50000000E-01  8.00000000E-01  8.50000000E-01
  8.50000000E-01  8.50000000E-01  8.00000000E-01  8.50000000E-01  8.50000000E-01
  8.50000000E-01  8.00000000E-01  8.50000000E-01  8.50000000E-01  8.50000000E-01
  8.00000000E-01  8.50000000E-01  8.50000000E-01  8.50000000E-01  8.00000000E-01
  8.50000000E-01  8.50000000E-01  8.50000000E-01  8.00000000E-01  8.50000000E-01
  8.50000000E-01  8.50000000E-01  8.00000000E-01  8.50000000E-01  8.50000000E-01
  8.50000000E-01  8.00000000E-01  8.50000000E-01  8.50000000E-01  8.50000000E-01
  8.00000000E-01  8.50000000E-01  8.50000000E-01  8.50000000E-01  8.00000000E-01
  8.50000000E-01  8.50000000E-01  8.50000000E-01  8.00000000E-01  8.50000000E-01
  8.50000000E-01  8.50000000E-01  8.00000000E-01  8.50000000E-01  8.50000000E-01
  8.50000000E-01  8.00000000E-01  8.50000000E-01  8.50000000E-01  8.50000000E-01
  8.00000000E-01  8.50000000E-01  8.50000000E-01  8.50000000E-01  8.00000000E-01
  8.50000000E-01  8.50000000E-01  8.50000000E-01  8.00000000E-01  8.50000000E-01
  8.50000000E-01  8.50000000E-01  8.00000000E-01  8.50000000E-01  8.50000000E-01
  8.50000000E-01  8.00000000E-01  8.50000000E-01  8.50000000E-01  8.50000000E-01
  8.00000000E-01  8.50000000E-01  8.50000000E-01  8.50000000E-01  8.00000000E-01
  8.50000000E-01  8.50000000E-01  8.50000000E-01  8.00000000E-01  8.50000000E-01
  8.50000000E-01  8.50000000E-01  8.00000000E-01  8.50000000E-01  8.50000000E-01
  8.50000000E-01  8.00000000E-01  8.50000000E-01  8.50000000E-01  8.50000000E-01
  8.00000000E-01  8.50000000E-01  8.50000000E-01  8.50000000E-01  8.00000000E-01
  8.50000000E-01  8.50000000E-01  8.50000000E-01  8.00000000E-01  8.50000000E-01
  8.50000000E-01  8.50000000E-01  8.00000000E-01  8.50000000E-01  8.50000000E-01
  8.50000000E-01  8.00000000E-01  8.50000000E-01  8.50000000E-01  8.50000000E-01
  8.00000000E-01  8.50000000E-01  8.50000000E-01  8.50000000E-01  8.00000000E-01
  8.50000000E-01  8.50000000E-01  8.50000000E-01  8.00000000E-01  8.50000000E-01
  8.50000000E-01  8.50000000E-01  8.00000000E-01  8.50000000E-01  8.50000000E-01
  8.50000000E-01  8.00000000E-01  8.50000000E-01  8.50000000E-01  8.50000000E-01
  8.00000000E-01  8.50000000E-01  8.50000000E-01  8.50000000E-01  8.00000000E-01
  8.50000000E-01  8.50000000E-01  8.50000000E-01  8.00000000E-01  8.50000000E-01
  8.50000000E-01  8.50000000E-01  8.00000000E-01  8.50000000E-01  8.50000000E-01
  8.50000000E-01  8.00000000E-01  8.50000000E-01  8.50000000E-01  8.50000000E-01
  8.00000000E-01  8.50000000E-01  8.50000000E-01  8.50000000E-01  8.00000000E-01
  8.50000000E-01  8.50000000E-01  8.50000000E-01  8.00000000E-01  8.50000000E-01
  8.50000000E-01  8.50000000E-01  8.00000000E-01  8.50000000E-01  8.50000000E-01
  8.50000000E-01  8.00000000E-01  8.50000000E-01  8.50000000E-01  8.50000000E-01
  8.00000000E-01  8.50000000E-01  8.50000000E-01  8.50000000E-01  8.00000000E-01
  8.50000000E-01  8.50000000E-01  8.50000000E-01  8.00000000E-01  8.50000000E-01
  8.50000000E-01  8.50000000E-01  8.00000000E-01  8.50000000E-01  8.50000000E-01
  8.50000000E-01  8.00000000E-01  8.50000000E-01  8.50000000E-01  8.50000000E-01
  8.00000000E-01  8.50000000E-01  8.50000000E-01  8.50000000E-01  8.00000000E-01
  8.50000000E-01  8.50000000E-01  8.50000000E-01  8.00000000E-01  8.50000000E-01
  8.50000000E-01  8.50000000E-01  8.00000000E-01  8.50000000E-01  8.50000000E-01
  8.50000000E-01  8.00000000E-01  8.50000000E-01  8.50000000E-01  8.50000000E-01
  8.00000000E-01  8.50000000E-01  8.50000000E-01  8.50000000E-01  8.00000000E-01
  8.50000000E-01  8.50000000E-01  8.50000000E-01  8.00000000E-01  8.50000000E-01
  8.50000000E-01  8.50000000E-01  8.00000000E-01  8.50000000E-01  8.50000000E-01
  8.50000000E-01  8.00000000E-01  8.50000000E-01  8.50000000E-01  8.50000000E-01
  8.00000000E-01  8.50000000E-01  8.50000000E-01  8.50000000E-01  8.00000000E-01
  8.50000000E-01  8.50000000E-01  8.50000000E-01  8.00000000E-01  8.50000000E-01
  8.50000000E-01  8.50000000E-01  8.00000000E-01  8.50000000E-01  8.50000000E-01
  8.50000000E-01  8.00000000E-01  8.50000000E-01  8.50000000E-01  8.50000000E-01
  8.00000000E-01  8.50000000E-01  8.50000000E-01  8.50000000E-01  8.00000000E-01
  8.50000000E-01  8.50000000E-01  8.50000000E-01  8.00000000E-01  8.50000000E-01
  8.50000000E-01  8.50000000E-01  8.00000000E-01  8.50000000E-01  8.50000000E-01
  8.50000000E-01  8.00000000E-01  8.50000000E-01  8.50000000E-01  8.50000000E-01
  8.00000000E-01  8.50000000E-01  8.50000000E-01  8.50000000E-01  8.00000000E-01
  8.50000000E-01  8.50000000E-01  8.50000000E-01  8.00000000E-01  8.50000000E-01
  8.50000000E-01  8.50000000E-01  8.00000000E-01  8.50000000E-01  8.50000000E-01
  8.50000000E-01  8.00000000E-01  8.50000000E-01  8.50000000E-01  8.50000000E-01
  8.00000000E-01  8.50000000E-01  8.50000000E-01  8.50000000E-01  8.00000000E-01
  8.50000000E-01  8.50000000E-01  8.50000000E-01  8.00000000E-01  8.50000000E-01
  8.50000000E-01  8.50000000E-01  8.00000000E-01  8.50000000E-01  8.50000000E-01
  8.50000000E-01  8.00000000E-01  8.50000000E-01  8.50000000E-01  8.50000000E-01
  8.00000000E-01  8.50000000E-01  8.50000000E-01  8.50000000E-01  8.00000000E-01
  8.50000000E-01  8.50000000E-01  8.50000000E-01  8.00000000E-01  8.50000000E-01
  8.50000000E-01  8.50000000E-01  8.00000000E-01  8.50000000E-01  8.50000000E-01
  8.50000000E-01  8.00000000E-01  8.50000000E-01  8.50000000E-01  8.50000000E-01
  8.00000000E-01  8.50000000E-01  8.50000000E-01  8.50000000E-01  8.00000000E-01
  8.50000000E-01  8.50000000E-01  8.50000000E-01  8.00000000E-01  8.50000000E-01
  8.50000000E-01  8.50000000E-01  8.00000000E-01  8.50000000E-01  8.50000000E-01
  8.50000000E-01  8.00000000E-01  8.50000000E-01  8.50000000E-01  8.50000000E-01
  8.00000000E-01  8.50000000E-01  8.50000000E-01  8.50000000E-01  8.00000000E-01
  8.50000000E-01  8.50000000E-01  8.50000000E-01  8.00000000E-01  8.50000000E-01
  8.50000000E-01  8.50000000E-01  8.00000000E-01  8.50000000E-01  8.50000000E-01
  8.50000000E-01  8.00000000E-01  8.50000000E-01  8.50000000E-01  8.50000000E-01
  8.00000000E-01  8.50000000E-01  8.50000000E-01  8.50000000E-01  8.00000000E-01
  8.50000000E-01  8.50000000E-01  8.50000000E-01  8.00000000E-01  8.50000000E-01
  8.50000000E-01  8.50000000E-01  8.00000000E-01  8.50000000E-01  8.50000000E-01
  8.50000000E-01  8.00000000E-01  8.50000000E-01  8.50000000E-01  8.50000000E-01
  8.00000000E-01  8.50000000E-01  8.50000000E-01  8.50000000E-01  8.00000000E-01
  8.50000000E-01  8.50000000E-01  8.50000000E-01  8.00000000E-01  8.50000000E-01
  8.50000000E-01  8.50000000E-01  8.00000000E-01  8.50000000E-01  8.50000000E-01
  8.50000000E-01  8.00000000E-01  8.50000000E-01  8.50000000E-01  8.50000000E-01
  8.00000000E-01  8.50000000E-01  8.50000000E-01  8.50000000E-01  8.00000000E-01
  8.50000000E-01  8.50000000E-01  8.50000000E-01  8.00000000E-01  8.50000000E-01
  8.50000000E-01  8.50000000E-01  8.00000000E-01  8.50000000E-01  8.50000000E-01
  8.50000000E-01  8.00000000E-01  8.50000000E-01  8.50000000E-01  8.50000000E-01
  8.00000000E-01  8.50000000E-01  8.50000000E-01  8.50000000E-01  8.00000000E-01
  8.50000000E-01  8.50000000E-01  8.50000000E-01  8.00000000E-01  8.50000000E-01
  8.50000000E-01  8.50000000E-01  8.00000000E-01  8.50000000E-01  8.50000000E-01
  8.50000000E-01  8.00000000E-01  8.50000000E-01  8.50000000E-01  8.50000000E-01
  8.00000000E-01  8.50000000E-01  8.50000000E-01  8.50000000E-01  8.00000000E-01
  8.50000000E-01  8.50000000E-01  8.50000000E-01  8.00000000E-01  8.50000000E-01
  8.50000000E-01  8.50000000E-01  8.00000000E-01  8.50000000E-01  8.50000000E-01
  8.50000000E-01  8.00000000E-01  8.50000000E-01  8.50000000E-01  8.50000000E-01
  8.00000000E-01  8.50000000E-01  8.50000000E-01  8.50000000E-01  8.00000000E-01
  8.50000000E-01  8.50000000E-01  8.50000000E-01  8.00000000E-01  8.50000000E-01
  8.50000000E-01  8.50000000E-01  8.00000000E-01  8.50000000E-01  8.50000000E-01
  8.50000000E-01  8.00000000E-01  8.50000000E-01  8.50000000E-01  8.50000000E-01
  8.00000000E-01  8.50000000E-01  8.50000000E-01  8.50000000E-01  8.00000000E-01
  8.50000000E-01  8.50000000E-01  8.50000000E-01  8.00000000E-01  8.50000000E-01
  8.50000000E-01  8.50000000E-01  8.00000000E-01  8.50000000E-01  8.50000000E-01
  8.50000000E-01  8.00000000E-01  8.50000000E-01  8.50000000E-01  8.50000000E-01
  8.00000000E-01  8.50000000E-01  8.50000000E-01  8.50000000E-01  8.00000000E-01
  8.50000000E-01  8.50000000E-01  8.50000000E-01  8.00000000E-01  8.50000000E-01
  8.50000000E-01  8.50000000E-01  8.00000000E-01  8.50000000E-01  8.50000000E-01
  8.50000000E-01  8.00000000E-01  8.50000000E-01  8.50000000E-01  8.50000000E-01
  8.00000000E-01  8.50000000E-01  8.50000000E-01  8.50000000E-01  8.00000000E-01
  8.50000000E-01  8.50000000E-01  8.50000000E-01  8.00000000E-01  8.50000000E-01
  8.50000000E-01  8.50000000E-01  8.00000000E-01  8.50000000E-01  8.50000000E-01
  8.50000000E-01  8.00000000E-01  8.50000000E-01  8.50000000E-01  8.50000000E-01
  8.00000000E-01  8.50000000E-01  8.50000000E-01  8.50000000E-01  8.00000000E-01
  8.50000000E-01  8.50000000E-01  8.50000000E-01  8.00000000E-01  8.50000000E-01
  8.50000000E-01  8.50000000E-01  8.00000000E-01  8.50000000E-01  8.50000000E-01
  8.50000000E-01  8.00000000E-01  8.50000000E-01  8.50000000E-01  8.50000000E-01
  8.00000000E-01  8.50000000E-01  8.50000000E-01  8.50000000E-01  8.00000000E-01
  8.50000000E-01  8.50000000E-01  8.50000000E-01  8.00000000E-01  8.50000000E-01
  8.50000000E-01  8.50000000E-01  8.00000000E-01  8.50000000E-01  8.50000000E-01
  8.50000000E-01  8.00000000E-01  8.50000000E-01  8.50000000E-01  8.50000000E-01
  8.00000000E-01  8.50000000E-01  8.50000000E-01  8.50000000E-01  8.00000000E-01
  8.50000000E-01  8.50000000E-01  8.50000000E-01  8.00000000E-01  8.50000000E-01
  8.50000000E-01  8.50000000E-01  8.00000000E-01  8.50000000E-01  8.50000000E-01
  8.50000000E-01  8.00000000E-01  8.50000000E-01  8.50000000E-01  8.50000000E-01
  8.00000000E-01  8.50000000E-01  8.50000000E-01  8.50000000E-01  8.00000000E-01
  8.50000000E-01  8.50000000E-01  8.50000000E-01  8.00000000E-01  8.50000000E-01
  8.50000000E-01  8.50000000E-01  8.00000000E-01  8.50000000E-01  8.50000000E-01
  8.50000000E-01  8.00000000E-01  8.50000000E-01  8.50000000E-01  8.50000000E-01
  8.00000000E-01  8.50000000E-01  8.50000000E-01  8.50000000E-01  8.00000000E-01
  8.50000000E-01  8.50000000E-01  8.50000000E-01  8.00000000E-01  8.50000000E-01
  8.50000000E-01  8.50000000E-01  8.00000000E-01  8.50000000E-01  8.50000000E-01
  8.50000000E-01  8.00000000E-01  8.50000000E-01  8.50000000E-01  8.50000000E-01
  8.00000000E-01  8.50000000E-01  8.50000000E-01  8.50000000E-01  8.00000000E-01
  8.50000000E-01  8.50000000E-01  8.50000000E-01  8.00000000E-01  8.50000000E-01
  8.50000000E-01  8.50000000E-01  8.00000000E-01  8.50000000E-01  8.50000000E-01
  8.50000000E-01  8.00000000E-01  8.50000000E-01  8.50000000E-01  8.50000000E-01
  8.00000000E-01  8.50000000E-01  8.50000000E-01  8.50000000E-01  8.00000000E-01
  8.50000000E-01  8.50000000E-01  8.50000000E-01  8.00000000E-01  8.50000000E-01
  8.50000000E-01  8.50000000E-01  8.00000000E-01  8.50000000E-01  8.50000000E-01
  8.50000000E-01  8.00000000E-01  8.50000000E-01  8.50000000E-01  8.50000000E-01
  8.00000000E-01  8.50000000E-01  8.50000000E-01  8.50000000E-01  8.00000000E-01
  8.50000000E-01  8.50000000E-01  8.50000000E-01  8.00000000E-01  8.50000000E-01
  8.50000000E-01  8.50000000E-01  8.00000000E-01  8.50000000E-01  8.50000000E-01
  8.50000000E-01  8.00000000E-01  8.50000000E-01  8.50000000E-01  8.50000000E-01
  8.00000000E-01  8.50000000E-01  8.50000000E-01  8.50000000E-01  8.00000000E-01
  8.50000000E-01  8.50000000E-01  8.50000000E-01  8.00000000E-01  8.50000000E-01
  8.50000000E-01  8.50000000E-01  8.00000000E-01  8.50000000E-01  8.50000000E-01
  8.50000000E-01  8.00000000E-01  8.50000000E-01  8.50000000E-01  8.50000000E-01
  8.00000000E-01  8.50000000E-01  8.50000000E-01  8.50000000E-01  8.00000000E-01
  8.50000000E-01  8.50000000E-01  8.50000000E-01  8.00000000E-01  8.50000000E-01
  8.50000000E-01  8.50000000E-01  8.00000000E-01  8.50000000E-01  8.50000000E-01
  8.50000000E-01  8.00000000E-01  8.50000000E-01  8.50000000E-01  8.50000000E-01
  8.00000000E-01  8.50000000E-01  8.50000000E-01  8.50000000E-01  8.00000000E-01
  8.50000000E-01  8.50000000E-01  8.50000000E-01  8.00000000E-01  8.50000000E-01
  8.50000000E-01  8.50000000E-01  8.00000000E-01  8.50000000E-01  8.50000000E-01
  8.50000000E-01  8.00000000E-01  8.50000000E-01  8.50000000E-01  8.50000000E-01
  8.00000000E-01  8.50000000E-01  8.50000000E-01  8.50000000E-01  8.00000000E-01
  8.50000000E-01  8.50000000E-01  8.50000000E-01  8.00000000E-01  8.50000000E-01
  8.50000000E-01  8.50000000E-01  8.00000000E-01  8.50000000E-01  8.50000000E-01
  8.50000000E-01  8.00000000E-01  8.50000000E-01  8.50000000E-01  8.50000000E-01
  8.00000000E-01  8.50000000E-01  8.50000000E-01  8.50000000E-01  8.00000000E-01
  8.50000000E-01  8.50000000E-01  8.50000000E-01  8.00000000E-01  8.50000000E-01
  8.50000000E-01  8.50000000E-01  8.00000000E-01  8.50000000E-01  8.50000000E-01
  8.50000000E-01  8.00000000E-01  8.50000000E-01  8.50000000E-01  8.50000000E-01
  8.00000000E-01  8.50000000E-01  8.50000000E-01  8.50000000E-01  8.00000000E-01
  8.50000000E-01  8.50000000E-01  8.50000000E-01  8.00000000E-01  8.50000000E-01
  8.50000000E-01  8.50000000E-01  8.00000000E-01  8.50000000E-01  8.50000000E-01
  8.50000000E-01  8.00000000E-01  8.50000000E-01  8.50000000E-01  8.50000000E-01
  8.00000000E-01  8.50000000E-01  8.50000000E-01  8.50000000E-01  8.00000000E-01
  8.50000000E-01  8.50000000E-01  8.50000000E-01  8.00000000E-01  8.50000000E-01
  8.50000000E-01  8.50000000E-01  8.00000000E-01  8.50000000E-01  8.50000000E-01
  8.50000000E-01  8.00000000E-01  8.50000000E-01  8.50000000E-01  8.50000000E-01
  8.00000000E-01  8.50000000E-01  8.50000000E-01  8.50000000E-01  8.00000000E-01
  8.50000000E-01  8.50000000E-01  8.50000000E-01  8.00000000E-01  8.50000000E-01
  8.50000000E-01  8.50000000E-01  8.00000000E-01  8.50000000E-01  8.50000000E-01
  8.50000000E-01  8.00000000E-01  8.50000000E-01  8.50000000E-01  8.50000000E-01
  8.00000000E-01  8.50000000E-01  8.50000000E-01  8.50000000E-01  8.00000000E-01
  8.50000000E-01  8.50000000E-01  8.50000000E-01  8.00000000E-01  8.50000000E-01
  8.50000000E-01  8.50000000E-01  8.00000000E-01  8.50000000E-01  8.50000000E-01
  8.50000000E-01  8.00000000E-01  8.50000000E-01  8.50000000E-01  8.50000000E-01
  8.00000000E-01  8.50000000E-01  8.50000000E-01  8.50000000E-01  8.00000000E-01
  8.50000000E-01  8.50000000E-01  8.50000000E-01  8.00000000E-01  8.50000000E-01
  8.50000000E-01  8.50000000E-01  8.00000000E-01  8.50000000E-01  8.50000000E-01
  8.50000000E-01  8.00000000E-01  8.50000000E-01  8.50000000E-01  8.50000000E-01
  8.00000000E-01  8.50000000E-01  8.50000000E-01  8.50000000E-01  8.00000000E-01
  8.50000000E-01  8.50000000E-01  8.50000000E-01  8.00000000E-01  8.50000000E-01
  8.50000000E-01  8.50000000E-01  8.00000000E-01  8.50000000E-01  8.50000000E-01
  8.50000000E-01  8.00000000E-01  8.50000000E-01  8.50000000E-01  8.50000000E-01
  8.00000000E-01  8.50000000E-01  8.50000000E-01  8.50000000E-01  8.00000000E-01
  8.50000000E-01  8.50000000E-01  8.50000000E-01  8.00000000E-01  8.50000000E-01
  8.50000000E-01  8.50000000E-01  8.00000000E-01  8.50000000E-01  8.50000000E-01
  8.50000000E-01  8.00000000E-01  8.50000000E-01  8.50000000E-01  8.50000000E-01
  8.00000000E-01  8.50000000E-01  8.50000000E-01  8.50000000E-01  8.00000000E-01
  8.50000000E-01  8.50000000E-01  8.50000000E-01  8.00000000E-01  8.50000000E-01
  8.50000000E-01  8.50000000E-01  8.00000000E-01  8.50000000E-01  8.50000000E-01
  8.50000000E-01  8.00000000E-01  8.50000000E-01  8.50000000E-01  8.50000000E-01
  8.00000000E-01  8.50000000E-01  8.50000000E-01  8.50000000E-01  8.00000000E-01
  8.50000000E-01  8.50000000E-01  8.50000000E-01  8.00000000E-01  8.50000000E-01
  8.50000000E-01  8.50000000E-01  8.00000000E-01  8.50000000E-01  8.50000000E-01
  8.50000000E-01  8.00000000E-01  8.50000000E-01  8.50000000E-01  8.50000000E-01
  8.00000000E-01  8.50000000E-01  8.50000000E-01  8.50000000E-01  8.00000000E-01
  8.50000000E-01  8.50000000E-01  8.50000000E-01  8.00000000E-01  8.50000000E-01
  8.50000000E-01  8.50000000E-01  8.00000000E-01  8.50000000E-01  8.50000000E-01
  8.50000000E-01  8.00000000E-01  8.50000000E-01  8.50000000E-01  8.50000000E-01
  8.00000000E-01  8.50000000E-01  8.50000000E-01  8.50000000E-01  8.00000000E-01
  8.50000000E-01  8.50000000E-01  8.50000000E-01  8.00000000E-01  8.50000000E-01
  8.50000000E-01  8.50000000E-01  8.00000000E-01  8.50000000E-01  8.50000000E-01
  8.50000000E-01  8.00000000E-01  8.50000000E-01  8.50000000E-01  8.50000000E-01
  8.00000000E-01  8.50000000E-01  8.50000000E-01  8.50000000E-01  8.00000000E-01
  8.50000000E-01  8.50000000E-01  8.50000000E-01  8.00000000E-01  8.50000000E-01
  8.50000000E-01  8.50000000E-01  8.00000000E-01  8.50000000E-01  8.50000000E-01
  8.50000000E-01  8.00000000E-01  8.50000000E-01  8.50000000E-01  8.50000000E-01
  8.00000000E-01  8.50000000E-01  8.50000000E-01  8.50000000E-01  8.00000000E-01
  8.50000000E-01  8.50000000E-01  8.50000000E-01  8.00000000E-01  8.50000000E-01
  8.50000000E-01  8.50000000E-01  8.00000000E-01  8.50000000E-01  8.50000000E-01
  8.50000000E-01  8.00000000E-01  8.50000000E-01  8.50000000E-01  8.50000000E-01
  8.00000000E-01  8.50000000E-01  8.50000000E-01  8.50000000E-01  8.00000000E-01
  8.50000000E-01  8.50000000E-01  8.50000000E-01  8.00000000E-01  8.50000000E-01
  8.50000000E-01  8.50000000E-01  8.00000000E-01  8.50000000E-01  8.50000000E-01
  8.50000000E-01  8.00000000E-01  8.50000000E-01  8.50000000E-01  8.50000000E-01
  8.00000000E-01  8.50000000E-01  8.50000000E-01  8.50000000E-01  8.00000000E-01
  8.50000000E-01  8.50000000E-01  8.50000000E-01  8.00000000E-01  8.50000000E-01
  8.50000000E-01  8.50000000E-01  8.00000000E-01  8.50000000E-01  8.50000000E-01
  8.50000000E-01  8.00000000E-01  8.50000000E-01  8.50000000E-01  8.50000000E-01
  8.00000000E-01  8.50000000E-01  8.50000000E-01  8.50000000E-01  8.00000000E-01
  8.50000000E-01  8.50000000E-01  8.50000000E-01  8.00000000E-01  8.50000000E-01
  8.50000000E-01  8.50000000E-01  8.00000000E-01  8.50000000E-01  8.50000000E-01
  8.50000000E-01  8.00000000E-01  8.50000000E-01  8.50000000E-01  8.50000000E-01
  8.00000000E-01  8.50000000E-01  8.50000000E-01  8.50000000E-01  8.00000000E-01
  8.50000000E-01  8.50000000E-01  8.50000000E-01  8.00000000E-01  8.50000000E-01
  8.50000000E-01  8.50000000E-01  8.00000000E-01  8.50000000E-01  8.50000000E-01
  8.50000000E-01  8.00000000E-01  8.50000000E-01  8.50000000E-01  8.50000000E-01
  8.00000000E-01  8.50000000E-01  8.50000000E-01  8.50000000E-01  8.00000000E-01
  8.50000000E-01  8.50000000E-01  8.50000000E-01  8.00000000E-01  8.50000000E-01
  8.50000000E-01  8.50000000E-01  8.00000000E-01  8.50000000E-01  8.50000000E-01
  8.50000000E-01  8.00000000E-01  8.50000000E-01  8.50000000E-01  8.50000000E-01
  8.00000000E-01  8.50000000E-01  8.50000000E-01  8.50000000E-01  8.00000000E-01
  8.50000000E-01  8.50000000E-01  8.50000000E-01  8.00000000E-01  8.50000000E-01
  8.50000000E-01  8.50000000E-01  8.00000000E-01  8.50000000E-01  8.50000000E-01
  8.50000000E-01  8.00000000E-01  8.50000000E-01  8.50000000E-01  8.50000000E-01
  8.00000000E-01  8.50000000E-01  8.50000000E-01  8.50000000E-01  8.00000000E-01
  8.50000000E-01  8.50000000E-01  8.50000000E-01  8.00000000E-01  8.50000000E-01
  8.50000000E-01  8.50000000E-01  8.00000000E-01  8.50000000E-01  8.50000000E-01
  8.50000000E-01  8.00000000E-01  8.50000000E-01  8.50000000E-01  8.50000000E-01
  8.00000000E-01  8.50000000E-01  8.50000000E-01  8.50000000E-01  8.00000000E-01
  8.50000000E-01  8.50000000E-01  8.50000000E-01  8.00000000E-01  8.50000000E-01
  8.50000000E-01  8.50000000E-01  8.00000000E-01  8.50000000E-01  8.50000000E-01
  8.50000000E-01  8.00000000E-01  8.50000000E-01  8.50000000E-01  8.50000000E-01
  8.00000000E-01  8.50000000E-01  8.50000000E-01  8.50000000E-01  8.00000000E-01
  8.50000000E-01  8.50000000E-01  8.50000000E-01  8.00000000E-01  8.50000000E-01
  8.50000000E-01  8.50000000E-01  8.00000000E-01  8.50000000E-01  8.50000000E-01
  8.50000000E-01  8.00000000E-01  8.50000000E-01  8.50000000E-01  8.50000000E-01
  8.00000000E-01  8.50000000E-01  8.50000000E-01  8.50000000E-01  8.00000000E-01
  8.50000000E-01  8.50000000E-01  8.50000000E-01  8.00000000E-01  8.50000000E-01
  8.50000000E-01  8.50000000E-01  8.00000000E-01  8.50000000E-01  8.50000000E-01
  8.50000000E-01  8.00000000E-01  8.50000000E-01  8.50000000E-01  8.50000000E-01
  8.00000000E-01  8.50000000E-01  8.50000000E-01  8.50000000E-01  8.00000000E-01
  8.50000000E-01  8.50000000E-01  8.50000000E-01  8.00000000E-01  8.50000000E-01
  8.50000000E-01  8.50000000E-01  8.00000000E-01  8.50000000E-01  8.50000000E-01
  8.50000000E-01  8.00000000E-01  8.50000000E-01  8.50000000E-01  8.50000000E-01
  8.00000000E-01  8.50000000E-01  8.50000000E-01  8.50000000E-01  8.00000000E-01
  8.50000000E-01  8.50000000E-01  8.50000000E-01  8.00000000E-01  8.50000000E-01
  8.50000000E-01  8.50000000E-01  8.00000000E-01  8.50000000E-01  8.50000000E-01
  8.50000000E-01  8.00000000E-01  8.50000000E-01  8.50000000E-01  8.50000000E-01
  8.00000000E-01  8.50000000E-01  8.50000000E-01  8.50000000E-01  8.00000000E-01
  8.50000000E-01  8.50000000E-01  8.50000000E-01  8.00000000E-01  8.50000000E-01
  8.50000000E-01  8.50000000E-01  8.00000000E-01  8.50000000E-01  8.50000000E-01
  8.50000000E-01  8.00000000E-01  8.50000000E-01  8.50000000E-01  8.50000000E-01
  8.00000000E-01  8.50000000E-01  8.50000000E-01  8.50000000E-01  8.00000000E-01
  8.50000000E-01  8.50000000E-01  8.50000000E-01  8.00000000E-01  8.50000000E-01
  8.50000000E-01  8.50000000E-01  8.00000000E-01  8.50000000E-01  8.50000000E-01
  8.50000000E-01  8.00000000E-01  8.50000000E-01  8.50000000E-01  8.50000000E-01
  8.00000000E-01  8.50000000E-01  8.50000000E-01  8.50000000E-01  8.00000000E-01
  8.50000000E-01  8.50000000E-01  8.50000000E-01  8.00000000E-01  8.50000000E-01
  8.50000000E-01  8.50000000E-01  8.00000000E-01  8.50000000E-01  8.50000000E-01
  8.50000000E-01  8.00000000E-01  8.50000000E-01  8.50000000E-01  8.50000000E-01
  8.00000000E-01  8.50000000E-01  8.50000000E-01  8.50000000E-01  8.00000000E-01
  8.50000000E-01  8.50000000E-01  8.50000000E-01  8.00000000E-01  8.50000000E-01
  8.50000000E-01  8.50000000E-01  8.00000000E-01  8.50000000E-01  8.50000000E-01
  8.50000000E-01  8.00000000E-01  8.50000000E-01  8.50000000E-01  8.50000000E-01
  8.00000000E-01  8.50000000E-01  8.50000000E-01  8.50000000E-01  8.00000000E-01
  8.50000000E-01  8.50000000E-01  8.50000000E-01  8.00000000E-01  8.50000000E-01
  8.50000000E-01  8.50000000E-01  8.00000000E-01  8.50000000E-01  8.50000000E-01
  8.50000000E-01  8.00000000E-01  8.50000000E-01  8.50000000E-01  8.50000000E-01
  8.00000000E-01  8.50000000E-01  8.50000000E-01  8.50000000E-01  8.00000000E-01
  8.50000000E-01  8.50000000E-01  8.50000000E-01  8.00000000E-01  8.50000000E-01
  8.50000000E-01  8.50000000E-01  8.00000000E-01  8.50000000E-01  8.50000000E-01
  8.50000000E-01  8.00000000E-01  8.50000000E-01  8.50000000E-01  8.50000000E-01
  8.00000000E-01  8.50000000E-01  8.50000000E-01  8.50000000E-01  8.00000000E-01
  8.50000000E-01  8.50000000E-01  8.50000000E-01  8.00000000E-01  8.50000000E-01
  8.50000000E-01  8.50000000E-01  8.00000000E-01  8.50000000E-01  8.50000000E-01
  8.50000000E-01  8.00000000E-01  8.50000000E-01  8.50000000E-01  8.50000000E-01
  8.00000000E-01  8.50000000E-01  8.50000000E-01  8.50000000E-01  8.00000000E-01
  8.50000000E-01  8.50000000E-01  8.50000000E-01  8.00000000E-01  8.50000000E-01
  8.50000000E-01  8.50000000E-01  8.00000000E-01  8.50000000E-01  8.50000000E-01
  8.50000000E-01  8.00000000E-01  8.50000000E-01  8.50000000E-01  8.50000000E-01
  8.00000000E-01  8.50000000E-01  8.50000000E-01  8.50000000E-01  8.00000000E-01
  8.50000000E-01  8.50000000E-01  8.50000000E-01  8.00000000E-01  8.50000000E-01
  8.50000000E-01  8.50000000E-01  8.00000000E-01  8.50000000E-01  8.50000000E-01
  8.50000000E-01  8.00000000E-01  8.50000000E-01  8.50000000E-01  8.50000000E-01
  8.00000000E-01  8.50000000E-01  8.50000000E-01  8.50000000E-01  8.00000000E-01
  8.50000000E-01  8.50000000E-01  8.50000000E-01  8.00000000E-01  8.50000000E-01
  8.50000000E-01  8.50000000E-01  8.00000000E-01  8.50000000E-01  8.50000000E-01
  8.50000000E-01  8.00000000E-01  8.50000000E-01  8.50000000E-01  8.50000000E-01
  8.00000000E-01  8.50000000E-01  8.50000000E-01  8.50000000E-01  8.00000000E-01
  8.50000000E-01  8.50000000E-01  8.50000000E-01  8.00000000E-01  8.50000000E-01
  8.50000000E-01  8.50000000E-01  8.00000000E-01  8.50000000E-01  8.50000000E-01
  8.50000000E-01  8.00000000E-01  8.50000000E-01  8.50000000E-01  8.50000000E-01
  8.00000000E-01  8.50000000E-01  8.50000000E-01  8.50000000E-01  8.00000000E-01
  8.50000000E-01  8.50000000E-01  8.50000000E-01  8.00000000E-01  8.50000000E-01
  8.50000000E-01  8.50000000E-01  8.00000000E-01  8.50000000E-01  8.50000000E-01
  8.50000000E-01  8.00000000E-01  8.50000000E-01  8.50000000E-01  8.50000000E-01
  8.00000000E-01  8.50000000E-01  8.50000000E-01  8.50000000E-01  8.00000000E-01
  8.50000000E-01  8.50000000E-01  8.50000000E-01  8.00000000E-01  8.50000000E-01
  8.50000000E-01  8.50000000E-01  8.00000000E-01  8.50000000E-01  8.50000000E-01
  8.50000000E-01  8.00000000E-01  8.50000000E-01  8.50000000E-01  8.50000000E-01
  8.00000000E-01  8.50000000E-01  8.50000000E-01  8.50000000E-01  8.00000000E-01
  8.50000000E-01  8.50000000E-01  8.50000000E-01  8.00000000E-01  8.50000000E-01
  8.50000000E-01  8.50000000E-01  8.00000000E-01  8.50000000E-01  8.50000000E-01
  8.50000000E-01  8.00000000E-01  8.50000000E-01  8.50000000E-01  8.50000000E-01
  8.00000000E-01  8.50000000E-01  8.50000000E-01  8.50000000E-01  8.00000000E-01
  8.50000000E-01  8.50000000E-01  8.50000000E-01  8.00000000E-01  8.50000000E-01
  8.50000000E-01  8.50000000E-01  8.00000000E-01  8.50000000E-01  8.50000000E-01
  8.50000000E-01  8.00000000E-01  8.50000000E-01  8.50000000E-01  8.50000000E-01
  8.00000000E-01  8.50000000E-01  8.50000000E-01  8.50000000E-01  8.00000000E-01
  8.50000000E-01  8.50000000E-01  8.50000000E-01  8.00000000E-01  8.50000000E-01
  8.50000000E-01  8.50000000E-01  8.00000000E-01  8.50000000E-01  8.50000000E-01
  8.50000000E-01  8.00000000E-01  8.50000000E-01  8.50000000E-01  8.50000000E-01
  8.00000000E-01  8.50000000E-01  8.50000000E-01  8.50000000E-01  8.00000000E-01
  8.50000000E-01  8.50000000E-01  8.50000000E-01  8.00000000E-01  8.50000000E-01
  8.50000000E-01  8.50000000E-01  8.00000000E-01  8.50000000E-01  8.50000000E-01
  8.50000000E-01  8.00000000E-01  8.50000000E-01  8.50000000E-01  8.50000000E-01
  8.00000000E-01  8.50000000E-01  8.50000000E-01  8.50000000E-01  8.00000000E-01
  8.50000000E-01  8.50000000E-01  8.50000000E-01  8.00000000E-01  8.50000000E-01
  8.50000000E-01  8.50000000E-01  8.00000000E-01  8.50000000E-01  8.50000000E-01
  8.50000000E-01  8.00000000E-01  8.50000000E-01  8.50000000E-01  8.50000000E-01
  8.00000000E-01  8.50000000E-01  8.50000000E-01  8.50000000E-01  8.00000000E-01
  8.50000000E-01  8.50000000E-01  8.50000000E-01  8.00000000E-01  8.50000000E-01
  8.50000000E-01  8.50000000E-01  8.00000000E-01  8.50000000E-01  8.50000000E-01
  8.50000000E-01  8.00000000E-01  8.50000000E-01  8.50000000E-01  8.50000000E-01
  8.00000000E-01  8.50000000E-01  8.50000000E-01  8.50000000E-01  8.00000000E-01
  8.50000000E-01  8.50000000E-01  8.50000000E-01  8.00000000E-01  8.50000000E-01
  8.50000000E-01  8.50000000E-01  8.00000000E-01  8.50000000E-01  8.50000000E-01
  8.50000000E-01  8.00000000E-01  8.50000000E-01  8.50000000E-01  8.50000000E-01
  8.00000000E-01  8.50000000E-01  8.50000000E-01  8.50000000E-01  8.00000000E-01
  8.50000000E-01  8.50000000E-01  8.50000000E-01  8.00000000E-01  8.50000000E-01
  8.50000000E-01  8.50000000E-01  8.00000000E-01  8.50000000E-01  8.50000000E-01
  8.50000000E-01  8.00000000E-01  8.50000000E-01  8.50000000E-01  8.50000000E-01
  8.00000000E-01  8.50000000E-01  8.50000000E-01  8.50000000E-01  8.00000000E-01
  8.50000000E-01  8.50000000E-01  8.50000000E-01  8.00000000E-01  8.50000000E-01
  8.50000000E-01  8.50000000E-01  8.00000000E-01  8.50000000E-01  8.50000000E-01
  8.50000000E-01  8.00000000E-01  8.50000000E-01  8.50000000E-01  8.50000000E-01
  8.00000000E-01  8.50000000E-01  8.50000000E-01  8.50000000E-01  8.00000000E-01
  8.50000000E-01  8.50000000E-01  8.50000000E-01  8.00000000E-01  8.50000000E-01
  8.50000000E-01  8.50000000E-01  8.00000000E-01  8.50000000E-01  8.50000000E-01
  8.50000000E-01  8.00000000E-01  8.50000000E-01  8.50000000E-01  8.50000000E-01
  8.00000000E-01  8.50000000E-01  8.50000000E-01  8.50000000E-01  8.00000000E-01
  8.50000000E-01  8.50000000E-01  8.50000000E-01  8.00000000E-01  8.50000000E-01
  8.50000000E-01  8.50000000E-01  8.00000000E-01  8.50000000E-01  8.50000000E-01
  8.50000000E-01  8.00000000E-01  8.50000000E-01  8.50000000E-01  8.50000000E-01
  8.00000000E-01  8.50000000E-01  8.50000000E-01  8.50000000E-01  8.00000000E-01
  8.50000000E-01  8.50000000E-01  8.50000000E-01  8.00000000E-01  8.50000000E-01
  8.50000000E-01  8.50000000E-01  8.00000000E-01  8.50000000E-01  8.50000000E-01
  8.50000000E-01  8.00000000E-01  8.50000000E-01  8.50000000E-01  8.50000000E-01
  8.00000000E-01  8.50000000E-01  8.50000000E-01  8.50000000E-01  8.00000000E-01
  8.50000000E-01  8.50000000E-01  8.50000000E-01  8.00000000E-01  8.50000000E-01
  8.50000000E-01  8.50000000E-01  8.00000000E-01  8.50000000E-01  8.50000000E-01
  8.50000000E-01  8.00000000E-01  8.50000000E-01  8.50000000E-01  8.50000000E-01
  8.00000000E-01  8.50000000E-01  8.50000000E-01  8.50000000E-01  8.00000000E-01
  8.50000000E-01  8.50000000E-01  8.50000000E-01  8.00000000E-01  8.50000000E-01
  8.50000000E-01  8.50000000E-01  8.00000000E-01  8.50000000E-01  8.50000000E-01
  8.50000000E-01  8.00000000E-01  8.50000000E-01  8.50000000E-01  8.50000000E-01
  8.00000000E-01  8.50000000E-01  8.50000000E-01  8.50000000E-01  8.00000000E-01
  8.50000000E-01  8.50000000E-01  8.50000000E-01  8.00000000E-01  8.50000000E-01
  8.50000000E-01  8.50000000E-01  8.00000000E-01  8.50000000E-01  8.50000000E-01
  8.50000000E-01  8.00000000E-01  8.50000000E-01  8.50000000E-01  8.50000000E-01
  8.00000000E-01  8.50000000E-01  8.50000000E-01  8.50000000E-01  8.00000000E-01
  8.50000000E-01  8.50000000E-01  8.50000000E-01  8.00000000E-01  8.50000000E-01
  8.50000000E-01  8.50000000E-01  8.00000000E-01  8.50000000E-01  8.50000000E-01
  8.50000000E-01  8.00000000E-01  8.50000000E-01  8.50000000E-01  8.50000000E-01
  8.00000000E-01  8.50000000E-01  8.50000000E-01  8.50000000E-01  8.00000000E-01
  8.50000000E-01  8.50000000E-01  8.50000000E-01  8.00000000E-01  8.50000000E-01
  8.50000000E-01  8.50000000E-01  8.00000000E-01  8.50000000E-01  8.50000000E-01
  8.50000000E-01  8.00000000E-01  8.50000000E-01  8.50000000E-01  8.50000000E-01
  8.00000000E-01  8.50000000E-01  8.50000000E-01  8.50000000E-01  8.00000000E-01
  8.50000000E-01  8.50000000E-01  8.50000000E-01  8.00000000E-01  8.50000000E-01
  8.50000000E-01  8.50000000E-01  8.00000000E-01  8.50000000E-01  8.50000000E-01
  8.50000000E-01  8.00000000E-01  8.50000000E-01  8.50000000E-01  8.50000000E-01
  8.00000000E-01  8.50000000E-01  8.50000000E-01  8.50000000E-01  8.00000000E-01
  8.50000000E-01  8.50000000E-01  8.50000000E-01  8.00000000E-01  8.50000000E-01
  8.50000000E-01  8.50000000E-01  8.00000000E-01  8.50000000E-01  8.50000000E-01
  8.50000000E-01  8.00000000E-01  8.50000000E-01  8.50000000E-01  8.50000000E-01
  8.00000000E-01  8.50000000E-01  8.50000000E-01  8.50000000E-01  8.00000000E-01
  8.50000000E-01  8.50000000E-01  8.50000000E-01  8.00000000E-01  8.50000000E-01
  8.50000000E-01  8.50000000E-01  8.00000000E-01  8.50000000E-01  8.50000000E-01
  8.50000000E-01  8.00000000E-01  8.50000000E-01  8.50000000E-01  8.50000000E-01
  8.00000000E-01  8.50000000E-01  8.50000000E-01  8.50000000E-01  8.00000000E-01
  8.50000000E-01  8.50000000E-01  8.50000000E-01  8.00000000E-01  8.50000000E-01
  8.50000000E-01  8.50000000E-01  8.00000000E-01  8.50000000E-01  8.50000000E-01
  8.50000000E-01  8.00000000E-01  8.50000000E-01  8.50000000E-01  8.50000000E-01
  8.00000000E-01  8.50000000E-01  8.50000000E-01  8.50000000E-01  8.00000000E-01
  8.50000000E-01  8.50000000E-01  8.50000000E-01  8.00000000E-01  8.50000000E-01
  8.50000000E-01  8.50000000E-01  8.00000000E-01  8.50000000E-01  8.50000000E-01
  8.50000000E-01  8.00000000E-01  8.50000000E-01  8.50000000E-01  8.50000000E-01
  8.00000000E-01  8.50000000E-01  8.50000000E-01  8.50000000E-01  8.00000000E-01
  8.50000000E-01  8.50000000E-01  8.50000000E-01  8.00000000E-01  8.50000000E-01
  8.50000000E-01  8.50000000E-01  8.00000000E-01  8.50000000E-01  8.50000000E-01
  8.50000000E-01  8.00000000E-01  8.50000000E-01  8.50000000E-01  8.50000000E-01
  8.00000000E-01  8.50000000E-01  8.50000000E-01  8.50000000E-01  8.00000000E-01
  8.50000000E-01  8.50000000E-01  8.50000000E-01  8.00000000E-01  8.50000000E-01
  8.50000000E-01  8.50000000E-01  8.00000000E-01  8.50000000E-01  8.50000000E-01
  8.50000000E-01  8.00000000E-01  8.50000000E-01  8.50000000E-01  8.50000000E-01
  8.00000000E-01  8.50000000E-01  8.50000000E-01  8.50000000E-01  8.00000000E-01
  8.50000000E-01  8.50000000E-01  8.50000000E-01  8.00000000E-01  8.50000000E-01
  8.50000000E-01  8.50000000E-01  8.00000000E-01  8.50000000E-01  8.50000000E-01
  8.50000000E-01  8.00000000E-01  8.50000000E-01  8.50000000E-01  8.50000000E-01
  8.00000000E-01  8.50000000E-01  8.50000000E-01  8.50000000E-01  8.00000000E-01
  8.50000000E-01  8.50000000E-01  8.50000000E-01  8.00000000E-01  8.50000000E-01
  8.50000000E-01  8.50000000E-01  8.00000000E-01  8.50000000E-01  8.50000000E-01
  8.50000000E-01  8.00000000E-01  8.50000000E-01  8.50000000E-01  8.50000000E-01
  8.00000000E-01  8.50000000E-01  8.50000000E-01  8.50000000E-01  8.00000000E-01
  8.50000000E-01  8.50000000E-01  8.50000000E-01  8.00000000E-01  8.50000000E-01
  8.50000000E-01  8.50000000E-01  8.00000000E-01  8.50000000E-01  8.50000000E-01
  8.50000000E-01  8.00000000E-01  8.50000000E-01  8.50000000E-01  8.50000000E-01
  8.00000000E-01  8.50000000E-01  8.50000000E-01  8.50000000E-01  8.00000000E-01
  8.50000000E-01  8.50000000E-01  8.50000000E-01  8.00000000E-01  8.50000000E-01
  8.50000000E-01  8.50000000E-01  8.00000000E-01  8.50000000E-01  8.50000000E-01
  8.50000000E-01  8.00000000E-01  8.50000000E-01  8.50000000E-01  8.50000000E-01
  8.00000000E-01  8.50000000E-01  8.50000000E-01  8.50000000E-01  8.00000000E-01
  8.50000000E-01  8.50000000E-01  8.50000000E-01  8.00000000E-01  8.50000000E-01
  8.50000000E-01  8.50000000E-01  8.00000000E-01  8.50000000E-01  8.50000000E-01
  8.50000000E-01  8.00000000E-01  8.50000000E-01  8.50000000E-01  8.50000000E-01
  8.00000000E-01  8.50000000E-01  8.50000000E-01  8.50000000E-01  8.00000000E-01
  8.50000000E-01  8.50000000E-01  8.50000000E-01  8.00000000E-01  8.50000000E-01
  8.50000000E-01  8.50000000E-01  8.00000000E-01  8.50000000E-01  8.50000000E-01
  8.50000000E-01  8.00000000E-01  8.50000000E-01  8.50000000E-01  8.50000000E-01
  8.00000000E-01  8.50000000E-01  8.50000000E-01  8.50000000E-01  8.00000000E-01
  8.50000000E-01  8.50000000E-01  8.50000000E-01  8.00000000E-01  8.50000000E-01
  8.50000000E-01  8.50000000E-01  8.00000000E-01  8.50000000E-01  8.50000000E-01
  8.50000000E-01  8.00000000E-01  8.50000000E-01  8.50000000E-01  8.50000000E-01
  8.00000000E-01  8.50000000E-01  8.50000000E-01  8.50000000E-01  8.00000000E-01
  8.50000000E-01  8.50000000E-01  8.50000000E-01  8.00000000E-01  8.50000000E-01
  8.50000000E-01  8.50000000E-01  8.00000000E-01  8.50000000E-01  8.50000000E-01
  8.50000000E-01  8.00000000E-01  8.50000000E-01  8.50000000E-01  8.50000000E-01
  8.00000000E-01  8.50000000E-01  8.50000000E-01  8.50000000E-01  8.00000000E-01
  8.50000000E-01  8.50000000E-01  8.50000000E-01  8.00000000E-01  8.50000000E-01
  8.50000000E-01  8.50000000E-01  8.00000000E-01  8.50000000E-01  8.50000000E-01
  8.50000000E-01  8.00000000E-01  8.50000000E-01  8.50000000E-01  8.50000000E-01
  8.00000000E-01  8.50000000E-01  8.50000000E-01  8.50000000E-01  8.00000000E-01
  8.50000000E-01  8.50000000E-01  8.50000000E-01  8.00000000E-01  8.50000000E-01
  8.50000000E-01  8.50000000E-01  8.00000000E-01  8.50000000E-01  8.50000000E-01
  8.50000000E-01  8.00000000E-01  8.50000000E-01  8.50000000E-01  8.50000000E-01
  8.00000000E-01  8.50000000E-01  8.50000000E-01  8.50000000E-01  8.00000000E-01
  8.50000000E-01  8.50000000E-01  8.50000000E-01  8.00000000E-01  8.50000000E-01
  8.50000000E-01  8.50000000E-01  8.00000000E-01  8.50000000E-01  8.50000000E-01
  8.50000000E-01  8.00000000E-01  8.50000000E-01  8.50000000E-01  8.50000000E-01
  8.00000000E-01  8.50000000E-01  8.50000000E-01  8.50000000E-01  8.00000000E-01
  8.50000000E-01  8.50000000E-01  8.50000000E-01  8.00000000E-01  8.50000000E-01
  8.50000000E-01  8.50000000E-01  8.00000000E-01  8.50000000E-01  8.50000000E-01
  8.50000000E-01  8.00000000E-01  8.50000000E-01  8.50000000E-01  8.50000000E-01
  8.00000000E-01  8.50000000E-01  8.50000000E-01  8.50000000E-01  8.00000000E-01
  8.50000000E-01  8.50000000E-01  8.50000000E-01  8.00000000E-01  8.50000000E-01
  8.50000000E-01  8.50000000E-01  8.00000000E-01  8.50000000E-01  8.50000000E-01
  8.50000000E-01  8.00000000E-01  8.50000000E-01  8.50000000E-01  8.50000000E-01
  8.00000000E-01  8.50000000E-01  8.50000000E-01  8.50000000E-01  8.00000000E-01
  8.50000000E-01  8.50000000E-01  8.50000000E-01  8.00000000E-01  8.50000000E-01
  8.50000000E-01  8.50000000E-01  8.00000000E-01  8.50000000E-01  8.50000000E-01
  8.50000000E-01  8.00000000E-01  8.50000000E-01  8.50000000E-01  8.50000000E-01
  8.00000000E-01  8.50000000E-01  8.50000000E-01  8.50000000E-01  8.00000000E-01
  8.50000000E-01  8.50000000E-01  8.50000000E-01  8.00000000E-01  8.50000000E-01
  8.50000000E-01  8.50000000E-01  8.00000000E-01  8.50000000E-01  8.50000000E-01
  8.50000000E-01  8.00000000E-01  8.50000000E-01  8.50000000E-01  8.50000000E-01
  8.00000000E-01  8.50000000E-01  8.50000000E-01  8.50000000E-01  8.00000000E-01
  8.50000000E-01  8.50000000E-01  8.50000000E-01  8.00000000E-01  8.50000000E-01
  8.50000000E-01  8.50000000E-01  8.00000000E-01  8.50000000E-01  8.50000000E-01
  8.50000000E-01  8.00000000E-01  8.50000000E-01  8.50000000E-01  8.50000000E-01
  8.00000000E-01  8.50000000E-01  8.50000000E-01  8.50000000E-01  8.00000000E-01
  8.50000000E-01  8.50000000E-01  8.50000000E-01  8.00000000E-01  8.50000000E-01
  8.50000000E-01  8.50000000E-01  8.00000000E-01  8.50000000E-01  8.50000000E-01
  8.50000000E-01  8.00000000E-01  8.50000000E-01  8.50000000E-01  8.50000000E-01
  8.00000000E-01  8.50000000E-01  8.50000000E-01  8.50000000E-01  8.00000000E-01
  8.50000000E-01  8.50000000E-01  8.50000000E-01  8.00000000E-01  8.50000000E-01
  8.50000000E-01  8.50000000E-01  8.00000000E-01  8.50000000E-01  8.50000000E-01
  8.50000000E-01  8.00000000E-01  8.50000000E-01  8.50000000E-01  8.50000000E-01
  8.00000000E-01  8.50000000E-01  8.50000000E-01  8.50000000E-01  8.00000000E-01
  8.50000000E-01  8.50000000E-01  8.50000000E-01  8.00000000E-01  8.50000000E-01
  8.50000000E-01  8.50000000E-01  8.00000000E-01  8.50000000E-01  8.50000000E-01
  8.50000000E-01  8.00000000E-01  8.50000000E-01  8.50000000E-01  8.50000000E-01
  8.00000000E-01  8.50000000E-01  8.50000000E-01  8.50000000E-01  8.00000000E-01
  8.50000000E-01  8.50000000E-01  8.50000000E-01  8.00000000E-01  8.50000000E-01
  8.50000000E-01  8.50000000E-01  8.00000000E-01  8.50000000E-01  8.50000000E-01
  8.50000000E-01  8.00000000E-01  8.50000000E-01  8.50000000E-01  8.50000000E-01
  8.00000000E-01  8.50000000E-01  8.50000000E-01  8.50000000E-01  8.00000000E-01
  8.50000000E-01  8.50000000E-01  8.50000000E-01  8.00000000E-01  8.50000000E-01
  8.50000000E-01  8.50000000E-01  8.00000000E-01  8.50000000E-01  8.50000000E-01
  8.50000000E-01  8.00000000E-01  8.50000000E-01  8.50000000E-01  8.50000000E-01
  8.00000000E-01  8.50000000E-01  8.50000000E-01  8.50000000E-01  8.00000000E-01
  8.50000000E-01  8.50000000E-01  8.50000000E-01  8.00000000E-01  8.50000000E-01
  8.50000000E-01  8.50000000E-01  8.00000000E-01  8.50000000E-01  8.50000000E-01
  8.50000000E-01  8.00000000E-01  8.50000000E-01  8.50000000E-01  8.50000000E-01
  8.00000000E-01  8.50000000E-01  8.50000000E-01  8.50000000E-01  8.00000000E-01
  8.50000000E-01  8.50000000E-01  8.50000000E-01  8.00000000E-01  8.50000000E-01
  8.50000000E-01  8.50000000E-01  8.00000000E-01  8.50000000E-01  8.50000000E-01
  8.50000000E-01  8.00000000E-01  8.50000000E-01  8.50000000E-01  8.50000000E-01
  8.00000000E-01  8.50000000E-01  8.50000000E-01  8.50000000E-01  8.00000000E-01
  8.50000000E-01  8.50000000E-01  8.50000000E-01  8.00000000E-01  8.50000000E-01
  8.50000000E-01  8.50000000E-01  8.00000000E-01  8.50000000E-01  8.50000000E-01
  8.50000000E-01  8.00000000E-01  8.50000000E-01  8.50000000E-01  8.50000000E-01
  8.00000000E-01  8.50000000E-01  8.50000000E-01  8.50000000E-01  8.00000000E-01
  8.50000000E-01  8.50000000E-01  8.50000000E-01  8.00000000E-01  8.50000000E-01
  8.50000000E-01  8.50000000E-01  8.00000000E-01  8.50000000E-01  8.50000000E-01
  8.50000000E-01  8.00000000E-01  8.50000000E-01  8.50000000E-01  8.50000000E-01
  8.00000000E-01  8.50000000E-01  8.50000000E-01  8.50000000E-01  8.00000000E-01
  8.50000000E-01  8.50000000E-01  8.50000000E-01  8.00000000E-01  8.50000000E-01
  8.50000000E-01  8.50000000E-01  8.00000000E-01  8.50000000E-01  8.50000000E-01
  8.50000000E-01  8.00000000E-01  8.50000000E-01  8.50000000E-01  8.50000000E-01
  8.00000000E-01  8.50000000E-01  8.50000000E-01  8.50000000E-01  8.00000000E-01
  8.50000000E-01  8.50000000E-01  8.50000000E-01  8.00000000E-01  8.50000000E-01
  8.50000000E-01  8.50000000E-01  8.00000000E-01  8.50000000E-01  8.50000000E-01
  8.50000000E-01  8.00000000E-01  8.50000000E-01  8.50000000E-01  8.50000000E-01
  8.00000000E-01  8.50000000E-01  8.50000000E-01  8.50000000E-01  8.00000000E-01
  8.50000000E-01  8.50000000E-01  8.50000000E-01  8.00000000E-01  8.50000000E-01
  8.50000000E-01  8.50000000E-01  8.00000000E-01  8.50000000E-01  8.50000000E-01
  8.50000000E-01  8.00000000E-01  8.50000000E-01  8.50000000E-01  8.50000000E-01
  8.00000000E-01  8.50000000E-01  8.50000000E-01  8.50000000E-01  8.00000000E-01
  8.50000000E-01  8.50000000E-01  8.50000000E-01  8.00000000E-01  8.50000000E-01
  8.50000000E-01  8.50000000E-01  8.00000000E-01  8.50000000E-01  8.50000000E-01
  8.50000000E-01  8.00000000E-01  8.50000000E-01  8.50000000E-01  8.50000000E-01
  8.00000000E-01  8.50000000E-01  8.50000000E-01  8.50000000E-01  8.00000000E-01
  8.50000000E-01  8.50000000E-01  8.50000000E-01  8.00000000E-01  8.50000000E-01
  8.50000000E-01  8.50000000E-01  8.00000000E-01  8.50000000E-01  8.50000000E-01
  8.50000000E-01  8.00000000E-01  8.50000000E-01  8.50000000E-01  8.50000000E-01
  8.00000000E-01  8.50000000E-01  8.50000000E-01  8.50000000E-01  8.00000000E-01
  8.50000000E-01  8.50000000E-01  8.50000000E-01  8.00000000E-01  8.50000000E-01
  8.50000000E-01  8.50000000E-01  8.00000000E-01  8.50000000E-01  8.50000000E-01
  8.50000000E-01  8.00000000E-01  8.50000000E-01  8.50000000E-01  8.50000000E-01
  8.00000000E-01  8.50000000E-01  8.50000000E-01  8.50000000E-01  8.00000000E-01
  8.50000000E-01  8.50000000E-01  8.50000000E-01  8.00000000E-01  8.50000000E-01
  8.50000000E-01  8.50000000E-01  8.00000000E-01  8.50000000E-01  8.50000000E-01
  8.50000000E-01  8.00000000E-01  8.50000000E-01  8.50000000E-01  8.50000000E-01
  8.00000000E-01  8.50000000E-01  8.50000000E-01  8.50000000E-01  8.00000000E-01
  8.50000000E-01  8.50000000E-01  8.50000000E-01  8.00000000E-01  8.50000000E-01
  8.50000000E-01  8.50000000E-01  8.00000000E-01  8.50000000E-01  8.50000000E-01
  8.50000000E-01  8.00000000E-01  8.50000000E-01  8.50000000E-01  8.50000000E-01
  8.00000000E-01  8.50000000E-01  8.50000000E-01  8.50000000E-01  8.00000000E-01
  8.50000000E-01  8.50000000E-01  8.50000000E-01  8.00000000E-01  8.50000000E-01
  8.50000000E-01  8.50000000E-01  8.00000000E-01  8.50000000E-01  8.50000000E-01
  8.50000000E-01  8.00000000E-01  8.50000000E-01  8.50000000E-01  8.50000000E-01
  8.00000000E-01  8.50000000E-01  8.50000000E-01  8.50000000E-01  8.00000000E-01
  8.50000000E-01  8.50000000E-01  8.50000000E-01  8.00000000E-01  8.50000000E-01
  8.50000000E-01  8.50000000E-01  8.00000000E-01  8.50000000E-01  8.50000000E-01
  8.50000000E-01  8.00000000E-01  8.50000000E-01  8.50000000E-01  8.50000000E-01
  8.00000000E-01  8.50000000E-01  8.50000000E-01  8.50000000E-01  8.00000000E-01
  8.50000000E-01  8.50000000E-01  8.50000000E-01  8.00000000E-01  8.50000000E-01
  8.50000000E-01  8.50000000E-01  8.00000000E-01  8.50000000E-01  8.50000000E-01
  8.50000000E-01  8.00000000E-01  8.50000000E-01  8.50000000E-01  8.50000000E-01
  8.00000000E-01  8.50000000E-01  8.50000000E-01  8.50000000E-01  8.00000000E-01
  8.50000000E-01  8.50000000E-01  8.50000000E-01  8.00000000E-01  8.50000000E-01
  8.50000000E-01  8.50000000E-01  8.00000000E-01  8.50000000E-01  8.50000000E-01
  8.50000000E-01  8.00000000E-01  8.50000000E-01  8.50000000E-01  8.50000000E-01
  8.00000000E-01  8.50000000E-01  8.50000000E-01  8.50000000E-01  8.00000000E-01
  8.50000000E-01  8.50000000E-01  8.50000000E-01  8.00000000E-01  8.50000000E-01
  8.50000000E-01  8.50000000E-01  8.00000000E-01  8.50000000E-01  8.50000000E-01
  8.50000000E-01  8.00000000E-01  8.50000000E-01  8.50000000E-01  8.50000000E-01
  8.00000000E-01  8.50000000E-01  8.50000000E-01  8.50000000E-01  8.00000000E-01
  8.50000000E-01  8.50000000E-01  8.50000000E-01  8.00000000E-01  8.50000000E-01
  8.50000000E-01  8.50000000E-01  8.00000000E-01  8.50000000E-01  8.50000000E-01
  8.50000000E-01  8.00000000E-01  8.50000000E-01  8.50000000E-01  8.50000000E-01
  8.00000000E-01  8.50000000E-01  8.50000000E-01  8.50000000E-01  8.00000000E-01
  8.50000000E-01  8.50000000E-01  8.50000000E-01  8.00000000E-01  8.50000000E-01
  8.50000000E-01  8.50000000E-01  8.00000000E-01  8.50000000E-01  8.50000000E-01
  8.50000000E-01  8.00000000E-01  8.50000000E-01  8.50000000E-01  8.50000000E-01
  8.00000000E-01  8.50000000E-01  8.50000000E-01  8.50000000E-01  8.00000000E-01
  8.50000000E-01  8.50000000E-01  8.50000000E-01  8.00000000E-01  8.50000000E-01
  8.50000000E-01  8.50000000E-01  8.00000000E-01  8.50000000E-01  8.50000000E-01
  8.50000000E-01  8.00000000E-01  8.50000000E-01  8.50000000E-01  8.50000000E-01
  8.00000000E-01  8.50000000E-01  8.50000000E-01  8.50000000E-01  8.00000000E-01
  8.50000000E-01  8.50000000E-01  8.50000000E-01  8.00000000E-01  8.50000000E-01
  8.50000000E-01  8.50000000E-01  8.00000000E-01  8.50000000E-01  8.50000000E-01
  8.50000000E-01  8.00000000E-01  8.50000000E-01  8.50000000E-01  8.50000000E-01
  8.00000000E-01  8.50000000E-01  8.50000000E-01  8.50000000E-01  8.00000000E-01
  8.50000000E-01  8.50000000E-01  8.50000000E-01  8.00000000E-01  8.50000000E-01
  8.50000000E-01  8.50000000E-01  8.00000000E-01  8.50000000E-01  8.50000000E-01
  8.50000000E-01  8.00000000E-01  8.50000000E-01  8.50000000E-01  8.50000000E-01
  8.00000000E-01  8.50000000E-01  8.50000000E-01  8.50000000E-01  8.00000000E-01
  8.50000000E-01  8.50000000E-01  8.50000000E-01  8.00000000E-01  8.50000000E-01
  8.50000000E-01  8.50000000E-01  8.00000000E-01  8.50000000E-01  8.50000000E-01
  8.50000000E-01  8.00000000E-01  8.50000000E-01  8.50000000E-01  8.50000000E-01
  8.00000000E-01  8.50000000E-01  8.50000000E-01  8.50000000E-01  8.00000000E-01
  8.50000000E-01  8.50000000E-01  8.50000000E-01  8.00000000E-01  8.50000000E-01
  8.50000000E-01  8.50000000E-01  8.00000000E-01  8.50000000E-01  8.50000000E-01
  8.50000000E-01  8.00000000E-01  8.50000000E-01  8.50000000E-01  8.50000000E-01
  8.00000000E-01  8.50000000E-01  8.50000000E-01  8.50000000E-01  8.00000000E-01
  8.50000000E-01  8.50000000E-01  8.50000000E-01  8.00000000E-01  8.50000000E-01
  8.50000000E-01  8.50000000E-01  8.00000000E-01  8.50000000E-01  8.50000000E-01
  8.50000000E-01  8.00000000E-01  8.50000000E-01  8.50000000E-01  8.50000000E-01
  8.00000000E-01  8.50000000E-01  8.50000000E-01  8.50000000E-01  8.00000000E-01
  8.50000000E-01  8.50000000E-01  8.50000000E-01  8.00000000E-01  8.50000000E-01
  8.50000000E-01  8.50000000E-01  8.00000000E-01  8.50000000E-01  8.50000000E-01
  8.50000000E-01  8.00000000E-01  8.50000000E-01  8.50000000E-01  8.50000000E-01
  8.00000000E-01  8.50000000E-01  8.50000000E-01  8.50000000E-01  8.00000000E-01
  8.50000000E-01  8.50000000E-01  8.50000000E-01  8.00000000E-01  8.50000000E-01
  8.50000000E-01  8.50000000E-01  8.00000000E-01  8.50000000E-01  8.50000000E-01
  8.50000000E-01  8.00000000E-01  8.50000000E-01  8.50000000E-01  8.50000000E-01
  8.00000000E-01  8.50000000E-01  8.50000000E-01  8.50000000E-01  8.00000000E-01
  8.50000000E-01  8.50000000E-01  8.50000000E-01  8.00000000E-01  8.50000000E-01
  8.50000000E-01  8.50000000E-01  8.00000000E-01  8.50000000E-01  8.50000000E-01
  8.50000000E-01  8.00000000E-01  8.50000000E-01  8.50000000E-01  8.50000000E-01
  8.00000000E-01  8.50000000E-01  8.50000000E-01  8.50000000E-01  8.00000000E-01
  8.50000000E-01  8.50000000E-01  8.50000000E-01  8.00000000E-01  8.50000000E-01
  8.50000000E-01  8.50000000E-01  8.00000000E-01  8.50000000E-01  8.50000000E-01
  8.50000000E-01  8.00000000E-01  8.50000000E-01  8.50000000E-01  8.50000000E-01
  8.00000000E-01  8.50000000E-01  8.50000000E-01  8.50000000E-01  8.00000000E-01
  8.50000000E-01  8.50000000E-01  8.50000000E-01  8.00000000E-01  8.50000000E-01
  8.50000000E-01  8.50000000E-01  8.00000000E-01  8.50000000E-01  8.50000000E-01
  8.50000000E-01  8.00000000E-01  8.50000000E-01  8.50000000E-01  8.50000000E-01
  8.00000000E-01  8.50000000E-01  8.50000000E-01  8.50000000E-01  8.00000000E-01
  8.50000000E-01  8.50000000E-01  8.50000000E-01  8.00000000E-01  8.50000000E-01
  8.50000000E-01  8.50000000E-01  8.00000000E-01  8.50000000E-01  8.50000000E-01
  8.50000000E-01  8.00000000E-01  8.50000000E-01  8.50000000E-01  8.50000000E-01
  8.00000000E-01  8.50000000E-01  8.50000000E-01  8.50000000E-01  8.00000000E-01
  8.50000000E-01  8.50000000E-01  8.50000000E-01  8.00000000E-01  8.50000000E-01
  8.50000000E-01  8.50000000E-01  8.00000000E-01  8.50000000E-01  8.50000000E-01
  8.50000000E-01  8.00000000E-01  8.50000000E-01  8.50000000E-01  8.50000000E-01
  8.00000000E-01  8.50000000E-01  8.50000000E-01  8.50000000E-01  8.00000000E-01
  8.50000000E-01  8.50000000E-01  8.50000000E-01  8.00000000E-01  8.50000000E-01
  8.50000000E-01  8.50000000E-01  8.00000000E-01  8.50000000E-01  8.50000000E-01
  8.50000000E-01  8.00000000E-01  8.50000000E-01  8.50000000E-01  8.50000000E-01
  8.00000000E-01  8.50000000E-01  8.50000000E-01  8.50000000E-01  8.00000000E-01
  8.50000000E-01  8.50000000E-01  8.50000000E-01  8.00000000E-01  8.50000000E-01
  8.50000000E-01  8.50000000E-01  8.00000000E-01  8.50000000E-01  8.50000000E-01
  8.50000000E-01  8.00000000E-01  8.50000000E-01  8.50000000E-01  8.50000000E-01
  8.00000000E-01  8.50000000E-01  8.50000000E-01  8.50000000E-01  8.00000000E-01
  8.50000000E-01  8.50000000E-01  8.50000000E-01  8.00000000E-01  8.50000000E-01
  8.50000000E-01  8.50000000E-01  8.00000000E-01  8.50000000E-01  8.50000000E-01
  8.50000000E-01  8.00000000E-01  8.50000000E-01  8.50000000E-01  8.50000000E-01
  8.00000000E-01  8.50000000E-01  8.50000000E-01  8.50000000E-01  8.00000000E-01
  8.50000000E-01  8.50000000E-01  8.50000000E-01  8.00000000E-01  8.50000000E-01
  8.50000000E-01  8.50000000E-01  8.00000000E-01  8.50000000E-01  8.50000000E-01
  8.50000000E-01  8.00000000E-01  8.50000000E-01  8.50000000E-01  8.50000000E-01
  8.00000000E-01  8.50000000E-01  8.50000000E-01  8.50000000E-01  8.00000000E-01
  8.50000000E-01  8.50000000E-01  8.50000000E-01  8.00000000E-01  8.50000000E-01
  8.50000000E-01  8.50000000E-01  8.00000000E-01  8.50000000E-01  8.50000000E-01
  8.50000000E-01  8.00000000E-01  8.50000000E-01  8.50000000E-01  8.50000000E-01
  8.00000000E-01  8.50000000E-01  8.50000000E-01  8.50000000E-01  8.00000000E-01
  8.50000000E-01  8.50000000E-01  8.50000000E-01  8.00000000E-01  8.50000000E-01
  8.50000000E-01  8.50000000E-01  8.00000000E-01  8.50000000E-01  8.50000000E-01
  8.50000000E-01  8.00000000E-01  8.50000000E-01  8.50000000E-01  8.50000000E-01
  8.00000000E-01  8.50000000E-01  8.50000000E-01  8.50000000E-01  8.00000000E-01
  8.50000000E-01  8.50000000E-01  8.50000000E-01  8.00000000E-01  8.50000000E-01
  8.50000000E-01  8.50000000E-01  8.00000000E-01  8.50000000E-01  8.50000000E-01
  8.50000000E-01  8.00000000E-01  8.50000000E-01  8.50000000E-01  8.50000000E-01
  8.00000000E-01  8.50000000E-01  8.50000000E-01  8.50000000E-01  8.00000000E-01
  8.50000000E-01  8.50000000E-01  8.50000000E-01  8.00000000E-01  8.50000000E-01
  8.50000000E-01  8.50000000E-01  8.00000000E-01  8.50000000E-01  8.50000000E-01
  8.50000000E-01  8.00000000E-01  8.50000000E-01  8.50000000E-01  8.50000000E-01
  8.00000000E-01  8.50000000E-01  8.50000000E-01  8.50000000E-01  8.00000000E-01
  8.50000000E-01  8.50000000E-01  8.50000000E-01  8.00000000E-01  8.50000000E-01
  8.50000000E-01  8.50000000E-01  8.00000000E-01  8.50000000E-01  8.50000000E-01
  8.50000000E-01  8.00000000E-01  8.50000000E-01  8.50000000E-01  8.50000000E-01
  8.00000000E-01  8.50000000E-01  8.50000000E-01  8.50000000E-01  8.00000000E-01
  8.50000000E-01  8.50000000E-01  8.50000000E-01  8.00000000E-01  8.50000000E-01
  8.50000000E-01  8.50000000E-01  8.00000000E-01  8.50000000E-01  8.50000000E-01
  8.50000000E-01  8.00000000E-01  8.50000000E-01  8.50000000E-01  8.50000000E-01
  8.00000000E-01  8.50000000E-01  8.50000000E-01  8.50000000E-01  8.00000000E-01
  8.50000000E-01  8.50000000E-01  8.50000000E-01  8.00000000E-01  8.50000000E-01
  8.50000000E-01  8.50000000E-01  8.00000000E-01  8.50000000E-01  8.50000000E-01
  8.50000000E-01  8.00000000E-01  8.50000000E-01  8.50000000E-01  8.50000000E-01
  8.00000000E-01  8.50000000E-01  8.50000000E-01  8.50000000E-01  8.00000000E-01
  8.50000000E-01  8.50000000E-01  8.50000000E-01  8.00000000E-01  8.50000000E-01
  8.50000000E-01  8.50000000E-01  8.00000000E-01  8.50000000E-01  8.50000000E-01
  8.50000000E-01  8.00000000E-01  8.50000000E-01  8.50000000E-01  8.50000000E-01
  8.00000000E-01  8.50000000E-01  8.50000000E-01  8.50000000E-01  8.00000000E-01
  8.50000000E-01  8.50000000E-01  8.50000000E-01  8.00000000E-01  8.50000000E-01
  8.50000000E-01  8.50000000E-01  8.00000000E-01  8.50000000E-01  8.50000000E-01
  8.50000000E-01  8.00000000E-01  8.50000000E-01  8.50000000E-01  8.50000000E-01
  8.00000000E-01  8.50000000E-01  8.50000000E-01  8.50000000E-01  8.00000000E-01
  8.50000000E-01  8.50000000E-01  8.50000000E-01  8.00000000E-01  8.50000000E-01
  8.50000000E-01  8.50000000E-01  8.00000000E-01  8.50000000E-01  8.50000000E-01
  8.50000000E-01  8.00000000E-01  8.50000000E-01  8.50000000E-01  8.50000000E-01
  8.00000000E-01  8.50000000E-01  8.50000000E-01  8.50000000E-01  8.00000000E-01
  8.50000000E-01  8.50000000E-01  8.50000000E-01  8.00000000E-01  8.50000000E-01
  8.50000000E-01  8.50000000E-01  8.00000000E-01  8.50000000E-01  8.50000000E-01
  8.50000000E-01  8.00000000E-01  8.50000000E-01  8.50000000E-01  8.50000000E-01
  8.00000000E-01  8.50000000E-01  8.50000000E-01  8.50000000E-01  8.00000000E-01
  8.50000000E-01  8.50000000E-01  8.50000000E-01  8.00000000E-01  8.50000000E-01
  8.50000000E-01  8.50000000E-01  8.00000000E-01  8.50000000E-01  8.50000000E-01
  8.50000000E-01  8.00000000E-01  8.50000000E-01  8.50000000E-01  8.50000000E-01
  8.00000000E-01  8.50000000E-01  8.50000000E-01  8.50000000E-01  8.00000000E-01
  8.50000000E-01  8.50000000E-01  8.50000000E-01  8.00000000E-01  8.50000000E-01
  8.50000000E-01  8.50000000E-01  8.00000000E-01  8.50000000E-01  8.50000000E-01
  8.50000000E-01  8.00000000E-01  8.50000000E-01  8.50000000E-01  8.50000000E-01
  8.00000000E-01  8.50000000E-01  8.50000000E-01  8.50000000E-01  8.00000000E-01
  8.50000000E-01  8.50000000E-01  8.50000000E-01  8.00000000E-01  8.50000000E-01
  8.50000000E-01  8.50000000E-01  8.00000000E-01  8.50000000E-01  8.50000000E-01
  8.50000000E-01  8.00000000E-01  8.50000000E-01  8.50000000E-01  8.50000000E-01
  8.00000000E-01  8.50000000E-01  8.50000000E-01  8.50000000E-01  8.00000000E-01
  8.50000000E-01  8.50000000E-01  8.50000000E-01  8.00000000E-01  8.50000000E-01
  8.50000000E-01  8.50000000E-01  8.00000000E-01  8.50000000E-01  8.50000000E-01
  8.50000000E-01  8.00000000E-01  8.50000000E-01  8.50000000E-01  8.50000000E-01
  8.00000000E-01  8.50000000E-01  8.50000000E-01  8.50000000E-01  8.00000000E-01
  8.50000000E-01  8.50000000E-01  8.50000000E-01  8.00000000E-01  8.50000000E-01
  8.50000000E-01  8.50000000E-01  8.00000000E-01  8.50000000E-01  8.50000000E-01
  8.50000000E-01  8.00000000E-01  8.50000000E-01  8.50000000E-01  8.50000000E-01
  8.00000000E-01  8.50000000E-01  8.50000000E-01  8.50000000E-01  8.00000000E-01
  8.50000000E-01  8.50000000E-01  8.50000000E-01  8.00000000E-01  8.50000000E-01
  8.50000000E-01  8.50000000E-01  8.00000000E-01  8.50000000E-01  8.50000000E-01
  8.50000000E-01  8.00000000E-01  8.50000000E-01  8.50000000E-01  8.50000000E-01
  8.00000000E-01  8.50000000E-01  8.50000000E-01  8.50000000E-01  8.00000000E-01
  8.50000000E-01  8.50000000E-01  8.50000000E-01  8.00000000E-01  8.50000000E-01
  8.50000000E-01  8.50000000E-01  8.00000000E-01  8.50000000E-01  8.50000000E-01
  8.50000000E-01  8.00000000E-01  8.50000000E-01  8.50000000E-01  8.50000000E-01
  8.00000000E-01  8.50000000E-01  8.50000000E-01  8.50000000E-01  8.00000000E-01
  8.50000000E-01  8.50000000E-01  8.50000000E-01  8.00000000E-01  8.50000000E-01
  8.50000000E-01  8.50000000E-01  8.00000000E-01  8.50000000E-01  8.50000000E-01
  8.50000000E-01  8.00000000E-01  8.50000000E-01  8.50000000E-01  8.50000000E-01
  8.00000000E-01  8.50000000E-01  8.50000000E-01  8.50000000E-01  8.00000000E-01
  8.50000000E-01  8.50000000E-01  8.50000000E-01  8.00000000E-01  8.50000000E-01
  8.50000000E-01  8.50000000E-01  8.00000000E-01  8.50000000E-01  8.50000000E-01
  8.50000000E-01  8.00000000E-01  8.50000000E-01  8.50000000E-01  8.50000000E-01
  8.00000000E-01  8.50000000E-01  8.50000000E-01  8.50000000E-01  8.00000000E-01
  8.50000000E-01  8.50000000E-01  8.50000000E-01  8.00000000E-01  8.50000000E-01
  8.50000000E-01  8.50000000E-01  8.00000000E-01  8.50000000E-01  8.50000000E-01
  8.50000000E-01  8.00000000E-01  8.50000000E-01  8.50000000E-01  8.50000000E-01
  8.00000000E-01  8.50000000E-01  8.50000000E-01  8.50000000E-01  8.00000000E-01
  8.50000000E-01  8.50000000E-01  8.50000000E-01  8.00000000E-01  8.50000000E-01
  8.50000000E-01  8.50000000E-01  8.00000000E-01  8.50000000E-01  8.50000000E-01
  8.50000000E-01  8.00000000E-01  8.50000000E-01  8.50000000E-01  8.50000000E-01
  8.00000000E-01  8.50000000E-01  8.50000000E-01  8.50000000E-01  8.00000000E-01
  8.50000000E-01  8.50000000E-01  8.50000000E-01  8.00000000E-01  8.50000000E-01
  8.50000000E-01  8.50000000E-01  8.00000000E-01  8.50000000E-01  8.50000000E-01
  8.50000000E-01  8.00000000E-01  8.50000000E-01  8.50000000E-01  8.50000000E-01
  8.00000000E-01  8.50000000E-01  8.50000000E-01  8.50000000E-01  8.00000000E-01
  8.50000000E-01  8.50000000E-01  8.50000000E-01  8.00000000E-01  8.50000000E-01
  8.50000000E-01  8.50000000E-01  8.00000000E-01  8.50000000E-01  8.50000000E-01
  8.50000000E-01  8.00000000E-01  8.50000000E-01  8.50000000E-01  8.50000000E-01
  8.00000000E-01  8.50000000E-01  8.50000000E-01  8.50000000E-01  8.00000000E-01
  8.50000000E-01  8.50000000E-01  8.50000000E-01  8.00000000E-01  8.50000000E-01
  8.50000000E-01  8.50000000E-01  8.00000000E-01  8.50000000E-01  8.50000000E-01
  8.50000000E-01  8.00000000E-01  8.50000000E-01  8.50000000E-01  8.50000000E-01
  8.00000000E-01  8.50000000E-01  8.50000000E-01  8.50000000E-01  8.00000000E-01
  8.50000000E-01  8.50000000E-01  8.50000000E-01  8.00000000E-01  8.50000000E-01
  8.50000000E-01  8.50000000E-01  8.00000000E-01  8.50000000E-01  8.50000000E-01
  8.50000000E-01  8.00000000E-01  8.50000000E-01  8.50000000E-01  8.50000000E-01
  8.00000000E-01  8.50000000E-01  8.50000000E-01  8.50000000E-01  8.00000000E-01
  8.50000000E-01  8.50000000E-01  8.50000000E-01  8.00000000E-01  8.50000000E-01
  8.50000000E-01  8.50000000E-01  8.00000000E-01  8.50000000E-01  8.50000000E-01
  8.50000000E-01  8.00000000E-01  8.50000000E-01  8.50000000E-01  8.50000000E-01
  8.00000000E-01  8.50000000E-01  8.50000000E-01  8.50000000E-01  8.00000000E-01
  8.50000000E-01  8.50000000E-01  8.50000000E-01  8.00000000E-01  8.50000000E-01
  8.50000000E-01  8.50000000E-01  8.00000000E-01  8.50000000E-01  8.50000000E-01
  8.50000000E-01  8.00000000E-01  8.50000000E-01  8.50000000E-01  8.50000000E-01
  8.00000000E-01  8.50000000E-01  8.50000000E-01  8.50000000E-01  8.00000000E-01
  8.50000000E-01  8.50000000E-01  8.50000000E-01  8.00000000E-01  8.50000000E-01
  8.50000000E-01  8.50000000E-01  8.00000000E-01  8.50000000E-01  8.50000000E-01
  8.50000000E-01  8.00000000E-01  8.50000000E-01  8.50000000E-01  8.50000000E-01
  8.00000000E-01  8.50000000E-01  8.50000000E-01  8.50000000E-01  8.00000000E-01
  8.50000000E-01  8.50000000E-01  8.50000000E-01  8.00000000E-01  8.50000000E-01
  8.50000000E-01  8.50000000E-01  8.00000000E-01  8.50000000E-01  8.50000000E-01
  8.50000000E-01  8.00000000E-01  8.50000000E-01  8.50000000E-01  8.50000000E-01
  8.00000000E-01  8.50000000E-01  8.50000000E-01  8.50000000E-01  8.00000000E-01
  8.50000000E-01  8.50000000E-01  8.50000000E-01  8.00000000E-01  8.50000000E-01
  8.50000000E-01  8.50000000E-01  8.00000000E-01  8.50000000E-01  8.50000000E-01
  8.50000000E-01  8.00000000E-01  8.50000000E-01  8.50000000E-01  8.50000000E-01
  8.00000000E-01  8.50000000E-01  8.50000000E-01  8.50000000E-01  8.00000000E-01
  8.50000000E-01  8.50000000E-01  8.50000000E-01  8.00000000E-01  8.50000000E-01
  8.50000000E-01  8.50000000E-01  8.00000000E-01  8.50000000E-01  8.50000000E-01
  8.50000000E-01  8.00000000E-01  8.50000000E-01  8.50000000E-01  8.50000000E-01
  8.00000000E-01  8.50000000E-01  8.50000000E-01  8.50000000E-01  8.00000000E-01
  8.50000000E-01  8.50000000E-01  8.50000000E-01  8.00000000E-01  8.50000000E-01
  8.50000000E-01  8.50000000E-01  8.00000000E-01  8.50000000E-01  8.50000000E-01
  8.50000000E-01  8.00000000E-01  8.50000000E-01  8.50000000E-01  8.50000000E-01
  8.00000000E-01  8.50000000E-01  8.50000000E-01  8.50000000E-01  8.00000000E-01
  8.50000000E-01  8.50000000E-01  8.50000000E-01  8.00000000E-01  8.50000000E-01
  8.50000000E-01  8.50000000E-01  8.00000000E-01  8.50000000E-01  8.50000000E-01
  8.50000000E-01  8.00000000E-01  8.50000000E-01  8.50000000E-01  8.50000000E-01
  8.00000000E-01  8.50000000E-01  8.50000000E-01  8.50000000E-01  8.00000000E-01
  8.50000000E-01  8.50000000E-01  8.50000000E-01  8.00000000E-01  8.50000000E-01
  8.50000000E-01  8.50000000E-01  8.00000000E-01  8.50000000E-01  8.50000000E-01
  8.50000000E-01  8.00000000E-01  8.50000000E-01  8.50000000E-01  8.50000000E-01
  8.00000000E-01  8.50000000E-01  8.50000000E-01  8.50000000E-01  8.00000000E-01
  8.50000000E-01  8.50000000E-01  8.50000000E-01  8.00000000E-01  8.50000000E-01
  8.50000000E-01  8.50000000E-01  8.00000000E-01  8.50000000E-01  8.50000000E-01
  8.50000000E-01  8.00000000E-01  8.50000000E-01  8.50000000E-01  8.50000000E-01
  8.00000000E-01  8.50000000E-01  8.50000000E-01  8.50000000E-01  8.00000000E-01
  8.50000000E-01  8.50000000E-01  8.50000000E-01  8.00000000E-01  8.50000000E-01
  8.50000000E-01  8.50000000E-01  8.00000000E-01  8.50000000E-01  8.50000000E-01
  8.50000000E-01  8.00000000E-01  8.50000000E-01  8.50000000E-01  8.50000000E-01
  8.00000000E-01  8.50000000E-01  8.50000000E-01  8.50000000E-01  8.00000000E-01
  8.50000000E-01  8.50000000E-01  8.50000000E-01  8.00000000E-01  8.50000000E-01
  8.50000000E-01  8.50000000E-01  8.00000000E-01  8.50000000E-01  8.50000000E-01
  8.50000000E-01  8.00000000E-01  8.50000000E-01  8.50000000E-01  8.50000000E-01
  8.00000000E-01  8.50000000E-01  8.50000000E-01  8.50000000E-01  8.00000000E-01
  8.50000000E-01  8.50000000E-01  8.50000000E-01  8.00000000E-01  8.50000000E-01
  8.50000000E-01  8.50000000E-01  8.00000000E-01  8.50000000E-01  8.50000000E-01
  8.50000000E-01  8.00000000E-01  8.50000000E-01  8.50000000E-01  8.50000000E-01
  8.00000000E-01  8.50000000E-01  8.50000000E-01  8.50000000E-01  8.00000000E-01
  8.50000000E-01  8.50000000E-01  8.50000000E-01  8.00000000E-01  8.50000000E-01
  8.50000000E-01  8.50000000E-01  8.00000000E-01  8.50000000E-01  8.50000000E-01
  8.50000000E-01  8.00000000E-01  8.50000000E-01  8.50000000E-01  8.50000000E-01
  8.00000000E-01  8.50000000E-01  8.50000000E-01  8.50000000E-01  8.00000000E-01
  8.50000000E-01  8.50000000E-01  8.50000000E-01  8.00000000E-01  8.50000000E-01
  8.50000000E-01  8.50000000E-01  8.00000000E-01  8.50000000E-01  8.50000000E-01
  8.50000000E-01  8.00000000E-01  8.50000000E-01  8.50000000E-01  8.50000000E-01
  8.00000000E-01  8.50000000E-01  8.50000000E-01  8.50000000E-01  8.00000000E-01
  8.50000000E-01  8.50000000E-01  8.50000000E-01  8.00000000E-01  8.50000000E-01
  8.50000000E-01  8.50000000E-01  8.00000000E-01  8.50000000E-01  8.50000000E-01
  8.50000000E-01  8.00000000E-01  8.50000000E-01  8.50000000E-01  8.50000000E-01
  8.00000000E-01  8.50000000E-01  8.50000000E-01  8.50000000E-01  8.00000000E-01
  8.50000000E-01  8.50000000E-01  8.50000000E-01  8.00000000E-01  8.50000000E-01
  8.50000000E-01  8.50000000E-01  8.00000000E-01  8.50000000E-01  8.50000000E-01
  8.50000000E-01  8.00000000E-01  8.50000000E-01  8.50000000E-01  8.50000000E-01
  8.00000000E-01  8.50000000E-01  8.50000000E-01  8.50000000E-01  8.00000000E-01
  8.50000000E-01  8.50000000E-01  8.50000000E-01  8.00000000E-01  8.50000000E-01
  8.50000000E-01  8.50000000E-01  8.00000000E-01  8.50000000E-01  8.50000000E-01
  8.50000000E-01  8.00000000E-01  8.50000000E-01  8.50000000E-01  8.50000000E-01
  8.00000000E-01  8.50000000E-01  8.50000000E-01  8.50000000E-01  8.00000000E-01
  8.50000000E-01  8.50000000E-01  8.50000000E-01  8.00000000E-01  8.50000000E-01
  8.50000000E-01  8.50000000E-01  8.00000000E-01  8.50000000E-01  8.50000000E-01
  8.50000000E-01  8.00000000E-01  8.50000000E-01  8.50000000E-01  8.50000000E-01
  8.00000000E-01  8.50000000E-01  8.50000000E-01  8.50000000E-01  8.00000000E-01
  8.50000000E-01  8.50000000E-01  8.50000000E-01  8.00000000E-01  8.50000000E-01
  8.50000000E-01  8.50000000E-01  8.00000000E-01  8.50000000E-01  8.50000000E-01
  8.50000000E-01  8.00000000E-01  8.50000000E-01  8.50000000E-01  8.50000000E-01
  8.00000000E-01  8.50000000E-01  8.50000000E-01  8.50000000E-01  8.00000000E-01
  8.50000000E-01  8.50000000E-01  8.50000000E-01  8.00000000E-01  8.50000000E-01
  8.50000000E-01  8.50000000E-01  8.00000000E-01  8.50000000E-01  8.50000000E-01
  8.50000000E-01  8.00000000E-01  8.50000000E-01  8.50000000E-01  8.50000000E-01
  8.00000000E-01  8.50000000E-01  8.50000000E-01  8.50000000E-01  8.00000000E-01
  8.50000000E-01  8.50000000E-01  8.50000000E-01  8.00000000E-01  8.50000000E-01
  8.50000000E-01  8.50000000E-01  8.00000000E-01  8.50000000E-01  8.50000000E-01
  8.50000000E-01  8.00000000E-01  8.50000000E-01  8.50000000E-01  8.50000000E-01
  8.00000000E-01  8.50000000E-01  8.50000000E-01  8.50000000E-01  8.00000000E-01
  8.50000000E-01  8.50000000E-01  8.50000000E-01  8.00000000E-01  8.50000000E-01
  8.50000000E-01  8.50000000E-01  8.00000000E-01  8.50000000E-01  8.50000000E-01
  8.50000000E-01  8.00000000E-01  8.50000000E-01  8.50000000E-01  8.50000000E-01
  8.00000000E-01  8.50000000E-01  8.50000000E-01  8.50000000E-01  8.00000000E-01
  8.50000000E-01  8.50000000E-01  8.50000000E-01  8.00000000E-01  8.50000000E-01
  8.50000000E-01  8.50000000E-01  8.00000000E-01  8.50000000E-01  8.50000000E-01
  8.50000000E-01  8.00000000E-01  8.50000000E-01  8.50000000E-01  8.50000000E-01
  8.00000000E-01  8.50000000E-01  8.50000000E-01  8.50000000E-01  8.00000000E-01
  8.50000000E-01  8.50000000E-01  8.50000000E-01  8.00000000E-01  8.50000000E-01
  8.50000000E-01  8.50000000E-01  8.00000000E-01  8.50000000E-01  8.50000000E-01
  8.50000000E-01  8.00000000E-01  8.50000000E-01  8.50000000E-01  8.50000000E-01
  8.00000000E-01  8.50000000E-01  8.50000000E-01  8.50000000E-01  8.00000000E-01
  8.50000000E-01  8.50000000E-01  8.50000000E-01  8.00000000E-01  8.50000000E-01
  8.50000000E-01  8.50000000E-01  8.00000000E-01  8.50000000E-01  8.50000000E-01
  8.50000000E-01  8.00000000E-01  8.50000000E-01  8.50000000E-01  8.50000000E-01
  8.00000000E-01  8.50000000E-01  8.50000000E-01  8.50000000E-01  8.00000000E-01
  8.50000000E-01  8.50000000E-01  8.50000000E-01  8.00000000E-01  8.50000000E-01
  8.50000000E-01  8.50000000E-01  8.00000000E-01  8.50000000E-01  8.50000000E-01
  8.50000000E-01  8.00000000E-01  8.50000000E-01  8.50000000E-01  8.50000000E-01
  8.00000000E-01  8.50000000E-01  8.50000000E-01  8.50000000E-01  8.00000000E-01
  8.50000000E-01  8.50000000E-01  8.50000000E-01  8.00000000E-01  8.50000000E-01
  8.50000000E-01  8.50000000E-01  8.00000000E-01  8.50000000E-01  8.50000000E-01
  8.50000000E-01  8.00000000E-01  8.50000000E-01  8.50000000E-01  8.50000000E-01
  8.00000000E-01  8.50000000E-01  8.50000000E-01  8.50000000E-01  8.00000000E-01
  8.50000000E-01  8.50000000E-01  8.50000000E-01  8.00000000E-01  8.50000000E-01
  8.50000000E-01  8.50000000E-01  8.00000000E-01  8.50000000E-01  8.50000000E-01
  8.50000000E-01  8.00000000E-01  8.50000000E-01  8.50000000E-01  8.50000000E-01
  8.00000000E-01  8.50000000E-01  8.50000000E-01  8.50000000E-01  8.00000000E-01
  8.50000000E-01  8.50000000E-01  8.50000000E-01  8.00000000E-01  8.50000000E-01
  8.50000000E-01  8.50000000E-01  8.00000000E-01  8.50000000E-01  8.50000000E-01
  8.50000000E-01  8.00000000E-01  8.50000000E-01  8.50000000E-01  8.50000000E-01
  8.00000000E-01  8.50000000E-01  8.50000000E-01  8.50000000E-01  8.00000000E-01
  8.50000000E-01  8.50000000E-01  8.50000000E-01  8.00000000E-01  8.50000000E-01
  8.50000000E-01  8.50000000E-01  8.00000000E-01  8.50000000E-01  8.50000000E-01
  8.50000000E-01  8.00000000E-01  8.50000000E-01  8.50000000E-01  8.50000000E-01
  8.00000000E-01  8.50000000E-01  8.50000000E-01  8.50000000E-01  8.00000000E-01
  8.50000000E-01  8.50000000E-01  8.50000000E-01  8.00000000E-01  8.50000000E-01
  8.50000000E-01  8.50000000E-01  8.00000000E-01  8.50000000E-01  8.50000000E-01
  8.50000000E-01  8.00000000E-01  8.50000000E-01  8.50000000E-01  8.50000000E-01
  8.00000000E-01  8.50000000E-01  8.50000000E-01  8.50000000E-01  8.00000000E-01
  8.50000000E-01  8.50000000E-01  8.50000000E-01  8.00000000E-01  8.50000000E-01
  8.50000000E-01  8.50000000E-01  8.00000000E-01  8.50000000E-01  8.50000000E-01
  8.50000000E-01  8.00000000E-01  8.50000000E-01  8.50000000E-01  8.50000000E-01
  8.00000000E-01  8.50000000E-01  8.50000000E-01  8.50000000E-01  8.00000000E-01
  8.50000000E-01  8.50000000E-01  8.50000000E-01  8.00000000E-01  8.50000000E-01
  8.50000000E-01  8.50000000E-01  8.00000000E-01  8.50000000E-01  8.50000000E-01
  8.50000000E-01  8.00000000E-01  8.50000000E-01  8.50000000E-01  8.50000000E-01
  8.00000000E-01  8.50000000E-01  8.50000000E-01  8.50000000E-01  8.00000000E-01
  8.50000000E-01  8.50000000E-01  8.50000000E-01  8.00000000E-01  8.50000000E-01
  8.50000000E-01  8.50000000E-01  8.00000000E-01  8.50000000E-01  8.50000000E-01
  8.50000000E-01  8.00000000E-01  8.50000000E-01  8.50000000E-01  8.50000000E-01
  8.00000000E-01  8.50000000E-01  8.50000000E-01  8.50000000E-01  8.00000000E-01
  8.50000000E-01  8.50000000E-01  8.50000000E-01  8.00000000E-01  8.50000000E-01
  8.50000000E-01  8.50000000E-01  8.00000000E-01  8.50000000E-01  8.50000000E-01
  8.50000000E-01  8.00000000E-01  8.50000000E-01  8.50000000E-01  8.50000000E-01
  8.00000000E-01  8.50000000E-01  8.50000000E-01  8.50000000E-01  8.00000000E-01
  8.50000000E-01  8.50000000E-01  8.50000000E-01  8.00000000E-01  8.50000000E-01
  8.50000000E-01  8.50000000E-01  8.00000000E-01  8.50000000E-01  8.50000000E-01
  8.50000000E-01  8.00000000E-01  8.50000000E-01  8.50000000E-01  8.50000000E-01
  8.00000000E-01  8.50000000E-01  8.50000000E-01  8.50000000E-01  8.00000000E-01
  8.50000000E-01  8.50000000E-01  8.50000000E-01  8.00000000E-01  8.50000000E-01
  8.50000000E-01  8.50000000E-01  8.00000000E-01  8.50000000E-01  8.50000000E-01
  8.50000000E-01  8.00000000E-01  8.50000000E-01  8.50000000E-01  8.50000000E-01
  8.00000000E-01  8.50000000E-01  8.50000000E-01  8.50000000E-01  8.00000000E-01
  8.50000000E-01  8.50000000E-01  8.50000000E-01  8.00000000E-01  8.50000000E-01
  8.50000000E-01  8.50000000E-01  8.00000000E-01  8.50000000E-01  8.50000000E-01
  8.50000000E-01  8.00000000E-01  8.50000000E-01  8.50000000E-01  8.50000000E-01
  8.00000000E-01  8.50000000E-01  8.50000000E-01  8.50000000E-01  8.00000000E-01
  8.50000000E-01  8.50000000E-01  8.50000000E-01  8.00000000E-01  8.50000000E-01
  8.50000000E-01  8.50000000E-01  8.00000000E-01  8.50000000E-01  8.50000000E-01
  8.50000000E-01  8.00000000E-01  8.50000000E-01  8.50000000E-01  8.50000000E-01
  8.00000000E-01  8.50000000E-01  8.50000000E-01  8.50000000E-01  8.00000000E-01
  8.50000000E-01  8.50000000E-01  8.50000000E-01  8.00000000E-01  8.50000000E-01
  8.50000000E-01  8.50000000E-01  8.00000000E-01  8.50000000E-01  8.50000000E-01
  8.50000000E-01  8.00000000E-01  8.50000000E-01  8.50000000E-01  8.50000000E-01
  8.00000000E-01  8.50000000E-01  8.50000000E-01  8.50000000E-01  8.00000000E-01
  8.50000000E-01  8.50000000E-01  8.50000000E-01  8.00000000E-01  8.50000000E-01
  8.50000000E-01  8.50000000E-01  8.00000000E-01  8.50000000E-01  8.50000000E-01
  8.50000000E-01  8.00000000E-01  8.50000000E-01  8.50000000E-01  8.50000000E-01
  8.00000000E-01  8.50000000E-01  8.50000000E-01  8.50000000E-01  8.00000000E-01
  8.50000000E-01  8.50000000E-01  8.50000000E-01  8.00000000E-01  8.50000000E-01
  8.50000000E-01  8.50000000E-01  8.00000000E-01  8.50000000E-01  8.50000000E-01
  8.50000000E-01  8.00000000E-01  8.50000000E-01  8.50000000E-01  8.50000000E-01
  8.00000000E-01  8.50000000E-01  8.50000000E-01  8.50000000E-01  8.00000000E-01
  8.50000000E-01  8.50000000E-01  8.50000000E-01  8.00000000E-01  8.50000000E-01
  8.50000000E-01  8.50000000E-01  8.00000000E-01  8.50000000E-01  8.50000000E-01
  8.50000000E-01  8.00000000E-01  8.50000000E-01  8.50000000E-01  8.50000000E-01
  8.00000000E-01  8.50000000E-01  8.50000000E-01  8.50000000E-01  8.00000000E-01
  8.50000000E-01  8.50000000E-01  8.50000000E-01  8.00000000E-01  8.50000000E-01
  8.50000000E-01  8.50000000E-01  8.00000000E-01  8.50000000E-01  8.50000000E-01
  8.50000000E-01  8.00000000E-01  8.50000000E-01  8.50000000E-01  8.50000000E-01
  8.00000000E-01  8.50000000E-01  8.50000000E-01  8.50000000E-01  8.00000000E-01
  8.50000000E-01  8.50000000E-01  8.50000000E-01  8.00000000E-01  8.50000000E-01
  8.50000000E-01  8.50000000E-01  8.00000000E-01  8.50000000E-01  8.50000000E-01
  8.50000000E-01  8.00000000E-01  8.50000000E-01  8.50000000E-01  8.50000000E-01
  8.00000000E-01  8.50000000E-01  8.50000000E-01  8.50000000E-01  8.00000000E-01
  8.50000000E-01  8.50000000E-01  8.50000000E-01  8.00000000E-01  8.50000000E-01
  8.50000000E-01  8.50000000E-01  8.00000000E-01  8.50000000E-01  8.50000000E-01
  8.50000000E-01  8.00000000E-01  8.50000000E-01  8.50000000E-01  8.50000000E-01
  8.00000000E-01  8.50000000E-01  8.50000000E-01  8.50000000E-01  8.00000000E-01
  8.50000000E-01  8.50000000E-01  8.50000000E-01  8.00000000E-01  8.50000000E-01
  8.50000000E-01  8.50000000E-01  8.00000000E-01  8.50000000E-01  8.50000000E-01
  8.50000000E-01  8.00000000E-01  8.50000000E-01  8.50000000E-01  8.50000000E-01
  8.00000000E-01  8.50000000E-01  8.50000000E-01  8.50000000E-01  8.00000000E-01
  8.50000000E-01  8.50000000E-01  8.50000000E-01  8.00000000E-01  8.50000000E-01
  8.50000000E-01  8.50000000E-01  8.00000000E-01  8.50000000E-01  8.50000000E-01
  8.50000000E-01  8.00000000E-01  8.50000000E-01  8.50000000E-01  8.50000000E-01
  8.00000000E-01  8.50000000E-01  8.50000000E-01  8.50000000E-01  8.00000000E-01
  8.50000000E-01  8.50000000E-01  8.50000000E-01  8.00000000E-01  8.50000000E-01
  8.50000000E-01  8.50000000E-01  8.00000000E-01  8.50000000E-01  8.50000000E-01
  8.50000000E-01  8.00000000E-01  8.50000000E-01  8.50000000E-01  8.50000000E-01
  8.00000000E-01  8.50000000E-01  8.50000000E-01  8.50000000E-01  8.00000000E-01
  8.50000000E-01  8.50000000E-01  8.50000000E-01  8.00000000E-01  8.50000000E-01
  8.50000000E-01  8.50000000E-01  8.00000000E-01  8.50000000E-01  8.50000000E-01
  8.50000000E-01  8.00000000E-01  8.50000000E-01  8.50000000E-01  8.50000000E-01
  8.00000000E-01  8.50000000E-01  8.50000000E-01  8.50000000E-01  8.00000000E-01
  8.50000000E-01  8.50000000E-01  8.50000000E-01  8.00000000E-01  8.50000000E-01
  8.50000000E-01  8.50000000E-01  8.00000000E-01  8.50000000E-01  8.50000000E-01
  8.50000000E-01  8.00000000E-01  8.50000000E-01  8.50000000E-01  8.50000000E-01
  8.00000000E-01  8.50000000E-01  8.50000000E-01  8.50000000E-01  8.00000000E-01
  8.50000000E-01  8.50000000E-01  8.50000000E-01  8.00000000E-01  8.50000000E-01
  8.50000000E-01  8.50000000E-01  8.00000000E-01  8.50000000E-01  8.50000000E-01
  8.50000000E-01  8.00000000E-01  8.50000000E-01  8.50000000E-01  8.50000000E-01
  8.00000000E-01  8.50000000E-01  8.50000000E-01  8.50000000E-01  8.00000000E-01
  8.50000000E-01  8.50000000E-01  8.50000000E-01  8.00000000E-01  8.50000000E-01
  8.50000000E-01  8.50000000E-01  8.00000000E-01  8.50000000E-01  8.50000000E-01
  8.50000000E-01  8.00000000E-01  8.50000000E-01  8.50000000E-01  8.50000000E-01
  8.00000000E-01  8.50000000E-01  8.50000000E-01  8.50000000E-01  8.00000000E-01
  8.50000000E-01  8.50000000E-01  8.50000000E-01  8.00000000E-01  8.50000000E-01
  8.50000000E-01  8.50000000E-01  8.00000000E-01  8.50000000E-01  8.50000000E-01
  8.50000000E-01  8.00000000E-01  8.50000000E-01  8.50000000E-01  8.50000000E-01
  8.00000000E-01  8.50000000E-01  8.50000000E-01  8.50000000E-01  8.00000000E-01
  8.50000000E-01  8.50000000E-01  8.50000000E-01  8.00000000E-01  8.50000000E-01
  8.50000000E-01  8.50000000E-01  8.00000000E-01  8.50000000E-01  8.50000000E-01
  8.50000000E-01  8.00000000E-01  8.50000000E-01  8.50000000E-01  8.50000000E-01
  8.00000000E-01  8.50000000E-01  8.50000000E-01  8.50000000E-01  8.00000000E-01
  8.50000000E-01  8.50000000E-01  8.50000000E-01  8.00000000E-01  8.50000000E-01
  8.50000000E-01  8.50000000E-01  8.00000000E-01  8.50000000E-01  8.50000000E-01
  8.50000000E-01  8.00000000E-01  8.50000000E-01  8.50000000E-01  8.50000000E-01
  8.00000000E-01  8.50000000E-01  8.50000000E-01  8.50000000E-01  8.00000000E-01
  8.50000000E-01  8.50000000E-01  8.50000000E-01  8.00000000E-01  8.50000000E-01
  8.50000000E-01  8.50000000E-01  8.00000000E-01  8.50000000E-01  8.50000000E-01
  8.50000000E-01  8.00000000E-01  8.50000000E-01  8.50000000E-01  8.50000000E-01
  8.00000000E-01  8.50000000E-01  8.50000000E-01  8.50000000E-01  8.00000000E-01
  8.50000000E-01  8.50000000E-01  8.50000000E-01  8.00000000E-01  8.50000000E-01
  8.50000000E-01  8.50000000E-01  8.00000000E-01  8.50000000E-01  8.50000000E-01
  8.50000000E-01  8.00000000E-01  8.50000000E-01  8.50000000E-01  8.50000000E-01
  8.00000000E-01  8.50000000E-01  8.50000000E-01  8.50000000E-01  8.00000000E-01
  8.50000000E-01  8.50000000E-01  8.50000000E-01  8.00000000E-01  8.50000000E-01
  8.50000000E-01  8.50000000E-01  8.00000000E-01  8.50000000E-01  8.50000000E-01
  8.50000000E-01  8.00000000E-01  8.50000000E-01  8.50000000E-01  8.50000000E-01
  8.00000000E-01  8.50000000E-01  8.50000000E-01  8.50000000E-01  8.00000000E-01
  8.50000000E-01  8.50000000E-01  8.50000000E-01  8.00000000E-01  8.50000000E-01
  8.50000000E-01  8.50000000E-01  8.00000000E-01  8.50000000E-01  8.50000000E-01
  8.50000000E-01  8.00000000E-01  8.50000000E-01  8.50000000E-01  8.50000000E-01
  8.00000000E-01  8.50000000E-01  8.50000000E-01  8.50000000E-01  8.00000000E-01
  8.50000000E-01  8.50000000E-01  8.50000000E-01  8.00000000E-01  8.50000000E-01
  8.50000000E-01  8.50000000E-01  8.00000000E-01  8.50000000E-01  8.50000000E-01
  8.50000000E-01  8.00000000E-01  8.50000000E-01  8.50000000E-01  8.50000000E-01
  8.00000000E-01  8.50000000E-01  8.50000000E-01  8.50000000E-01  8.00000000E-01
  8.50000000E-01  8.50000000E-01  8.50000000E-01  8.00000000E-01  8.50000000E-01
  8.50000000E-01  8.50000000E-01  8.00000000E-01  8.50000000E-01  8.50000000E-01
  8.50000000E-01  8.00000000E-01  8.50000000E-01  8.50000000E-01  8.50000000E-01
  8.00000000E-01  8.50000000E-01  8.50000000E-01  8.50000000E-01  8.00000000E-01
  8.50000000E-01  8.50000000E-01  8.50000000E-01  8.00000000E-01  8.50000000E-01
  8.50000000E-01  8.50000000E-01  8.00000000E-01  8.50000000E-01  8.50000000E-01
  8.50000000E-01  8.00000000E-01  8.50000000E-01  8.50000000E-01  8.50000000E-01
  8.00000000E-01  8.50000000E-01  8.50000000E-01  8.50000000E-01  8.00000000E-01
  8.50000000E-01  8.50000000E-01  8.50000000E-01  8.00000000E-01  8.50000000E-01
  8.50000000E-01  8.50000000E-01  8.00000000E-01  8.50000000E-01  8.50000000E-01
  8.50000000E-01  8.00000000E-01  8.50000000E-01  8.50000000E-01  8.50000000E-01
  8.00000000E-01  8.50000000E-01  8.50000000E-01  8.50000000E-01  8.00000000E-01
  8.50000000E-01  8.50000000E-01  8.50000000E-01  8.00000000E-01  8.50000000E-01
  8.50000000E-01  8.50000000E-01  8.00000000E-01  8.50000000E-01  8.50000000E-01
  8.50000000E-01  8.00000000E-01  8.50000000E-01  8.50000000E-01  8.50000000E-01
  8.00000000E-01  8.50000000E-01  8.50000000E-01  8.50000000E-01  8.00000000E-01
  8.50000000E-01  8.50000000E-01  8.50000000E-01  8.00000000E-01  8.50000000E-01
  8.50000000E-01  8.50000000E-01  8.00000000E-01  8.50000000E-01  8.50000000E-01
  8.50000000E-01  8.00000000E-01  8.50000000E-01  8.50000000E-01  8.50000000E-01
  8.00000000E-01  8.50000000E-01  8.50000000E-01  8.50000000E-01  8.00000000E-01
  8.50000000E-01  8.50000000E-01  8.50000000E-01  8.00000000E-01  8.50000000E-01
  8.50000000E-01  8.50000000E-01  8.00000000E-01  8.50000000E-01  8.50000000E-01
  8.50000000E-01  8.00000000E-01  8.50000000E-01  8.50000000E-01  8.50000000E-01
  8.00000000E-01  8.50000000E-01  8.50000000E-01  8.50000000E-01  8.00000000E-01
  8.50000000E-01  8.50000000E-01  8.50000000E-01  8.00000000E-01  8.50000000E-01
  8.50000000E-01  8.50000000E-01  8.00000000E-01  8.50000000E-01  8.50000000E-01
  8.50000000E-01  8.00000000E-01  8.50000000E-01  8.50000000E-01  8.50000000E-01
  8.00000000E-01  8.50000000E-01  8.50000000E-01  8.50000000E-01  8.00000000E-01
  8.50000000E-01  8.50000000E-01  8.50000000E-01  8.00000000E-01  8.50000000E-01
  8.50000000E-01  8.50000000E-01  8.00000000E-01  8.50000000E-01  8.50000000E-01
  8.50000000E-01  8.00000000E-01  8.50000000E-01  8.50000000E-01  8.50000000E-01
  8.00000000E-01  8.50000000E-01  8.50000000E-01  8.50000000E-01  8.00000000E-01
  8.50000000E-01  8.50000000E-01  8.50000000E-01  8.00000000E-01  8.50000000E-01
  8.50000000E-01  8.50000000E-01  8.00000000E-01  8.50000000E-01  8.50000000E-01
  8.50000000E-01  8.00000000E-01  8.50000000E-01  8.50000000E-01  8.50000000E-01
  8.00000000E-01  8.50000000E-01  8.50000000E-01  8.50000000E-01  8.00000000E-01
  8.50000000E-01  8.50000000E-01  8.50000000E-01  8.00000000E-01  8.50000000E-01
  8.50000000E-01  8.50000000E-01  8.00000000E-01  8.50000000E-01  8.50000000E-01
  8.50000000E-01  8.00000000E-01  8.50000000E-01  8.50000000E-01  8.50000000E-01
  8.00000000E-01  8.50000000E-01  8.50000000E-01  8.50000000E-01  8.00000000E-01
  8.50000000E-01  8.50000000E-01  8.50000000E-01  8.00000000E-01  8.50000000E-01
  8.50000000E-01  8.50000000E-01  8.00000000E-01  8.50000000E-01  8.50000000E-01
  8.50000000E-01  8.00000000E-01  8.50000000E-01  8.50000000E-01  8.50000000E-01
  8.00000000E-01  8.50000000E-01  8.50000000E-01  8.50000000E-01  8.00000000E-01
  8.50000000E-01  8.50000000E-01  8.50000000E-01  8.00000000E-01  8.50000000E-01
  8.50000000E-01  8.50000000E-01  8.00000000E-01  8.50000000E-01  8.50000000E-01
  8.50000000E-01  8.00000000E-01  8.50000000E-01  8.50000000E-01  8.50000000E-01
  8.00000000E-01  8.50000000E-01  8.50000000E-01  8.50000000E-01  8.00000000E-01
  8.50000000E-01  8.50000000E-01  8.50000000E-01  8.00000000E-01  8.50000000E-01
  8.50000000E-01  8.50000000E-01  8.00000000E-01  8.50000000E-01  8.50000000E-01
  8.50000000E-01  8.00000000E-01  8.50000000E-01  8.50000000E-01  8.50000000E-01
  8.00000000E-01  8.50000000E-01  8.50000000E-01  8.50000000E-01  8.00000000E-01
  8.50000000E-01  8.50000000E-01  8.50000000E-01  8.00000000E-01  8.50000000E-01
  8.50000000E-01  8.50000000E-01  8.00000000E-01  8.50000000E-01  8.50000000E-01
  8.50000000E-01  8.00000000E-01  8.50000000E-01  8.50000000E-01  8.50000000E-01
  8.00000000E-01  8.50000000E-01  8.50000000E-01  8.50000000E-01  8.00000000E-01
  8.50000000E-01  8.50000000E-01  8.50000000E-01  8.00000000E-01  8.50000000E-01
  8.50000000E-01  8.50000000E-01  8.00000000E-01  8.50000000E-01  8.50000000E-01
  8.50000000E-01  8.00000000E-01  8.50000000E-01  8.50000000E-01  8.50000000E-01
  8.00000000E-01  8.50000000E-01  8.50000000E-01  8.50000000E-01  8.00000000E-01
  8.50000000E-01  8.50000000E-01  8.50000000E-01  8.00000000E-01  8.50000000E-01
  8.50000000E-01  8.50000000E-01  8.00000000E-01  8.50000000E-01  8.50000000E-01
  8.50000000E-01  8.00000000E-01  8.50000000E-01  8.50000000E-01  8.50000000E-01
  8.00000000E-01  8.50000000E-01  8.50000000E-01  8.50000000E-01  8.00000000E-01
  8.50000000E-01  8.50000000E-01  8.50000000E-01  8.00000000E-01  8.50000000E-01
  8.50000000E-01  8.50000000E-01  8.00000000E-01  8.50000000E-01  8.50000000E-01
  8.50000000E-01  8.00000000E-01  8.50000000E-01  8.50000000E-01  8.50000000E-01
  8.00000000E-01  8.50000000E-01  8.50000000E-01  8.50000000E-01  8.00000000E-01
  8.50000000E-01  8.50000000E-01  8.50000000E-01  8.00000000E-01  8.50000000E-01
  8.50000000E-01  8.50000000E-01  8.00000000E-01  8.50000000E-01  8.50000000E-01
  8.50000000E-01  8.00000000E-01  8.50000000E-01  8.50000000E-01  8.50000000E-01
  8.00000000E-01  8.50000000E-01  8.50000000E-01  8.50000000E-01  8.00000000E-01
  8.50000000E-01  8.50000000E-01  8.50000000E-01  8.00000000E-01  8.50000000E-01
  8.50000000E-01  8.50000000E-01  8.00000000E-01  8.50000000E-01  8.50000000E-01
  8.50000000E-01  8.00000000E-01  8.50000000E-01  8.50000000E-01  8.50000000E-01
  8.00000000E-01  8.50000000E-01  8.50000000E-01  8.50000000E-01  8.00000000E-01
  8.50000000E-01  8.50000000E-01  8.50000000E-01  8.00000000E-01  8.50000000E-01
  8.50000000E-01  8.50000000E-01  8.00000000E-01  8.50000000E-01  8.50000000E-01
  8.50000000E-01  8.00000000E-01  8.50000000E-01  8.50000000E-01  8.50000000E-01
  8.00000000E-01  8.50000000E-01  8.50000000E-01  8.50000000E-01  8.00000000E-01
  8.50000000E-01  8.50000000E-01  8.50000000E-01  8.00000000E-01  8.50000000E-01
  8.50000000E-01  8.50000000E-01  8.00000000E-01  8.50000000E-01  8.50000000E-01
  8.50000000E-01  8.00000000E-01  8.50000000E-01  8.50000000E-01  8.50000000E-01
  8.00000000E-01  8.50000000E-01  8.50000000E-01  8.50000000E-01  8.00000000E-01
  8.50000000E-01  8.50000000E-01  8.50000000E-01  8.00000000E-01  8.50000000E-01
  8.50000000E-01  8.50000000E-01  8.00000000E-01  8.50000000E-01  8.50000000E-01
  8.50000000E-01  8.00000000E-01  8.50000000E-01  8.50000000E-01  8.50000000E-01
  8.00000000E-01  8.50000000E-01  8.50000000E-01  8.50000000E-01  8.00000000E-01
  8.50000000E-01  8.50000000E-01  8.50000000E-01  8.00000000E-01  8.50000000E-01
  8.50000000E-01  8.50000000E-01  8.00000000E-01  8.50000000E-01  8.50000000E-01
  8.50000000E-01  8.00000000E-01  8.50000000E-01  8.50000000E-01  8.50000000E-01
  8.00000000E-01  8.50000000E-01  8.50000000E-01  8.50000000E-01  8.00000000E-01
  8.50000000E-01  8.50000000E-01  8.50000000E-01  8.00000000E-01  8.50000000E-01
  8.50000000E-01  8.50000000E-01  8.00000000E-01  8.50000000E-01  8.50000000E-01
  8.50000000E-01  8.00000000E-01  8.50000000E-01  8.50000000E-01  8.50000000E-01
  8.00000000E-01  8.50000000E-01  8.50000000E-01  8.50000000E-01  8.00000000E-01
  8.50000000E-01  8.50000000E-01  8.50000000E-01  8.00000000E-01  8.50000000E-01
  8.50000000E-01  8.50000000E-01  8.00000000E-01  8.50000000E-01  8.50000000E-01
  8.50000000E-01  8.00000000E-01  8.50000000E-01  8.50000000E-01  8.50000000E-01
  8.00000000E-01  8.50000000E-01  8.50000000E-01  8.50000000E-01  8.00000000E-01
  8.50000000E-01  8.50000000E-01  8.50000000E-01  8.00000000E-01  8.50000000E-01
  8.50000000E-01  8.50000000E-01  8.00000000E-01  8.50000000E-01  8.50000000E-01
  8.50000000E-01  8.00000000E-01  8.50000000E-01  8.50000000E-01  8.50000000E-01
  8.00000000E-01  8.50000000E-01  8.50000000E-01  8.50000000E-01  8.00000000E-01
  8.50000000E-01  8.50000000E-01  8.50000000E-01  8.00000000E-01  8.50000000E-01
  8.50000000E-01  8.50000000E-01  8.00000000E-01  8.50000000E-01  8.50000000E-01
  8.50000000E-01  8.00000000E-01  8.50000000E-01  8.50000000E-01  8.50000000E-01
  8.00000000E-01  8.50000000E-01  8.50000000E-01  8.50000000E-01  8.00000000E-01
  8.50000000E-01  8.50000000E-01  8.50000000E-01  8.00000000E-01  8.50000000E-01
  8.50000000E-01  8.50000000E-01  8.00000000E-01  8.50000000E-01  8.50000000E-01
  8.50000000E-01  8.00000000E-01  8.50000000E-01  8.50000000E-01  8.50000000E-01
  8.00000000E-01  8.50000000E-01  8.50000000E-01  8.50000000E-01  8.00000000E-01
  8.50000000E-01  8.50000000E-01  8.50000000E-01  8.00000000E-01  8.50000000E-01
  8.50000000E-01  8.50000000E-01  8.00000000E-01  8.50000000E-01  8.50000000E-01
  8.50000000E-01  8.00000000E-01  8.50000000E-01  8.50000000E-01  8.50000000E-01
  8.00000000E-01  8.50000000E-01  8.50000000E-01  8.50000000E-01  8.00000000E-01
  8.50000000E-01  8.50000000E-01  8.50000000E-01  8.00000000E-01  8.50000000E-01
  8.50000000E-01  8.50000000E-01  8.00000000E-01  8.50000000E-01  8.50000000E-01
  8.50000000E-01  8.00000000E-01  8.50000000E-01  8.50000000E-01  8.50000000E-01
  8.00000000E-01  8.50000000E-01  8.50000000E-01  8.50000000E-01  8.00000000E-01
  8.50000000E-01  8.50000000E-01  8.50000000E-01  8.00000000E-01  8.50000000E-01
  8.50000000E-01  8.50000000E-01  8.00000000E-01  8.50000000E-01  8.50000000E-01
  8.50000000E-01  8.00000000E-01  8.50000000E-01  8.50000000E-01  8.50000000E-01
  8.00000000E-01  8.50000000E-01  8.50000000E-01  8.50000000E-01  8.00000000E-01
  8.50000000E-01  8.50000000E-01  8.50000000E-01  8.00000000E-01  8.50000000E-01
  8.50000000E-01  8.50000000E-01  8.00000000E-01  8.50000000E-01  8.50000000E-01
  8.50000000E-01  8.00000000E-01  8.50000000E-01  8.50000000E-01  8.50000000E-01
  8.00000000E-01  8.50000000E-01  8.50000000E-01  8.50000000E-01  8.00000000E-01
  8.50000000E-01  8.50000000E-01  8.50000000E-01  8.00000000E-01  8.50000000E-01
  8.50000000E-01  8.50000000E-01  8.00000000E-01  8.50000000E-01  8.50000000E-01
  8.50000000E-01  8.00000000E-01  8.50000000E-01  8.50000000E-01  8.50000000E-01
  8.00000000E-01  8.50000000E-01  8.50000000E-01  8.50000000E-01  8.00000000E-01
  8.50000000E-01  8.50000000E-01  8.50000000E-01  8.00000000E-01  8.50000000E-01
  8.50000000E-01  8.50000000E-01  8.00000000E-01  8.50000000E-01  8.50000000E-01
  8.50000000E-01  8.00000000E-01  8.50000000E-01  8.50000000E-01  8.50000000E-01
  8.00000000E-01  8.50000000E-01  8.50000000E-01  8.50000000E-01  8.00000000E-01
  8.50000000E-01  8.50000000E-01  8.50000000E-01  8.00000000E-01  8.50000000E-01
  8.50000000E-01  8.50000000E-01  8.00000000E-01  8.50000000E-01  8.50000000E-01
  8.50000000E-01  8.00000000E-01  8.50000000E-01  8.50000000E-01  8.50000000E-01
  8.00000000E-01  8.50000000E-01  8.50000000E-01  8.50000000E-01  8.00000000E-01
  8.50000000E-01  8.50000000E-01  8.50000000E-01  8.00000000E-01  8.50000000E-01
  8.50000000E-01  8.50000000E-01  8.00000000E-01  8.50000000E-01  8.50000000E-01
  8.50000000E-01  8.00000000E-01  8.50000000E-01  8.50000000E-01  8.50000000E-01
  8.00000000E-01  8.50000000E-01  8.50000000E-01  8.50000000E-01  8.00000000E-01
  8.50000000E-01  8.50000000E-01  8.50000000E-01  8.00000000E-01  8.50000000E-01
  8.50000000E-01  8.50000000E-01  8.00000000E-01  8.50000000E-01  8.50000000E-01
  8.50000000E-01  8.00000000E-01  8.50000000E-01  8.50000000E-01  8.50000000E-01
  8.00000000E-01  8.50000000E-01  8.50000000E-01  8.50000000E-01  8.00000000E-01
  8.50000000E-01  8.50000000E-01  8.50000000E-01  8.00000000E-01  8.50000000E-01
  8.50000000E-01  8.50000000E-01  8.00000000E-01  8.50000000E-01  8.50000000E-01
  8.50000000E-01  8.00000000E-01  8.50000000E-01  8.50000000E-01  8.50000000E-01
  8.00000000E-01  8.50000000E-01  8.50000000E-01  8.50000000E-01  8.00000000E-01
  8.50000000E-01  8.50000000E-01  8.50000000E-01  8.00000000E-01  8.50000000E-01
  8.50000000E-01  8.50000000E-01  8.00000000E-01  8.50000000E-01  8.50000000E-01
  8.50000000E-01  8.00000000E-01  8.50000000E-01  8.50000000E-01  8.50000000E-01
  8.00000000E-01  8.50000000E-01  8.50000000E-01  8.50000000E-01  8.00000000E-01
  8.50000000E-01  8.50000000E-01  8.50000000E-01  8.00000000E-01  8.50000000E-01
  8.50000000E-01  8.50000000E-01  8.00000000E-01  8.50000000E-01  8.50000000E-01
  8.50000000E-01  8.00000000E-01  8.50000000E-01  8.50000000E-01  8.50000000E-01
  8.00000000E-01  8.50000000E-01  8.50000000E-01  8.50000000E-01  8.00000000E-01
  8.50000000E-01  8.50000000E-01  8.50000000E-01  8.00000000E-01  8.50000000E-01
  8.50000000E-01  8.50000000E-01  8.00000000E-01  8.50000000E-01  8.50000000E-01
  8.50000000E-01  8.00000000E-01  8.50000000E-01  8.50000000E-01  8.50000000E-01
  8.00000000E-01  8.50000000E-01  8.50000000E-01  8.50000000E-01  8.00000000E-01
  8.50000000E-01  8.50000000E-01  8.50000000E-01  8.00000000E-01  8.50000000E-01
  8.50000000E-01  8.50000000E-01  8.00000000E-01  8.50000000E-01  8.50000000E-01
  8.50000000E-01  8.00000000E-01  8.50000000E-01  8.50000000E-01  8.50000000E-01
  8.00000000E-01  8.50000000E-01  8.50000000E-01  8.50000000E-01  8.00000000E-01
  8.50000000E-01  8.50000000E-01  8.50000000E-01  8.00000000E-01  8.50000000E-01
  8.50000000E-01  8.50000000E-01  8.00000000E-01  8.50000000E-01  8.50000000E-01
  8.50000000E-01  8.00000000E-01  8.50000000E-01  8.50000000E-01  8.50000000E-01
  8.00000000E-01  8.50000000E-01  8.50000000E-01  8.50000000E-01  8.00000000E-01
  8.50000000E-01  8.50000000E-01  8.50000000E-01  8.00000000E-01  8.50000000E-01
  8.50000000E-01  8.50000000E-01  8.00000000E-01  8.50000000E-01  8.50000000E-01
  8.50000000E-01  8.00000000E-01  8.50000000E-01  8.50000000E-01  8.50000000E-01
  8.00000000E-01  8.50000000E-01  8.50000000E-01  8.50000000E-01  8.00000000E-01
  8.50000000E-01  8.50000000E-01  8.50000000E-01  8.00000000E-01  8.50000000E-01
  8.50000000E-01  8.50000000E-01  8.00000000E-01  8.50000000E-01  8.50000000E-01
  8.50000000E-01  8.00000000E-01  8.50000000E-01  8.50000000E-01  8.50000000E-01
  8.00000000E-01  8.50000000E-01  8.50000000E-01  8.50000000E-01  8.00000000E-01
  8.50000000E-01  8.50000000E-01  8.50000000E-01  8.00000000E-01  8.50000000E-01
  8.50000000E-01  8.50000000E-01  8.00000000E-01  8.50000000E-01  8.50000000E-01
  8.50000000E-01  8.00000000E-01  8.50000000E-01  8.50000000E-01  8.50000000E-01
  8.00000000E-01  8.50000000E-01  8.50000000E-01  8.50000000E-01  8.00000000E-01
  8.50000000E-01  8.50000000E-01  8.50000000E-01  8.00000000E-01  8.50000000E-01
  8.50000000E-01  8.50000000E-01  8.00000000E-01  8.50000000E-01  8.50000000E-01
  8.50000000E-01  8.00000000E-01  8.50000000E-01  8.50000000E-01  8.50000000E-01
  8.00000000E-01  8.50000000E-01  8.50000000E-01  8.50000000E-01  8.00000000E-01
  8.50000000E-01  8.50000000E-01  8.50000000E-01  8.00000000E-01  8.50000000E-01
  8.50000000E-01  8.50000000E-01  8.00000000E-01  8.50000000E-01  8.50000000E-01
  8.50000000E-01  8.00000000E-01  8.50000000E-01  8.50000000E-01  8.50000000E-01
  8.00000000E-01  8.50000000E-01  8.50000000E-01  8.50000000E-01  8.00000000E-01
  8.50000000E-01  8.50000000E-01  8.50000000E-01  8.00000000E-01  8.50000000E-01
  8.50000000E-01  8.50000000E-01  8.00000000E-01  8.50000000E-01  8.50000000E-01
  8.50000000E-01  8.00000000E-01  8.50000000E-01  8.50000000E-01  8.50000000E-01
  8.00000000E-01  8.50000000E-01  8.50000000E-01  8.50000000E-01  8.00000000E-01
  8.50000000E-01  8.50000000E-01  8.50000000E-01  8.00000000E-01  8.50000000E-01
  8.50000000E-01  8.50000000E-01  8.00000000E-01  8.50000000E-01  8.50000000E-01
  8.50000000E-01  8.00000000E-01  8.50000000E-01  8.50000000E-01  8.50000000E-01
  8.00000000E-01  8.50000000E-01  8.50000000E-01  8.50000000E-01  8.00000000E-01
  8.50000000E-01  8.50000000E-01  8.50000000E-01  8.00000000E-01  8.50000000E-01
  8.50000000E-01  8.50000000E-01  8.00000000E-01  8.50000000E-01  8.50000000E-01
  8.50000000E-01  8.00000000E-01  8.50000000E-01  8.50000000E-01  8.50000000E-01
  8.00000000E-01  8.50000000E-01  8.50000000E-01  8.50000000E-01  8.00000000E-01
  8.50000000E-01  8.50000000E-01  8.50000000E-01  8.00000000E-01  8.50000000E-01
  8.50000000E-01  8.50000000E-01  8.00000000E-01  8.50000000E-01  8.50000000E-01
  8.50000000E-01  8.00000000E-01  8.50000000E-01  8.50000000E-01  8.50000000E-01
  8.00000000E-01  8.50000000E-01  8.50000000E-01  8.50000000E-01  8.00000000E-01
  8.50000000E-01  8.50000000E-01  8.50000000E-01  8.00000000E-01  8.50000000E-01
  8.50000000E-01  8.50000000E-01  8.00000000E-01  8.50000000E-01  8.50000000E-01
  8.50000000E-01  8.00000000E-01  8.50000000E-01  8.50000000E-01  8.50000000E-01
  8.00000000E-01  8.50000000E-01  8.50000000E-01  8.50000000E-01  8.00000000E-01
  8.50000000E-01  8.50000000E-01  8.50000000E-01  8.00000000E-01  8.50000000E-01
  8.50000000E-01  8.50000000E-01  8.00000000E-01  8.50000000E-01  8.50000000E-01
  8.50000000E-01  8.00000000E-01  8.50000000E-01  8.50000000E-01  8.50000000E-01
  8.00000000E-01  8.50000000E-01  8.50000000E-01  8.50000000E-01  8.00000000E-01
  8.50000000E-01  8.50000000E-01  8.50000000E-01  8.00000000E-01  8.50000000E-01
  8.50000000E-01  8.50000000E-01  8.00000000E-01  8.50000000E-01  8.50000000E-01
  8.50000000E-01  8.00000000E-01  8.50000000E-01  8.50000000E-01  8.50000000E-01
  8.00000000E-01  8.50000000E-01  8.50000000E-01  8.50000000E-01  8.00000000E-01
  8.50000000E-01  8.50000000E-01  8.50000000E-01  8.00000000E-01  8.50000000E-01
  8.50000000E-01  8.50000000E-01  8.00000000E-01  8.50000000E-01  8.50000000E-01
  8.50000000E-01  8.00000000E-01  8.50000000E-01  8.50000000E-01  8.50000000E-01
  8.00000000E-01  8.50000000E-01  8.50000000E-01  8.50000000E-01  8.00000000E-01
  8.50000000E-01  8.50000000E-01  8.50000000E-01  8.00000000E-01  8.50000000E-01
  8.50000000E-01  8.50000000E-01  8.00000000E-01  8.50000000E-01  8.50000000E-01
  8.50000000E-01  8.00000000E-01  8.50000000E-01  8.50000000E-01  8.50000000E-01
  8.00000000E-01  8.50000000E-01  8.50000000E-01  8.50000000E-01  8.00000000E-01
  8.50000000E-01  8.50000000E-01  8.50000000E-01  8.00000000E-01  8.50000000E-01
  8.50000000E-01  8.50000000E-01  8.00000000E-01  8.50000000E-01  8.50000000E-01
  8.50000000E-01  8.00000000E-01  8.50000000E-01  8.50000000E-01  8.50000000E-01
  8.00000000E-01  8.50000000E-01  8.50000000E-01  8.50000000E-01  8.00000000E-01
  8.50000000E-01  8.50000000E-01  8.50000000E-01  8.00000000E-01  8.50000000E-01
  8.50000000E-01  8.50000000E-01  8.00000000E-01  8.50000000E-01  8.50000000E-01
  8.50000000E-01  8.00000000E-01  8.50000000E-01  8.50000000E-01  8.50000000E-01
  8.00000000E-01  8.50000000E-01  8.50000000E-01  8.50000000E-01  8.00000000E-01
  8.50000000E-01  8.50000000E-01  8.50000000E-01  8.00000000E-01  8.50000000E-01
  8.50000000E-01  8.50000000E-01  8.00000000E-01  8.50000000E-01  8.50000000E-01
  8.50000000E-01  8.00000000E-01  8.50000000E-01  8.50000000E-01  8.50000000E-01
  8.00000000E-01  8.50000000E-01  8.50000000E-01  8.50000000E-01  8.00000000E-01
  8.50000000E-01  8.50000000E-01  8.50000000E-01  8.00000000E-01  8.50000000E-01
  8.50000000E-01  8.50000000E-01  8.00000000E-01  8.50000000E-01  8.50000000E-01
  8.50000000E-01  8.00000000E-01  8.50000000E-01  8.50000000E-01  8.50000000E-01
  8.00000000E-01  8.50000000E-01  8.50000000E-01  8.50000000E-01  8.00000000E-01
  8.50000000E-01  8.50000000E-01  8.50000000E-01  8.00000000E-01  8.50000000E-01
  8.50000000E-01  8.50000000E-01  8.00000000E-01  8.50000000E-01  8.50000000E-01
  8.50000000E-01  8.00000000E-01  8.50000000E-01  8.50000000E-01  8.50000000E-01
  8.00000000E-01  8.50000000E-01  8.50000000E-01  8.50000000E-01  8.00000000E-01
  8.50000000E-01  8.50000000E-01  8.50000000E-01  8.00000000E-01  8.50000000E-01
  8.50000000E-01  8.50000000E-01  8.00000000E-01  8.50000000E-01  8.50000000E-01
  8.50000000E-01  8.00000000E-01  8.50000000E-01  8.50000000E-01  8.50000000E-01
  8.00000000E-01  8.50000000E-01  8.50000000E-01  8.50000000E-01  8.00000000E-01
  8.50000000E-01  8.50000000E-01  8.50000000E-01  8.00000000E-01  8.50000000E-01
  8.50000000E-01  8.50000000E-01  8.00000000E-01  8.50000000E-01  8.50000000E-01
  8.50000000E-01  8.00000000E-01  8.50000000E-01  8.50000000E-01  8.50000000E-01
  8.00000000E-01  8.50000000E-01  8.50000000E-01  8.50000000E-01  8.00000000E-01
  8.50000000E-01  8.50000000E-01  8.50000000E-01  8.00000000E-01  8.50000000E-01
  8.50000000E-01  8.50000000E-01  8.00000000E-01  8.50000000E-01  8.50000000E-01
  8.50000000E-01  8.00000000E-01  8.50000000E-01  8.50000000E-01  8.50000000E-01
  8.00000000E-01  8.50000000E-01  8.50000000E-01  8.50000000E-01  8.00000000E-01
  8.50000000E-01  8.50000000E-01  8.50000000E-01  8.00000000E-01  8.50000000E-01
  8.50000000E-01  8.50000000E-01  8.00000000E-01  8.50000000E-01  8.50000000E-01
  8.50000000E-01  8.00000000E-01  8.50000000E-01  8.50000000E-01  8.50000000E-01
  8.00000000E-01  8.50000000E-01  8.50000000E-01  8.50000000E-01  8.00000000E-01
  8.50000000E-01  8.50000000E-01  8.50000000E-01  8.00000000E-01  8.50000000E-01
  8.50000000E-01  8.50000000E-01  8.00000000E-01  8.50000000E-01  8.50000000E-01
  8.50000000E-01  8.00000000E-01  8.50000000E-01  8.50000000E-01  8.50000000E-01
  8.00000000E-01  8.50000000E-01  8.50000000E-01  8.50000000E-01  8.00000000E-01
  8.50000000E-01  8.50000000E-01  8.50000000E-01  8.00000000E-01  8.50000000E-01
  8.50000000E-01  8.50000000E-01  8.00000000E-01  8.50000000E-01  8.50000000E-01
  8.50000000E-01  8.00000000E-01  8.50000000E-01  8.50000000E-01  8.50000000E-01
  8.00000000E-01  8.50000000E-01  8.50000000E-01  8.50000000E-01  8.00000000E-01
  8.50000000E-01  8.50000000E-01  8.50000000E-01  8.00000000E-01  8.50000000E-01
  8.50000000E-01  8.50000000E-01  8.00000000E-01  8.50000000E-01  8.50000000E-01
  8.50000000E-01  8.00000000E-01  8.50000000E-01  8.50000000E-01  8.50000000E-01
  8.00000000E-01  8.50000000E-01  8.50000000E-01  8.50000000E-01  8.00000000E-01
  8.50000000E-01  8.50000000E-01  8.50000000E-01  8.00000000E-01  8.50000000E-01
  8.50000000E-01  8.50000000E-01  8.00000000E-01  8.50000000E-01  8.50000000E-01
  8.50000000E-01  8.00000000E-01  8.50000000E-01  8.50000000E-01  8.50000000E-01
  8.00000000E-01  8.50000000E-01  8.50000000E-01  8.50000000E-01  8.00000000E-01
  8.50000000E-01  8.50000000E-01  8.50000000E-01  8.00000000E-01  8.50000000E-01
  8.50000000E-01  8.50000000E-01  8.00000000E-01  8.50000000E-01  8.50000000E-01
  8.50000000E-01  8.00000000E-01  8.50000000E-01  8.50000000E-01  8.50000000E-01
  8.00000000E-01  8.50000000E-01  8.50000000E-01  8.50000000E-01  8.00000000E-01
  8.50000000E-01  8.50000000E-01  8.50000000E-01  8.00000000E-01  8.50000000E-01
  8.50000000E-01  8.50000000E-01  8.00000000E-01  8.50000000E-01  8.50000000E-01
  8.50000000E-01  8.00000000E-01  8.50000000E-01  8.50000000E-01  8.50000000E-01
  8.00000000E-01  8.50000000E-01  8.50000000E-01  8.50000000E-01  8.00000000E-01
  8.50000000E-01  8.50000000E-01  8.50000000E-01  8.00000000E-01  8.50000000E-01
  8.50000000E-01  8.50000000E-01  8.00000000E-01  8.50000000E-01  8.50000000E-01
  8.50000000E-01  8.00000000E-01  8.50000000E-01  8.50000000E-01  8.50000000E-01
  8.00000000E-01  8.50000000E-01  8.50000000E-01  8.50000000E-01  8.00000000E-01
  8.50000000E-01  8.50000000E-01  8.50000000E-01  8.00000000E-01  8.50000000E-01
  8.50000000E-01  8.50000000E-01  8.00000000E-01  8.50000000E-01  8.50000000E-01
  8.50000000E-01  8.00000000E-01  8.50000000E-01  8.50000000E-01  8.50000000E-01
  8.00000000E-01  8.50000000E-01  8.50000000E-01  8.50000000E-01  8.00000000E-01
  8.50000000E-01  8.50000000E-01  8.50000000E-01  8.00000000E-01  8.50000000E-01
  8.50000000E-01  8.50000000E-01  8.00000000E-01  8.50000000E-01  8.50000000E-01
  8.50000000E-01  8.00000000E-01  8.50000000E-01  8.50000000E-01  8.50000000E-01
  8.00000000E-01  8.50000000E-01  8.50000000E-01  8.50000000E-01  8.00000000E-01
  8.50000000E-01  8.50000000E-01  8.50000000E-01  8.00000000E-01  8.50000000E-01
  8.50000000E-01  8.50000000E-01  8.00000000E-01  8.50000000E-01  8.50000000E-01
  8.50000000E-01  8.00000000E-01  8.50000000E-01  8.50000000E-01  8.50000000E-01
  8.00000000E-01  8.50000000E-01  8.50000000E-01  8.50000000E-01  8.00000000E-01
  8.50000000E-01  8.50000000E-01  8.50000000E-01  8.00000000E-01  8.50000000E-01
  8.50000000E-01  8.50000000E-01  8.00000000E-01  8.50000000E-01  8.50000000E-01
  8.50000000E-01  8.00000000E-01  8.50000000E-01  8.50000000E-01  8.50000000E-01
  8.00000000E-01  8.50000000E-01  8.50000000E-01  8.50000000E-01  8.00000000E-01
  8.50000000E-01  8.50000000E-01  8.50000000E-01  8.00000000E-01  8.50000000E-01
  8.50000000E-01  8.50000000E-01  8.00000000E-01  8.50000000E-01  8.50000000E-01
  8.50000000E-01  8.00000000E-01  8.50000000E-01  8.50000000E-01  8.50000000E-01
  8.00000000E-01  8.50000000E-01  8.50000000E-01  8.50000000E-01  8.00000000E-01
  8.50000000E-01  8.50000000E-01  8.50000000E-01  8.00000000E-01  8.50000000E-01
  8.50000000E-01  8.50000000E-01  8.00000000E-01  8.50000000E-01  8.50000000E-01
  8.50000000E-01  8.00000000E-01  8.50000000E-01  8.50000000E-01  8.50000000E-01
  8.00000000E-01  8.50000000E-01  8.50000000E-01  8.50000000E-01  8.00000000E-01
  8.50000000E-01  8.50000000E-01  8.50000000E-01  8.00000000E-01  8.50000000E-01
  8.50000000E-01  8.50000000E-01  8.00000000E-01  8.50000000E-01  8.50000000E-01
  8.50000000E-01  8.00000000E-01  8.50000000E-01  8.50000000E-01  8.50000000E-01
  8.00000000E-01  8.50000000E-01  8.50000000E-01  8.50000000E-01  8.00000000E-01
  8.50000000E-01  8.50000000E-01  8.50000000E-01  8.00000000E-01  8.50000000E-01
  8.50000000E-01  8.50000000E-01  8.00000000E-01  8.50000000E-01  8.50000000E-01
  8.50000000E-01  8.00000000E-01  8.50000000E-01  8.50000000E-01  8.50000000E-01
  8.00000000E-01  8.50000000E-01  8.50000000E-01  8.50000000E-01  8.00000000E-01
  8.50000000E-01  8.50000000E-01  8.50000000E-01  8.00000000E-01  8.50000000E-01
  8.50000000E-01  8.50000000E-01  8.00000000E-01  8.50000000E-01  8.50000000E-01
  8.50000000E-01  8.00000000E-01  8.50000000E-01  8.50000000E-01  8.50000000E-01
  8.00000000E-01  8.50000000E-01  8.50000000E-01  8.50000000E-01  8.00000000E-01
  8.50000000E-01  8.50000000E-01  8.50000000E-01  8.00000000E-01  8.50000000E-01
  8.50000000E-01  8.50000000E-01  8.00000000E-01  8.50000000E-01  8.50000000E-01
  8.50000000E-01  8.00000000E-01  8.50000000E-01  8.50000000E-01  8.50000000E-01
  8.00000000E-01  8.50000000E-01  8.50000000E-01  8.50000000E-01  8.00000000E-01
  8.50000000E-01  8.50000000E-01  8.50000000E-01  8.00000000E-01  8.50000000E-01
  8.50000000E-01  8.50000000E-01  8.00000000E-01  8.50000000E-01  8.50000000E-01
  8.50000000E-01  8.00000000E-01  8.50000000E-01  8.50000000E-01  8.50000000E-01
  8.00000000E-01  8.50000000E-01  8.50000000E-01  8.50000000E-01  8.00000000E-01
  8.50000000E-01  8.50000000E-01  8.50000000E-01  8.00000000E-01  8.50000000E-01
  8.50000000E-01  8.50000000E-01  8.00000000E-01  8.50000000E-01  8.50000000E-01
  8.50000000E-01  8.00000000E-01  8.50000000E-01  8.50000000E-01  8.50000000E-01
  8.00000000E-01  8.50000000E-01  8.50000000E-01  8.50000000E-01  8.00000000E-01
  8.50000000E-01  8.50000000E-01  8.50000000E-01  8.00000000E-01  8.50000000E-01
  8.50000000E-01  8.50000000E-01  8.00000000E-01  8.50000000E-01  8.50000000E-01
  8.50000000E-01  8.00000000E-01  8.50000000E-01  8.50000000E-01  8.50000000E-01
  8.00000000E-01  8.50000000E-01  8.50000000E-01  8.50000000E-01  8.00000000E-01
  8.50000000E-01  8.50000000E-01  8.50000000E-01  8.00000000E-01  8.50000000E-01
  8.50000000E-01  8.50000000E-01  8.00000000E-01  8.50000000E-01  8.50000000E-01
  8.50000000E-01  8.00000000E-01  8.50000000E-01  8.50000000E-01  8.50000000E-01
  8.00000000E-01  8.50000000E-01  8.50000000E-01  8.50000000E-01  8.00000000E-01
  8.50000000E-01  8.50000000E-01  8.50000000E-01  8.00000000E-01  8.50000000E-01
  8.50000000E-01  8.50000000E-01  8.00000000E-01  8.50000000E-01  8.50000000E-01
  8.50000000E-01  8.00000000E-01  8.50000000E-01  8.50000000E-01  8.50000000E-01
  8.00000000E-01  8.50000000E-01  8.50000000E-01  8.50000000E-01  8.00000000E-01
  8.50000000E-01  8.50000000E-01  8.50000000E-01  8.00000000E-01  8.50000000E-01
  8.50000000E-01  8.50000000E-01  8.00000000E-01  8.50000000E-01  8.50000000E-01
  8.50000000E-01  8.00000000E-01  8.50000000E-01  8.50000000E-01  8.50000000E-01
  8.00000000E-01  8.50000000E-01  8.50000000E-01  8.50000000E-01  8.00000000E-01
  8.50000000E-01  8.50000000E-01  8.50000000E-01  8.00000000E-01  8.50000000E-01
  8.50000000E-01  8.50000000E-01  8.00000000E-01  8.50000000E-01  8.50000000E-01
  8.50000000E-01  8.00000000E-01  8.50000000E-01  8.50000000E-01  8.50000000E-01
  8.00000000E-01  8.50000000E-01  8.50000000E-01  8.50000000E-01  8.00000000E-01
  8.50000000E-01  8.50000000E-01  8.50000000E-01  8.00000000E-01  8.50000000E-01
  8.50000000E-01  8.50000000E-01  8.00000000E-01  8.50000000E-01  8.50000000E-01
  8.50000000E-01  8.00000000E-01  8.50000000E-01  8.50000000E-01  8.50000000E-01
  8.00000000E-01  8.50000000E-01  8.50000000E-01  8.50000000E-01  8.00000000E-01
  8.50000000E-01  8.50000000E-01  8.50000000E-01  8.00000000E-01  8.50000000E-01
  8.50000000E-01  8.50000000E-01  8.00000000E-01  8.50000000E-01  8.50000000E-01
  8.50000000E-01  8.00000000E-01  8.50000000E-01  8.50000000E-01  8.50000000E-01
  8.00000000E-01  8.50000000E-01  8.50000000E-01  8.50000000E-01  8.00000000E-01
  8.50000000E-01  8.50000000E-01  8.50000000E-01  8.00000000E-01  8.50000000E-01
  8.50000000E-01  8.50000000E-01  8.00000000E-01  8.50000000E-01  8.50000000E-01
  8.50000000E-01  8.00000000E-01  8.50000000E-01  8.50000000E-01  8.50000000E-01
  8.00000000E-01  8.50000000E-01  8.50000000E-01  8.50000000E-01  8.00000000E-01
  8.50000000E-01  8.50000000E-01  8.50000000E-01  8.00000000E-01  8.50000000E-01
  8.50000000E-01  8.50000000E-01  8.00000000E-01  8.50000000E-01  8.50000000E-01
  8.50000000E-01  8.00000000E-01  8.50000000E-01  8.50000000E-01  8.50000000E-01
  8.00000000E-01  8.50000000E-01  8.50000000E-01  8.50000000E-01  8.00000000E-01
  8.50000000E-01  8.50000000E-01  8.50000000E-01  8.00000000E-01  8.50000000E-01
  8.50000000E-01  8.50000000E-01  8.00000000E-01  8.50000000E-01  8.50000000E-01
  8.50000000E-01  8.00000000E-01  8.50000000E-01  8.50000000E-01  8.50000000E-01
  8.00000000E-01  8.50000000E-01  8.50000000E-01  8.50000000E-01  8.00000000E-01
  8.50000000E-01  8.50000000E-01  8.50000000E-01  8.00000000E-01  8.50000000E-01
  8.50000000E-01  8.50000000E-01  8.00000000E-01  8.50000000E-01  8.50000000E-01
  8.50000000E-01  8.00000000E-01  8.50000000E-01  8.50000000E-01  8.50000000E-01
  8.00000000E-01  8.50000000E-01  8.50000000E-01  8.50000000E-01  8.00000000E-01
  8.50000000E-01  8.50000000E-01  8.50000000E-01  8.00000000E-01  8.50000000E-01
  8.50000000E-01  8.50000000E-01  8.00000000E-01  8.50000000E-01  8.50000000E-01
  8.50000000E-01  8.00000000E-01  8.50000000E-01  8.50000000E-01  8.50000000E-01
  8.00000000E-01  8.50000000E-01  8.50000000E-01  8.50000000E-01  8.00000000E-01
  8.50000000E-01  8.50000000E-01  8.50000000E-01  8.00000000E-01  8.50000000E-01
  8.50000000E-01  8.50000000E-01  8.00000000E-01  8.50000000E-01  8.50000000E-01
  8.50000000E-01  8.00000000E-01  8.50000000E-01  8.50000000E-01  8.50000000E-01
  8.00000000E-01  8.50000000E-01  8.50000000E-01  8.50000000E-01  8.00000000E-01
  8.50000000E-01  8.50000000E-01  8.50000000E-01  8.00000000E-01  8.50000000E-01
  8.50000000E-01  8.50000000E-01  8.00000000E-01  8.50000000E-01  8.50000000E-01
  8.50000000E-01  8.00000000E-01  8.50000000E-01  8.50000000E-01  8.50000000E-01
  8.00000000E-01  8.50000000E-01  8.50000000E-01  8.50000000E-01  8.00000000E-01
  8.50000000E-01  8.50000000E-01  8.50000000E-01  8.00000000E-01  8.50000000E-01
  8.50000000E-01  8.50000000E-01  8.00000000E-01  8.50000000E-01  8.50000000E-01
  8.50000000E-01  8.00000000E-01  8.50000000E-01  8.50000000E-01  8.50000000E-01
  8.00000000E-01  8.50000000E-01  8.50000000E-01  8.50000000E-01  8.00000000E-01
  8.50000000E-01  8.50000000E-01  8.50000000E-01  8.00000000E-01  8.50000000E-01
  8.50000000E-01  8.50000000E-01  8.00000000E-01  8.50000000E-01  8.50000000E-01
  8.50000000E-01  8.00000000E-01  8.50000000E-01  8.50000000E-01  8.50000000E-01
  8.00000000E-01  8.50000000E-01  8.50000000E-01  8.50000000E-01  8.00000000E-01
  8.50000000E-01  8.50000000E-01  8.50000000E-01  8.00000000E-01  8.50000000E-01
  8.50000000E-01  8.50000000E-01  8.00000000E-01  8.50000000E-01  8.50000000E-01
  8.50000000E-01  8.00000000E-01  8.50000000E-01  8.50000000E-01  8.50000000E-01
  8.00000000E-01  8.50000000E-01  8.50000000E-01  8.50000000E-01  8.00000000E-01
  8.50000000E-01  8.50000000E-01  8.50000000E-01  8.00000000E-01  8.50000000E-01
  8.50000000E-01  8.50000000E-01  8.00000000E-01  8.50000000E-01  8.50000000E-01
  8.50000000E-01  8.00000000E-01  8.50000000E-01  8.50000000E-01  8.50000000E-01
  8.00000000E-01  8.50000000E-01  8.50000000E-01  8.50000000E-01  8.00000000E-01
  8.50000000E-01  8.50000000E-01  8.50000000E-01  8.00000000E-01  8.50000000E-01
  8.50000000E-01  8.50000000E-01  8.00000000E-01  8.50000000E-01  8.50000000E-01
  8.50000000E-01  8.00000000E-01  8.50000000E-01  8.50000000E-01  8.50000000E-01
  8.00000000E-01  8.50000000E-01  8.50000000E-01  8.50000000E-01  8.00000000E-01
  8.50000000E-01  8.50000000E-01  8.50000000E-01  8.00000000E-01  8.50000000E-01
  8.50000000E-01  8.50000000E-01  8.00000000E-01  8.50000000E-01  8.50000000E-01
  8.50000000E-01  8.00000000E-01  8.50000000E-01  8.50000000E-01  8.50000000E-01
  8.00000000E-01  8.50000000E-01  8.50000000E-01  8.50000000E-01  8.00000000E-01
  8.50000000E-01  8.50000000E-01  8.50000000E-01  8.00000000E-01  8.50000000E-01
  8.50000000E-01  8.50000000E-01  8.00000000E-01  8.50000000E-01  8.50000000E-01
  8.50000000E-01  8.00000000E-01  8.50000000E-01  8.50000000E-01  8.50000000E-01
  8.00000000E-01  8.50000000E-01  8.50000000E-01  8.50000000E-01  8.00000000E-01
  8.50000000E-01  8.50000000E-01  8.50000000E-01  8.00000000E-01  8.50000000E-01
  8.50000000E-01  8.50000000E-01  8.00000000E-01  8.50000000E-01  8.50000000E-01
  8.50000000E-01  8.00000000E-01  8.50000000E-01  8.50000000E-01  8.50000000E-01
  8.00000000E-01  8.50000000E-01  8.50000000E-01  8.50000000E-01  8.00000000E-01
  8.50000000E-01  8.50000000E-01  8.50000000E-01  8.00000000E-01  8.50000000E-01
  8.50000000E-01  8.50000000E-01  8.00000000E-01  8.50000000E-01  8.50000000E-01
  8.50000000E-01  8.00000000E-01  8.50000000E-01  8.50000000E-01  8.50000000E-01
  8.00000000E-01  8.50000000E-01  8.50000000E-01  8.50000000E-01  8.00000000E-01
  8.50000000E-01  8.50000000E-01  8.50000000E-01  8.00000000E-01  8.50000000E-01
  8.50000000E-01  8.50000000E-01  8.00000000E-01  8.50000000E-01  8.50000000E-01
  8.50000000E-01  8.00000000E-01  8.50000000E-01  8.50000000E-01  8.50000000E-01
  8.00000000E-01  8.50000000E-01  8.50000000E-01  8.50000000E-01  8.00000000E-01
  8.50000000E-01  8.50000000E-01  8.50000000E-01  8.00000000E-01  8.50000000E-01
  8.50000000E-01  8.50000000E-01  8.00000000E-01  8.50000000E-01  8.50000000E-01
  8.50000000E-01  8.00000000E-01  8.50000000E-01  8.50000000E-01  8.50000000E-01
  8.00000000E-01  8.50000000E-01  8.50000000E-01  8.50000000E-01  8.00000000E-01
  8.50000000E-01  8.50000000E-01  8.50000000E-01  8.00000000E-01  8.50000000E-01
  8.50000000E-01  8.50000000E-01  8.00000000E-01  8.50000000E-01  8.50000000E-01
  8.50000000E-01  8.00000000E-01  8.50000000E-01  8.50000000E-01  8.50000000E-01
  8.00000000E-01  8.50000000E-01  8.50000000E-01  8.50000000E-01  8.00000000E-01
  8.50000000E-01  8.50000000E-01  8.50000000E-01  8.00000000E-01  8.50000000E-01
  8.50000000E-01  8.50000000E-01  8.00000000E-01  8.50000000E-01  8.50000000E-01
  8.50000000E-01  8.00000000E-01  8.50000000E-01  8.50000000E-01  8.50000000E-01
  8.00000000E-01  8.50000000E-01  8.50000000E-01  8.50000000E-01  8.00000000E-01
  8.50000000E-01  8.50000000E-01  8.50000000E-01  8.00000000E-01  8.50000000E-01
  8.50000000E-01  8.50000000E-01  8.00000000E-01  8.50000000E-01  8.50000000E-01
  8.50000000E-01  8.00000000E-01  8.50000000E-01  8.50000000E-01  8.50000000E-01
  8.00000000E-01  8.50000000E-01  8.50000000E-01  8.50000000E-01  8.00000000E-01
  8.50000000E-01  8.50000000E-01  8.50000000E-01  8.00000000E-01  8.50000000E-01
  8.50000000E-01  8.50000000E-01  8.00000000E-01  8.50000000E-01  8.50000000E-01
  8.50000000E-01  8.00000000E-01  8.50000000E-01  8.50000000E-01  8.50000000E-01
  8.00000000E-01  8.50000000E-01  8.50000000E-01  8.50000000E-01  8.00000000E-01
  8.50000000E-01  8.50000000E-01  8.50000000E-01  8.00000000E-01  8.50000000E-01
  8.50000000E-01  8.50000000E-01  8.00000000E-01  8.50000000E-01  8.50000000E-01
  8.50000000E-01  8.00000000E-01  8.50000000E-01  8.50000000E-01  8.50000000E-01
  8.00000000E-01  8.50000000E-01  8.50000000E-01  8.50000000E-01  8.00000000E-01
  8.50000000E-01  8.50000000E-01  8.50000000E-01  8.00000000E-01  8.50000000E-01
  8.50000000E-01  8.50000000E-01  8.00000000E-01  8.50000000E-01  8.50000000E-01
  8.50000000E-01  8.00000000E-01  8.50000000E-01  8.50000000E-01  8.50000000E-01
  8.00000000E-01  8.50000000E-01  8.50000000E-01  8.50000000E-01  8.00000000E-01
  8.50000000E-01  8.50000000E-01  8.50000000E-01  8.00000000E-01  8.50000000E-01
  8.50000000E-01  8.50000000E-01  8.00000000E-01  8.50000000E-01  8.50000000E-01
  8.50000000E-01  8.00000000E-01  8.50000000E-01  8.50000000E-01  8.50000000E-01
  8.00000000E-01  8.50000000E-01  8.50000000E-01  8.50000000E-01  8.00000000E-01
  8.50000000E-01  8.50000000E-01  8.50000000E-01  8.00000000E-01  8.50000000E-01
  8.50000000E-01  8.50000000E-01  8.00000000E-01  8.50000000E-01  8.50000000E-01
  8.50000000E-01  8.00000000E-01  8.50000000E-01  8.50000000E-01  8.50000000E-01
  8.00000000E-01  8.50000000E-01  8.50000000E-01  8.50000000E-01  8.00000000E-01
  8.50000000E-01  8.50000000E-01  8.50000000E-01  8.00000000E-01  8.50000000E-01
  8.50000000E-01  8.50000000E-01  8.00000000E-01  8.50000000E-01  8.50000000E-01
  8.50000000E-01  8.00000000E-01  8.50000000E-01  8.50000000E-01  8.50000000E-01
  8.00000000E-01  8.50000000E-01  8.50000000E-01  8.50000000E-01  8.00000000E-01
  8.50000000E-01  8.50000000E-01  8.50000000E-01  8.00000000E-01  8.50000000E-01
  8.50000000E-01  8.50000000E-01  8.00000000E-01  8.50000000E-01  8.50000000E-01
  8.50000000E-01  8.00000000E-01  8.50000000E-01  8.50000000E-01  8.50000000E-01
  8.00000000E-01  8.50000000E-01  8.50000000E-01  8.50000000E-01  8.00000000E-01
  8.50000000E-01  8.50000000E-01  8.50000000E-01  8.00000000E-01  8.50000000E-01
  8.50000000E-01  8.50000000E-01  8.00000000E-01  8.50000000E-01  8.50000000E-01
  8.50000000E-01  8.00000000E-01  8.50000000E-01  8.50000000E-01  8.50000000E-01
  8.00000000E-01  8.50000000E-01  8.50000000E-01  8.50000000E-01  8.00000000E-01
  8.50000000E-01  8.50000000E-01  8.50000000E-01  8.00000000E-01  8.50000000E-01
  8.50000000E-01  8.50000000E-01  8.00000000E-01  8.50000000E-01  8.50000000E-01
  8.50000000E-01  8.00000000E-01  8.50000000E-01  8.50000000E-01  8.50000000E-01
  8.00000000E-01  8.50000000E-01  8.50000000E-01  8.50000000E-01  8.00000000E-01
  8.50000000E-01  8.50000000E-01  8.50000000E-01  8.00000000E-01  8.50000000E-01
  8.50000000E-01  8.50000000E-01  8.00000000E-01  8.50000000E-01  8.50000000E-01
  8.50000000E-01  8.00000000E-01  8.50000000E-01  8.50000000E-01  8.50000000E-01
  8.00000000E-01  8.50000000E-01  8.50000000E-01  8.50000000E-01  8.00000000E-01
  8.50000000E-01  8.50000000E-01  8.50000000E-01  8.00000000E-01  8.50000000E-01
  8.50000000E-01  8.50000000E-01  8.00000000E-01  8.50000000E-01  8.50000000E-01
  8.50000000E-01  8.00000000E-01  8.50000000E-01  8.50000000E-01  8.50000000E-01
  8.00000000E-01  8.50000000E-01  8.50000000E-01  8.50000000E-01  8.00000000E-01
  8.50000000E-01  8.50000000E-01  8.50000000E-01  8.00000000E-01  8.50000000E-01
  8.50000000E-01  8.50000000E-01  8.00000000E-01  8.50000000E-01  8.50000000E-01
  8.50000000E-01  8.00000000E-01  8.50000000E-01  8.50000000E-01  8.50000000E-01
  8.00000000E-01  8.50000000E-01  8.50000000E-01  8.50000000E-01  8.00000000E-01
  8.50000000E-01  8.50000000E-01  8.50000000E-01  8.00000000E-01  8.50000000E-01
  8.50000000E-01  8.50000000E-01  8.00000000E-01  8.50000000E-01  8.50000000E-01
  8.50000000E-01  8.00000000E-01  8.50000000E-01  8.50000000E-01  8.50000000E-01
  8.00000000E-01  8.50000000E-01  8.50000000E-01  8.50000000E-01  8.00000000E-01
  8.50000000E-01  8.50000000E-01  8.50000000E-01  8.00000000E-01  8.50000000E-01
  8.50000000E-01  8.50000000E-01  8.00000000E-01  8.50000000E-01  8.50000000E-01
  8.50000000E-01  8.00000000E-01  8.50000000E-01  8.50000000E-01  8.50000000E-01
  8.00000000E-01  8.50000000E-01  8.50000000E-01  8.50000000E-01  8.00000000E-01
  8.50000000E-01  8.50000000E-01  8.50000000E-01  8.00000000E-01  8.50000000E-01
  8.50000000E-01  8.50000000E-01  8.00000000E-01  8.50000000E-01  8.50000000E-01
  8.50000000E-01  8.00000000E-01  8.50000000E-01  8.50000000E-01  8.50000000E-01
  8.00000000E-01  8.50000000E-01  8.50000000E-01  8.50000000E-01  8.00000000E-01
  8.50000000E-01  8.50000000E-01  8.50000000E-01  8.00000000E-01  8.50000000E-01
  8.50000000E-01  8.50000000E-01  8.00000000E-01  8.50000000E-01  8.50000000E-01
  8.50000000E-01  8.00000000E-01  8.50000000E-01  8.50000000E-01  8.50000000E-01
  8.00000000E-01  8.50000000E-01  8.50000000E-01  8.50000000E-01  8.00000000E-01
  8.50000000E-01  8.50000000E-01  8.50000000E-01  8.00000000E-01  8.50000000E-01
  8.50000000E-01  8.50000000E-01  8.00000000E-01  8.50000000E-01  8.50000000E-01
  8.50000000E-01  8.00000000E-01  8.50000000E-01  8.50000000E-01  8.50000000E-01
  8.00000000E-01  8.50000000E-01  8.50000000E-01  8.50000000E-01  8.00000000E-01
  8.50000000E-01  8.50000000E-01  8.50000000E-01  8.00000000E-01  8.50000000E-01
  8.50000000E-01  8.50000000E-01  8.00000000E-01  8.50000000E-01  8.50000000E-01
  8.50000000E-01  8.00000000E-01  8.50000000E-01  8.50000000E-01  8.50000000E-01
  8.00000000E-01  8.50000000E-01  8.50000000E-01  8.50000000E-01  8.00000000E-01
  8.50000000E-01  8.50000000E-01  8.50000000E-01  8.00000000E-01  8.50000000E-01
  8.50000000E-01  8.50000000E-01  8.00000000E-01  8.50000000E-01  8.50000000E-01
  8.50000000E-01  8.00000000E-01  8.50000000E-01  8.50000000E-01  8.50000000E-01
  8.00000000E-01  8.50000000E-01  8.50000000E-01  8.50000000E-01  8.00000000E-01
  8.50000000E-01  8.50000000E-01  8.50000000E-01  8.00000000E-01  8.50000000E-01
  8.50000000E-01  8.50000000E-01  8.00000000E-01  8.50000000E-01  8.50000000E-01
  8.50000000E-01  8.00000000E-01  8.50000000E-01  8.50000000E-01  8.50000000E-01
  8.00000000E-01  8.50000000E-01  8.50000000E-01  8.50000000E-01  8.00000000E-01
  8.50000000E-01  8.50000000E-01  8.50000000E-01  8.00000000E-01  8.50000000E-01
  8.50000000E-01  8.50000000E-01  8.00000000E-01  8.50000000E-01  8.50000000E-01
  8.50000000E-01  8.00000000E-01  8.50000000E-01  8.50000000E-01  8.50000000E-01
  8.00000000E-01  8.50000000E-01  8.50000000E-01  8.50000000E-01  8.00000000E-01
  8.50000000E-01  8.50000000E-01  8.50000000E-01  8.00000000E-01  8.50000000E-01
  8.50000000E-01  8.50000000E-01  8.00000000E-01  8.50000000E-01  8.50000000E-01
  8.50000000E-01  8.00000000E-01  8.50000000E-01  8.50000000E-01  8.50000000E-01
  8.00000000E-01  8.50000000E-01  8.50000000E-01  8.50000000E-01  8.00000000E-01
  8.50000000E-01  8.50000000E-01  8.50000000E-01  8.00000000E-01  8.50000000E-01
  8.50000000E-01  8.50000000E-01  8.00000000E-01  8.50000000E-01  8.50000000E-01
  8.50000000E-01  8.00000000E-01  8.50000000E-01  8.50000000E-01  8.50000000E-01
  8.00000000E-01  8.50000000E-01  8.50000000E-01  8.50000000E-01  8.00000000E-01
  8.50000000E-01  8.50000000E-01  8.50000000E-01  8.00000000E-01  8.50000000E-01
  8.50000000E-01  8.50000000E-01  8.00000000E-01  8.50000000E-01  8.50000000E-01
  8.50000000E-01  8.00000000E-01  8.50000000E-01  8.50000000E-01  8.50000000E-01
  8.00000000E-01  8.50000000E-01  8.50000000E-01  8.50000000E-01  8.00000000E-01
  8.50000000E-01  8.50000000E-01  8.50000000E-01  8.00000000E-01  8.50000000E-01
  8.50000000E-01  8.50000000E-01  8.00000000E-01  8.50000000E-01  8.50000000E-01
  8.50000000E-01  8.00000000E-01  8.50000000E-01  8.50000000E-01  8.50000000E-01
  8.00000000E-01  8.50000000E-01  8.50000000E-01  8.50000000E-01  8.00000000E-01
  8.50000000E-01  8.50000000E-01  8.50000000E-01  8.00000000E-01  8.50000000E-01
  8.50000000E-01  8.50000000E-01  8.00000000E-01  8.50000000E-01  8.50000000E-01
  8.50000000E-01  8.00000000E-01  8.50000000E-01  8.50000000E-01  8.50000000E-01
  8.00000000E-01  8.50000000E-01  8.50000000E-01  8.50000000E-01  8.00000000E-01
  8.50000000E-01  8.50000000E-01  8.50000000E-01  8.00000000E-01  8.50000000E-01
  8.50000000E-01  8.50000000E-01  8.00000000E-01  8.50000000E-01  8.50000000E-01
  8.50000000E-01  8.00000000E-01  8.50000000E-01  8.50000000E-01  8.50000000E-01
  8.00000000E-01  8.50000000E-01  8.50000000E-01  8.50000000E-01  8.00000000E-01
  8.50000000E-01  8.50000000E-01  8.50000000E-01  8.00000000E-01  8.50000000E-01
  8.50000000E-01  8.50000000E-01  8.00000000E-01  8.50000000E-01  8.50000000E-01
  8.50000000E-01  8.00000000E-01  8.50000000E-01  8.50000000E-01  8.50000000E-01
  8.00000000E-01  8.50000000E-01  8.50000000E-01  8.50000000E-01  8.00000000E-01
  8.50000000E-01  8.50000000E-01  8.50000000E-01  8.00000000E-01  8.50000000E-01
  8.50000000E-01  8.50000000E-01  8.00000000E-01  8.50000000E-01  8.50000000E-01
  8.50000000E-01  8.00000000E-01  8.50000000E-01  8.50000000E-01  8.50000000E-01
  8.00000000E-01  8.50000000E-01  8.50000000E-01  8.50000000E-01  8.00000000E-01
  8.50000000E-01  8.50000000E-01  8.50000000E-01  8.00000000E-01  8.50000000E-01
  8.50000000E-01  8.50000000E-01  8.00000000E-01  8.50000000E-01  8.50000000E-01
  8.50000000E-01  8.00000000E-01  8.50000000E-01  8.50000000E-01  8.50000000E-01
  8.00000000E-01  8.50000000E-01  8.50000000E-01  8.50000000E-01  8.00000000E-01
  8.50000000E-01  8.50000000E-01  8.50000000E-01  8.00000000E-01  8.50000000E-01
  8.50000000E-01  8.50000000E-01  8.00000000E-01  8.50000000E-01  8.50000000E-01
  8.50000000E-01  8.00000000E-01  8.50000000E-01  8.50000000E-01  8.50000000E-01
  8.00000000E-01  8.50000000E-01  8.50000000E-01  8.50000000E-01  8.00000000E-01
  8.50000000E-01  8.50000000E-01  8.50000000E-01  8.00000000E-01  8.50000000E-01
  8.50000000E-01  8.50000000E-01  8.00000000E-01  8.50000000E-01  8.50000000E-01
  8.50000000E-01  8.00000000E-01  8.50000000E-01  8.50000000E-01  8.50000000E-01
  8.00000000E-01  8.50000000E-01  8.50000000E-01  8.50000000E-01  8.00000000E-01
  8.50000000E-01  8.50000000E-01  8.50000000E-01  8.00000000E-01  8.50000000E-01
  8.50000000E-01  8.50000000E-01  8.00000000E-01  8.50000000E-01  8.50000000E-01
  8.50000000E-01  8.00000000E-01  8.50000000E-01  8.50000000E-01  8.50000000E-01
  8.00000000E-01  8.50000000E-01  8.50000000E-01  8.50000000E-01  8.00000000E-01
  8.50000000E-01  8.50000000E-01  8.50000000E-01  8.00000000E-01  8.50000000E-01
  8.50000000E-01  8.50000000E-01  8.00000000E-01  8.50000000E-01  8.50000000E-01
  8.50000000E-01  8.00000000E-01  8.50000000E-01  8.50000000E-01  8.50000000E-01
  8.00000000E-01  8.50000000E-01  8.50000000E-01  8.50000000E-01  8.00000000E-01
  8.50000000E-01  8.50000000E-01  8.50000000E-01  8.00000000E-01  8.50000000E-01
  8.50000000E-01  8.50000000E-01  8.00000000E-01  8.50000000E-01  8.50000000E-01
  8.50000000E-01  8.00000000E-01  8.50000000E-01  8.50000000E-01  8.50000000E-01
  8.00000000E-01  8.50000000E-01  8.50000000E-01  8.50000000E-01  8.00000000E-01
  8.50000000E-01  8.50000000E-01  8.50000000E-01  8.00000000E-01  8.50000000E-01
  8.50000000E-01  8.50000000E-01  8.00000000E-01  8.50000000E-01  8.50000000E-01
  8.50000000E-01  8.00000000E-01  8.50000000E-01  8.50000000E-01  8.50000000E-01
  8.00000000E-01  8.50000000E-01  8.50000000E-01  8.50000000E-01  8.00000000E-01
  8.50000000E-01  8.50000000E-01  8.50000000E-01  8.00000000E-01  8.50000000E-01
  8.50000000E-01  8.50000000E-01  8.00000000E-01  8.50000000E-01  8.50000000E-01
  8.50000000E-01  8.00000000E-01  8.50000000E-01  8.50000000E-01  8.50000000E-01
  8.00000000E-01  8.50000000E-01  8.50000000E-01  8.50000000E-01  8.00000000E-01
  8.50000000E-01  8.50000000E-01  8.50000000E-01  8.00000000E-01  8.50000000E-01
  8.50000000E-01  8.50000000E-01  8.00000000E-01  8.50000000E-01  8.50000000E-01
  8.50000000E-01  8.00000000E-01  8.50000000E-01  8.50000000E-01  8.50000000E-01
  8.00000000E-01  8.50000000E-01  8.50000000E-01  8.50000000E-01  8.00000000E-01
  8.50000000E-01  8.50000000E-01  8.50000000E-01  8.00000000E-01  8.50000000E-01
  8.50000000E-01  8.50000000E-01  8.00000000E-01  8.50000000E-01  8.50000000E-01
  8.50000000E-01  8.00000000E-01  8.50000000E-01  8.50000000E-01  8.50000000E-01
  8.00000000E-01  8.50000000E-01  8.50000000E-01  8.50000000E-01  8.00000000E-01
  8.50000000E-01  8.50000000E-01  8.50000000E-01  8.00000000E-01  8.50000000E-01
  8.50000000E-01  8.50000000E-01  8.00000000E-01  8.50000000E-01  8.50000000E-01
  8.50000000E-01  8.00000000E-01  8.50000000E-01  8.50000000E-01  8.50000000E-01
  8.00000000E-01  8.50000000E-01  8.50000000E-01  8.50000000E-01  8.00000000E-01
  8.50000000E-01  8.50000000E-01  8.50000000E-01  8.00000000E-01  8.50000000E-01
  8.50000000E-01  8.50000000E-01  8.00000000E-01  8.50000000E-01  8.50000000E-01
  8.50000000E-01  8.00000000E-01  8.50000000E-01  8.50000000E-01  8.50000000E-01
  8.00000000E-01  8.50000000E-01  8.50000000E-01  8.50000000E-01  8.00000000E-01
  8.50000000E-01  8.50000000E-01  8.50000000E-01  8.00000000E-01  8.50000000E-01
  8.50000000E-01  8.50000000E-01  8.00000000E-01  8.50000000E-01  8.50000000E-01
  8.50000000E-01  8.00000000E-01  8.50000000E-01  8.50000000E-01  8.50000000E-01
  8.00000000E-01  8.50000000E-01  8.50000000E-01  8.50000000E-01  8.00000000E-01
  8.50000000E-01  8.50000000E-01  8.50000000E-01  8.00000000E-01  8.50000000E-01
  8.50000000E-01  8.50000000E-01  8.00000000E-01  8.50000000E-01  8.50000000E-01
  8.50000000E-01  8.00000000E-01  8.50000000E-01  8.50000000E-01  8.50000000E-01
  8.00000000E-01  8.50000000E-01  8.50000000E-01  8.50000000E-01  8.00000000E-01
  8.50000000E-01  8.50000000E-01  8.50000000E-01  8.00000000E-01  8.50000000E-01
  8.50000000E-01  8.50000000E-01  8.00000000E-01  8.50000000E-01  8.50000000E-01
  8.50000000E-01  8.00000000E-01  8.50000000E-01  8.50000000E-01  8.50000000E-01
  8.00000000E-01  8.50000000E-01  8.50000000E-01  8.50000000E-01  8.00000000E-01
  8.50000000E-01  8.50000000E-01  8.50000000E-01  8.00000000E-01  8.50000000E-01
  8.50000000E-01  8.50000000E-01  8.00000000E-01  8.50000000E-01  8.50000000E-01
  8.50000000E-01  8.00000000E-01  8.50000000E-01  8.50000000E-01  8.50000000E-01
  8.00000000E-01  8.50000000E-01  8.50000000E-01  8.50000000E-01  8.00000000E-01
  8.50000000E-01  8.50000000E-01  8.50000000E-01  8.00000000E-01  8.50000000E-01
  8.50000000E-01  8.50000000E-01  8.00000000E-01  8.50000000E-01  8.50000000E-01
  8.50000000E-01  8.00000000E-01  8.50000000E-01  8.50000000E-01  8.50000000E-01
  8.00000000E-01  8.50000000E-01  8.50000000E-01  8.50000000E-01  8.00000000E-01
  8.50000000E-01  8.50000000E-01  8.50000000E-01  8.00000000E-01  8.50000000E-01
  8.50000000E-01  8.50000000E-01  8.00000000E-01  8.50000000E-01  8.50000000E-01
  8.50000000E-01  8.00000000E-01  8.50000000E-01  8.50000000E-01  8.50000000E-01
  8.00000000E-01  8.50000000E-01  8.50000000E-01  8.50000000E-01  8.00000000E-01
  8.50000000E-01  8.50000000E-01  8.50000000E-01  8.00000000E-01  8.50000000E-01
  8.50000000E-01  8.50000000E-01  8.00000000E-01  8.50000000E-01  8.50000000E-01
  8.50000000E-01  8.00000000E-01  8.50000000E-01  8.50000000E-01  8.50000000E-01
  8.00000000E-01  8.50000000E-01  8.50000000E-01  8.50000000E-01  8.00000000E-01
  8.50000000E-01  8.50000000E-01  8.50000000E-01  8.00000000E-01  8.50000000E-01
  8.50000000E-01  8.50000000E-01  8.00000000E-01  8.50000000E-01  8.50000000E-01
  8.50000000E-01  8.00000000E-01  8.50000000E-01  8.50000000E-01  8.50000000E-01
  8.00000000E-01  8.50000000E-01  8.50000000E-01  8.50000000E-01  8.00000000E-01
  8.50000000E-01  8.50000000E-01  8.50000000E-01  8.00000000E-01  8.50000000E-01
  8.50000000E-01  8.50000000E-01  8.00000000E-01  8.50000000E-01  8.50000000E-01
  8.50000000E-01  8.00000000E-01  8.50000000E-01  8.50000000E-01  8.50000000E-01
  8.00000000E-01  8.50000000E-01  8.50000000E-01  8.50000000E-01  8.00000000E-01
  8.50000000E-01  8.50000000E-01  8.50000000E-01  8.00000000E-01  8.50000000E-01
  8.50000000E-01  8.50000000E-01  8.00000000E-01  8.50000000E-01  8.50000000E-01
  8.50000000E-01  8.00000000E-01  8.50000000E-01  8.50000000E-01  8.50000000E-01
  8.00000000E-01  8.50000000E-01  8.50000000E-01  8.50000000E-01  8.00000000E-01
  8.50000000E-01  8.50000000E-01  8.50000000E-01  8.00000000E-01  8.50000000E-01
  8.50000000E-01  8.50000000E-01  8.00000000E-01  8.50000000E-01  8.50000000E-01
  8.50000000E-01  8.00000000E-01  8.50000000E-01  8.50000000E-01  8.50000000E-01
  8.00000000E-01  8.50000000E-01  8.50000000E-01  8.50000000E-01  8.00000000E-01
  8.50000000E-01  8.50000000E-01  8.50000000E-01  8.00000000E-01  8.50000000E-01
  8.50000000E-01  8.50000000E-01  8.00000000E-01  8.50000000E-01  8.50000000E-01
  8.50000000E-01  8.00000000E-01  8.50000000E-01  8.50000000E-01  8.50000000E-01
  8.00000000E-01  8.50000000E-01  8.50000000E-01  8.50000000E-01  8.00000000E-01
  8.50000000E-01  8.50000000E-01  8.50000000E-01  8.00000000E-01  8.50000000E-01
  8.50000000E-01  8.50000000E-01  8.00000000E-01  8.50000000E-01  8.50000000E-01
  8.50000000E-01  8.00000000E-01  8.50000000E-01  8.50000000E-01  8.50000000E-01
  8.00000000E-01  8.50000000E-01  8.50000000E-01  8.50000000E-01  8.00000000E-01
  8.50000000E-01  8.50000000E-01  8.50000000E-01  8.00000000E-01  8.50000000E-01
  8.50000000E-01  8.50000000E-01  8.00000000E-01  8.50000000E-01  8.50000000E-01
  8.50000000E-01  8.00000000E-01  8.50000000E-01  8.50000000E-01  8.50000000E-01
  8.00000000E-01  8.50000000E-01  8.50000000E-01  8.50000000E-01  8.00000000E-01
  8.50000000E-01  8.50000000E-01  8.50000000E-01  8.00000000E-01  8.50000000E-01
  8.50000000E-01  8.50000000E-01  8.00000000E-01  8.50000000E-01  8.50000000E-01
  8.50000000E-01  8.00000000E-01  8.50000000E-01  8.50000000E-01  8.50000000E-01
  8.00000000E-01  8.50000000E-01  8.50000000E-01  8.50000000E-01  8.00000000E-01
  8.50000000E-01  8.50000000E-01  8.50000000E-01  8.00000000E-01  8.50000000E-01
  8.50000000E-01  8.50000000E-01  8.00000000E-01  8.50000000E-01  8.50000000E-01
  8.50000000E-01  8.00000000E-01  8.50000000E-01  8.50000000E-01  8.50000000E-01
  8.00000000E-01  8.50000000E-01  8.50000000E-01  8.50000000E-01  8.00000000E-01
  8.50000000E-01  8.50000000E-01  8.50000000E-01  8.00000000E-01  8.50000000E-01
  8.50000000E-01  8.50000000E-01  8.00000000E-01  8.50000000E-01  8.50000000E-01
  8.50000000E-01  8.00000000E-01  8.50000000E-01  8.50000000E-01  8.50000000E-01
  8.00000000E-01  8.50000000E-01  8.50000000E-01  8.50000000E-01  8.00000000E-01
  8.50000000E-01  8.50000000E-01  8.50000000E-01  8.00000000E-01  8.50000000E-01
  8.50000000E-01  8.50000000E-01  8.00000000E-01  8.50000000E-01  8.50000000E-01
  8.50000000E-01  8.00000000E-01  8.50000000E-01  8.50000000E-01  8.50000000E-01
  8.00000000E-01  8.50000000E-01  8.50000000E-01  8.50000000E-01  8.00000000E-01
  8.50000000E-01  8.50000000E-01  8.50000000E-01  8.00000000E-01  8.50000000E-01
  8.50000000E-01  8.50000000E-01  8.00000000E-01  8.50000000E-01  8.50000000E-01
  8.50000000E-01  8.00000000E-01  8.50000000E-01  8.50000000E-01  8.50000000E-01
  8.00000000E-01  8.50000000E-01  8.50000000E-01  8.50000000E-01  8.00000000E-01
  8.50000000E-01  8.50000000E-01  8.50000000E-01  8.00000000E-01  8.50000000E-01
  8.50000000E-01  8.50000000E-01  8.00000000E-01  8.50000000E-01  8.50000000E-01
  8.50000000E-01  8.00000000E-01  8.50000000E-01  8.50000000E-01  8.50000000E-01
  8.00000000E-01  8.50000000E-01  8.50000000E-01  8.50000000E-01  8.00000000E-01
  8.50000000E-01  8.50000000E-01  8.50000000E-01  8.00000000E-01  8.50000000E-01
  8.50000000E-01  8.50000000E-01  8.00000000E-01  8.50000000E-01  8.50000000E-01
  8.50000000E-01  8.00000000E-01  8.50000000E-01  8.50000000E-01  8.50000000E-01
  8.00000000E-01  8.50000000E-01  8.50000000E-01  8.50000000E-01  8.00000000E-01
  8.50000000E-01  8.50000000E-01  8.50000000E-01  8.00000000E-01  8.50000000E-01
  8.50000000E-01  8.50000000E-01  8.00000000E-01  8.50000000E-01  8.50000000E-01
  8.50000000E-01  8.00000000E-01  8.50000000E-01  8.50000000E-01  8.50000000E-01
  8.00000000E-01  8.50000000E-01  8.50000000E-01  8.50000000E-01  8.00000000E-01
  8.50000000E-01  8.50000000E-01  8.50000000E-01  8.00000000E-01  8.50000000E-01
  8.50000000E-01  8.50000000E-01  8.00000000E-01  8.50000000E-01  8.50000000E-01
  8.50000000E-01  8.00000000E-01  8.50000000E-01  8.50000000E-01  8.50000000E-01
  8.00000000E-01  8.50000000E-01  8.50000000E-01  8.50000000E-01  8.00000000E-01
  8.50000000E-01  8.50000000E-01  8.50000000E-01  8.00000000E-01  8.50000000E-01
  8.50000000E-01  8.50000000E-01  8.00000000E-01  8.50000000E-01  8.50000000E-01
  8.50000000E-01  8.00000000E-01  8.50000000E-01  8.50000000E-01  8.50000000E-01
  8.00000000E-01  8.50000000E-01  8.50000000E-01  8.50000000E-01  8.00000000E-01
  8.50000000E-01  8.50000000E-01  8.50000000E-01  8.00000000E-01  8.50000000E-01
  8.50000000E-01  8.50000000E-01  8.00000000E-01  8.50000000E-01  8.50000000E-01
  8.50000000E-01  8.00000000E-01  8.50000000E-01  8.50000000E-01  8.50000000E-01
  8.00000000E-01  8.50000000E-01  8.50000000E-01  8.50000000E-01  8.00000000E-01
  8.50000000E-01  8.50000000E-01  8.50000000E-01  8.00000000E-01  8.50000000E-01
  8.50000000E-01  8.50000000E-01  8.00000000E-01  8.50000000E-01  8.50000000E-01
  8.50000000E-01  8.00000000E-01  8.50000000E-01  8.50000000E-01  8.50000000E-01
  8.00000000E-01  8.50000000E-01  8.50000000E-01  8.50000000E-01  8.00000000E-01
  8.50000000E-01  8.50000000E-01  8.50000000E-01  8.00000000E-01  8.50000000E-01
  8.50000000E-01  8.50000000E-01  8.00000000E-01  8.50000000E-01  8.50000000E-01
  8.50000000E-01  8.00000000E-01  8.50000000E-01  8.50000000E-01  8.50000000E-01
  8.00000000E-01  8.50000000E-01  8.50000000E-01  8.50000000E-01  8.00000000E-01
  8.50000000E-01  8.50000000E-01  8.50000000E-01  8.00000000E-01  8.50000000E-01
  8.50000000E-01  8.50000000E-01  8.00000000E-01  8.50000000E-01  8.50000000E-01
  8.50000000E-01  8.00000000E-01  8.50000000E-01  8.50000000E-01  8.50000000E-01
  8.00000000E-01  8.50000000E-01  8.50000000E-01  8.50000000E-01  8.00000000E-01
  8.50000000E-01  8.50000000E-01  8.50000000E-01  8.00000000E-01  8.50000000E-01
  8.50000000E-01  8.50000000E-01  8.00000000E-01  8.50000000E-01  8.50000000E-01
  8.50000000E-01  8.00000000E-01  8.50000000E-01  8.50000000E-01  8.50000000E-01
  8.00000000E-01  8.50000000E-01  8.50000000E-01  8.50000000E-01  8.00000000E-01
  8.50000000E-01  8.50000000E-01  8.50000000E-01  8.00000000E-01  8.50000000E-01
  8.50000000E-01  8.50000000E-01  8.00000000E-01  8.50000000E-01  8.50000000E-01
  8.50000000E-01  8.00000000E-01  8.50000000E-01  8.50000000E-01  8.50000000E-01
  8.00000000E-01  8.50000000E-01  8.50000000E-01  8.50000000E-01  8.00000000E-01
  8.50000000E-01  8.50000000E-01  8.50000000E-01  8.00000000E-01  8.50000000E-01
  8.50000000E-01  8.50000000E-01  8.00000000E-01  8.50000000E-01  8.50000000E-01
  8.50000000E-01  8.00000000E-01  8.50000000E-01  8.50000000E-01  8.50000000E-01
  8.00000000E-01  8.50000000E-01  8.50000000E-01  8.50000000E-01  8.00000000E-01
  8.50000000E-01  8.50000000E-01  8.50000000E-01  8.00000000E-01  8.50000000E-01
  8.50000000E-01  8.50000000E-01  8.00000000E-01  8.50000000E-01  8.50000000E-01
  8.50000000E-01  8.00000000E-01  8.50000000E-01  8.50000000E-01  8.50000000E-01
  8.00000000E-01  8.50000000E-01  8.50000000E-01  8.50000000E-01  8.00000000E-01
  8.50000000E-01  8.50000000E-01  8.50000000E-01  8.00000000E-01  8.50000000E-01
  8.50000000E-01  8.50000000E-01  8.00000000E-01  8.50000000E-01  8.50000000E-01
  8.50000000E-01  8.00000000E-01  8.50000000E-01  8.50000000E-01  8.50000000E-01
  8.00000000E-01  8.50000000E-01  8.50000000E-01  8.50000000E-01  8.00000000E-01
  8.50000000E-01  8.50000000E-01  8.50000000E-01  8.00000000E-01  8.50000000E-01
  8.50000000E-01  8.50000000E-01  8.00000000E-01  8.50000000E-01  8.50000000E-01
  8.50000000E-01  8.00000000E-01  8.50000000E-01  8.50000000E-01  8.50000000E-01
  8.00000000E-01  8.50000000E-01  8.50000000E-01  8.50000000E-01  8.00000000E-01
  8.50000000E-01  8.50000000E-01  8.50000000E-01  8.00000000E-01  8.50000000E-01
  8.50000000E-01  8.50000000E-01  8.00000000E-01  8.50000000E-01  8.50000000E-01
  8.50000000E-01  8.00000000E-01  8.50000000E-01  8.50000000E-01  8.50000000E-01
  8.00000000E-01  8.50000000E-01  8.50000000E-01  8.50000000E-01  8.00000000E-01
  8.50000000E-01  8.50000000E-01  8.50000000E-01  8.00000000E-01  8.50000000E-01
  8.50000000E-01  8.50000000E-01  8.00000000E-01  8.50000000E-01  8.50000000E-01
  8.50000000E-01  8.00000000E-01  8.50000000E-01  8.50000000E-01  8.50000000E-01
  8.00000000E-01  8.50000000E-01  8.50000000E-01  8.50000000E-01  8.00000000E-01
  8.50000000E-01  8.50000000E-01  8.50000000E-01  8.00000000E-01  8.50000000E-01
  8.50000000E-01  8.50000000E-01  8.00000000E-01  8.50000000E-01  8.50000000E-01
  8.50000000E-01  8.00000000E-01  8.50000000E-01  8.50000000E-01  8.50000000E-01
  8.00000000E-01  8.50000000E-01  8.50000000E-01  8.50000000E-01  8.00000000E-01
  8.50000000E-01  8.50000000E-01  8.50000000E-01  8.00000000E-01  8.50000000E-01
  8.50000000E-01  8.50000000E-01  8.00000000E-01  8.50000000E-01  8.50000000E-01
  8.50000000E-01  8.00000000E-01  8.50000000E-01  8.50000000E-01  8.50000000E-01
  8.00000000E-01  8.50000000E-01  8.50000000E-01  8.50000000E-01  8.00000000E-01
  8.50000000E-01  8.50000000E-01  8.50000000E-01  8.00000000E-01  8.50000000E-01
  8.50000000E-01  8.50000000E-01  8.00000000E-01  8.50000000E-01  8.50000000E-01
  8.50000000E-01  8.00000000E-01  8.50000000E-01  8.50000000E-01  8.50000000E-01
  8.00000000E-01  8.50000000E-01  8.50000000E-01  8.50000000E-01  8.00000000E-01
  8.50000000E-01  8.50000000E-01  8.50000000E-01  8.00000000E-01  8.50000000E-01
  8.50000000E-01  8.50000000E-01  8.00000000E-01  8.50000000E-01  8.50000000E-01
  8.50000000E-01  8.00000000E-01  8.50000000E-01  8.50000000E-01  8.50000000E-01
  8.00000000E-01  8.50000000E-01  8.50000000E-01  8.50000000E-01  8.00000000E-01
  8.50000000E-01  8.50000000E-01  8.50000000E-01  8.00000000E-01  8.50000000E-01
  8.50000000E-01  8.50000000E-01  8.00000000E-01  8.50000000E-01  8.50000000E-01
  8.50000000E-01  8.00000000E-01  8.50000000E-01  8.50000000E-01  8.50000000E-01
  8.00000000E-01  8.50000000E-01  8.50000000E-01  8.50000000E-01  8.00000000E-01
  8.50000000E-01  8.50000000E-01  8.50000000E-01  8.00000000E-01  8.50000000E-01
  8.50000000E-01  8.50000000E-01  8.00000000E-01  8.50000000E-01  8.50000000E-01
  8.50000000E-01  8.00000000E-01  8.50000000E-01  8.50000000E-01  8.50000000E-01
  8.00000000E-01  8.50000000E-01  8.50000000E-01  8.50000000E-01  8.00000000E-01
  8.50000000E-01  8.50000000E-01  8.50000000E-01  8.00000000E-01  8.50000000E-01
  8.50000000E-01  8.50000000E-01  8.00000000E-01  8.50000000E-01  8.50000000E-01
  8.50000000E-01  8.00000000E-01  8.50000000E-01  8.50000000E-01  8.50000000E-01
  8.00000000E-01  8.50000000E-01  8.50000000E-01  8.50000000E-01  8.00000000E-01
  8.50000000E-01  8.50000000E-01  8.50000000E-01  8.00000000E-01  8.50000000E-01
  8.50000000E-01  8.50000000E-01  8.00000000E-01  8.50000000E-01  8.50000000E-01
  8.50000000E-01  8.00000000E-01  8.50000000E-01  8.50000000E-01  8.50000000E-01
  8.00000000E-01  8.50000000E-01  8.50000000E-01  8.50000000E-01  8.00000000E-01
  8.50000000E-01  8.50000000E-01  8.50000000E-01  8.00000000E-01  8.50000000E-01
  8.50000000E-01  8.50000000E-01  8.00000000E-01  8.50000000E-01  8.50000000E-01
  8.50000000E-01  8.00000000E-01  8.50000000E-01  8.50000000E-01  8.50000000E-01
  8.00000000E-01  8.50000000E-01  8.50000000E-01  8.50000000E-01  8.00000000E-01
  8.50000000E-01  8.50000000E-01  8.50000000E-01  8.00000000E-01  8.50000000E-01
  8.50000000E-01  8.50000000E-01  8.00000000E-01  8.50000000E-01  8.50000000E-01
  8.50000000E-01  8.00000000E-01  8.50000000E-01  8.50000000E-01  8.50000000E-01
  8.00000000E-01  8.50000000E-01  8.50000000E-01  8.50000000E-01  8.00000000E-01
  8.50000000E-01  8.50000000E-01  8.50000000E-01  8.00000000E-01  8.50000000E-01
  8.50000000E-01  8.50000000E-01  8.00000000E-01  8.50000000E-01  8.50000000E-01
  8.50000000E-01  8.00000000E-01  8.50000000E-01  8.50000000E-01  8.50000000E-01
  8.00000000E-01  8.50000000E-01  8.50000000E-01  8.50000000E-01  8.00000000E-01
  8.50000000E-01  8.50000000E-01  8.50000000E-01  8.00000000E-01  8.50000000E-01
  8.50000000E-01  8.50000000E-01  8.00000000E-01  8.50000000E-01  8.50000000E-01
  8.50000000E-01  8.00000000E-01  8.50000000E-01  8.50000000E-01  8.50000000E-01
  8.00000000E-01  8.50000000E-01  8.50000000E-01  8.50000000E-01  8.00000000E-01
  8.50000000E-01  8.50000000E-01  8.50000000E-01  8.00000000E-01  8.50000000E-01
  8.50000000E-01  8.50000000E-01  8.00000000E-01  8.50000000E-01  8.50000000E-01
  8.50000000E-01  8.00000000E-01  8.50000000E-01  8.50000000E-01  8.50000000E-01
  8.00000000E-01  8.50000000E-01  8.50000000E-01  8.50000000E-01  8.00000000E-01
  8.50000000E-01  8.50000000E-01  8.50000000E-01  8.00000000E-01  8.50000000E-01
  8.50000000E-01  8.50000000E-01  8.00000000E-01  8.50000000E-01  8.50000000E-01
  8.50000000E-01  8.00000000E-01  8.50000000E-01  8.50000000E-01  8.50000000E-01
  8.00000000E-01  8.50000000E-01  8.50000000E-01  8.50000000E-01  8.00000000E-01
  8.50000000E-01  8.50000000E-01  8.50000000E-01  8.00000000E-01  8.50000000E-01
  8.50000000E-01  8.50000000E-01  8.00000000E-01  8.50000000E-01  8.50000000E-01
  8.50000000E-01  8.00000000E-01  8.50000000E-01  8.50000000E-01  8.50000000E-01
  8.00000000E-01  8.50000000E-01  8.50000000E-01  8.50000000E-01  8.00000000E-01
  8.50000000E-01  8.50000000E-01  8.50000000E-01  8.00000000E-01  8.50000000E-01
  8.50000000E-01  8.50000000E-01  8.00000000E-01  8.50000000E-01  8.50000000E-01
  8.50000000E-01  8.00000000E-01  8.50000000E-01  8.50000000E-01  8.50000000E-01
  8.00000000E-01  8.50000000E-01  8.50000000E-01  8.50000000E-01  8.00000000E-01
  8.50000000E-01  8.50000000E-01  8.50000000E-01  8.00000000E-01  8.50000000E-01
  8.50000000E-01  8.50000000E-01  8.00000000E-01  8.50000000E-01  8.50000000E-01
  8.50000000E-01  8.00000000E-01  8.50000000E-01  8.50000000E-01  8.50000000E-01
  8.00000000E-01  8.50000000E-01  8.50000000E-01  8.50000000E-01  8.00000000E-01
  8.50000000E-01  8.50000000E-01  8.50000000E-01  8.00000000E-01  8.50000000E-01
  8.50000000E-01  8.50000000E-01  8.00000000E-01  8.50000000E-01  8.50000000E-01
  8.50000000E-01  8.00000000E-01  8.50000000E-01  8.50000000E-01  8.50000000E-01
  8.00000000E-01  8.50000000E-01  8.50000000E-01  8.50000000E-01  8.00000000E-01
  8.50000000E-01  8.50000000E-01  8.50000000E-01  8.00000000E-01  8.50000000E-01
  8.50000000E-01  8.50000000E-01  8.00000000E-01  8.50000000E-01  8.50000000E-01
  8.50000000E-01  8.00000000E-01  8.50000000E-01  8.50000000E-01  8.50000000E-01
  8.00000000E-01  8.50000000E-01  8.50000000E-01  8.50000000E-01  8.00000000E-01
  8.50000000E-01  8.50000000E-01  8.50000000E-01  8.00000000E-01  8.50000000E-01
  8.50000000E-01  8.50000000E-01  8.00000000E-01  8.50000000E-01  8.50000000E-01
  8.50000000E-01  8.00000000E-01  8.50000000E-01  8.50000000E-01  8.50000000E-01
  8.00000000E-01  8.50000000E-01  8.50000000E-01  8.50000000E-01  8.00000000E-01
  8.50000000E-01  8.50000000E-01  8.50000000E-01  8.00000000E-01  8.50000000E-01
  8.50000000E-01  8.50000000E-01  8.00000000E-01  8.50000000E-01  8.50000000E-01
  8.50000000E-01  8.00000000E-01  8.50000000E-01  8.50000000E-01  8.50000000E-01
  8.00000000E-01  8.50000000E-01  8.50000000E-01  8.50000000E-01  8.00000000E-01
  8.50000000E-01  8.50000000E-01  8.50000000E-01  8.00000000E-01  8.50000000E-01
  8.50000000E-01  8.50000000E-01  8.00000000E-01  8.50000000E-01  8.50000000E-01
  8.50000000E-01  8.00000000E-01  8.50000000E-01  8.50000000E-01  8.50000000E-01
  8.00000000E-01  8.50000000E-01  8.50000000E-01  8.50000000E-01  8.00000000E-01
  8.50000000E-01  8.50000000E-01  8.50000000E-01  8.00000000E-01  8.50000000E-01
  8.50000000E-01  8.50000000E-01  8.00000000E-01  8.50000000E-01  8.50000000E-01
  8.50000000E-01  8.00000000E-01  8.50000000E-01  8.50000000E-01  8.50000000E-01
  8.00000000E-01  8.50000000E-01  8.50000000E-01  8.50000000E-01  8.00000000E-01
  8.50000000E-01  8.50000000E-01  8.50000000E-01  8.00000000E-01  8.50000000E-01
  8.50000000E-01  8.50000000E-01  8.00000000E-01  8.50000000E-01  8.50000000E-01
  8.50000000E-01  8.00000000E-01  8.50000000E-01  8.50000000E-01  8.50000000E-01
  8.00000000E-01  8.50000000E-01  8.50000000E-01  8.50000000E-01  8.00000000E-01
  8.50000000E-01  8.50000000E-01  8.50000000E-01  8.00000000E-01  8.50000000E-01
  8.50000000E-01  8.50000000E-01  8.00000000E-01  8.50000000E-01  8.50000000E-01
  8.50000000E-01  8.00000000E-01  8.50000000E-01  8.50000000E-01  8.50000000E-01
  8.00000000E-01  8.50000000E-01  8.50000000E-01  8.50000000E-01  8.00000000E-01
  8.50000000E-01  8.50000000E-01  8.50000000E-01  8.00000000E-01  8.50000000E-01
  8.50000000E-01  8.50000000E-01  8.00000000E-01  8.50000000E-01  8.50000000E-01
  8.50000000E-01  8.00000000E-01  8.50000000E-01  8.50000000E-01  8.50000000E-01
  8.00000000E-01  8.50000000E-01  8.50000000E-01  8.50000000E-01  8.00000000E-01
  8.50000000E-01  8.50000000E-01  8.50000000E-01  8.00000000E-01  8.50000000E-01
  8.50000000E-01  8.50000000E-01  8.00000000E-01  8.50000000E-01  8.50000000E-01
  8.50000000E-01  8.00000000E-01  8.50000000E-01  8.50000000E-01  8.50000000E-01
  8.00000000E-01  8.50000000E-01  8.50000000E-01  8.50000000E-01  8.00000000E-01
  8.50000000E-01  8.50000000E-01  8.50000000E-01  8.00000000E-01  8.50000000E-01
  8.50000000E-01  8.50000000E-01  8.00000000E-01  8.50000000E-01  8.50000000E-01
  8.50000000E-01  8.00000000E-01  8.50000000E-01  8.50000000E-01  8.50000000E-01
  8.00000000E-01  8.50000000E-01  8.50000000E-01  8.50000000E-01  8.00000000E-01
  8.50000000E-01  8.50000000E-01  8.50000000E-01  8.00000000E-01  8.50000000E-01
  8.50000000E-01  8.50000000E-01  8.00000000E-01  8.50000000E-01  8.50000000E-01
  8.50000000E-01  8.00000000E-01  8.50000000E-01  8.50000000E-01  8.50000000E-01
  8.00000000E-01  8.50000000E-01  8.50000000E-01  8.50000000E-01  8.00000000E-01
  8.50000000E-01  8.50000000E-01  8.50000000E-01  8.00000000E-01  8.50000000E-01
  8.50000000E-01  8.50000000E-01  8.00000000E-01  8.50000000E-01  8.50000000E-01
  8.50000000E-01  8.00000000E-01  8.50000000E-01  8.50000000E-01  8.50000000E-01
  8.00000000E-01  8.50000000E-01  8.50000000E-01  8.50000000E-01  8.00000000E-01
  8.50000000E-01  8.50000000E-01  8.50000000E-01  8.00000000E-01  8.50000000E-01
  8.50000000E-01  8.50000000E-01  8.00000000E-01  8.50000000E-01  8.50000000E-01
  8.50000000E-01  8.00000000E-01  8.50000000E-01  8.50000000E-01  8.50000000E-01
  8.00000000E-01  8.50000000E-01  8.50000000E-01  8.50000000E-01  8.00000000E-01
  8.50000000E-01  8.50000000E-01  8.50000000E-01  8.00000000E-01  8.50000000E-01
  8.50000000E-01  8.50000000E-01  8.00000000E-01  8.50000000E-01  8.50000000E-01
  8.50000000E-01  8.00000000E-01  8.50000000E-01  8.50000000E-01  8.50000000E-01
  8.00000000E-01  8.50000000E-01  8.50000000E-01  8.50000000E-01  8.00000000E-01
  8.50000000E-01  8.50000000E-01  8.50000000E-01  8.00000000E-01  8.50000000E-01
  8.50000000E-01  8.50000000E-01  8.00000000E-01  8.50000000E-01  8.50000000E-01
  8.50000000E-01  8.00000000E-01  8.50000000E-01  8.50000000E-01  8.50000000E-01
  8.00000000E-01  8.50000000E-01  8.50000000E-01  8.50000000E-01  8.00000000E-01
  8.50000000E-01  8.50000000E-01  8.50000000E-01  8.00000000E-01  8.50000000E-01
  8.50000000E-01  8.50000000E-01  8.00000000E-01  8.50000000E-01  8.50000000E-01
  8.50000000E-01  8.00000000E-01  8.50000000E-01  8.50000000E-01  8.50000000E-01
  8.00000000E-01  8.50000000E-01  8.50000000E-01  8.50000000E-01  8.00000000E-01
  8.50000000E-01  8.50000000E-01  8.50000000E-01  8.00000000E-01  8.50000000E-01
  8.50000000E-01  8.50000000E-01  8.00000000E-01  8.50000000E-01  8.50000000E-01
  8.50000000E-01  8.00000000E-01  8.50000000E-01  8.50000000E-01  8.50000000E-01
  8.00000000E-01  8.50000000E-01  8.50000000E-01  8.50000000E-01  8.00000000E-01
  8.50000000E-01  8.50000000E-01  8.50000000E-01  8.00000000E-01  8.50000000E-01
  8.50000000E-01  8.50000000E-01  8.00000000E-01  8.50000000E-01  8.50000000E-01
  8.50000000E-01  8.00000000E-01  8.50000000E-01  8.50000000E-01  8.50000000E-01
  8.00000000E-01  8.50000000E-01  8.50000000E-01  8.50000000E-01  8.00000000E-01
  8.50000000E-01  8.50000000E-01  8.50000000E-01  8.00000000E-01  8.50000000E-01
  8.50000000E-01  8.50000000E-01  8.00000000E-01  8.50000000E-01  8.50000000E-01
  8.50000000E-01  8.00000000E-01  8.50000000E-01  8.50000000E-01  8.50000000E-01
  8.00000000E-01  8.50000000E-01  8.50000000E-01  8.50000000E-01  8.00000000E-01
  8.50000000E-01  8.50000000E-01  8.50000000E-01  8.00000000E-01  8.50000000E-01
  8.50000000E-01  8.50000000E-01  8.00000000E-01  8.50000000E-01  8.50000000E-01
  8.50000000E-01  8.00000000E-01  8.50000000E-01  8.50000000E-01  8.50000000E-01
  8.00000000E-01  8.50000000E-01  8.50000000E-01  8.50000000E-01  8.00000000E-01
  8.50000000E-01  8.50000000E-01  8.50000000E-01  8.00000000E-01  8.50000000E-01
  8.50000000E-01  8.50000000E-01  8.00000000E-01  8.50000000E-01  8.50000000E-01
  8.50000000E-01  8.00000000E-01  8.50000000E-01  8.50000000E-01  8.50000000E-01
  8.00000000E-01  8.50000000E-01  8.50000000E-01  8.50000000E-01  8.00000000E-01
  8.50000000E-01  8.50000000E-01  8.50000000E-01  8.00000000E-01  8.50000000E-01
  8.50000000E-01  8.50000000E-01  8.00000000E-01  8.50000000E-01  8.50000000E-01
  8.50000000E-01  8.00000000E-01  8.50000000E-01  8.50000000E-01  8.50000000E-01
  8.00000000E-01  8.50000000E-01  8.50000000E-01  8.50000000E-01  8.00000000E-01
  8.50000000E-01  8.50000000E-01  8.50000000E-01  8.00000000E-01  8.50000000E-01
  8.50000000E-01  8.50000000E-01  8.00000000E-01  8.50000000E-01  8.50000000E-01
  8.50000000E-01  8.00000000E-01  8.50000000E-01  8.50000000E-01  8.50000000E-01
  8.00000000E-01  8.50000000E-01  8.50000000E-01  8.50000000E-01  8.00000000E-01
  8.50000000E-01  8.50000000E-01  8.50000000E-01  8.00000000E-01  8.50000000E-01
  8.50000000E-01  8.50000000E-01  8.00000000E-01  8.50000000E-01  8.50000000E-01
  8.50000000E-01  8.00000000E-01  8.50000000E-01  8.50000000E-01  8.50000000E-01
  8.00000000E-01  8.50000000E-01  8.50000000E-01  8.50000000E-01  8.00000000E-01
  8.50000000E-01  8.50000000E-01  8.50000000E-01  8.00000000E-01  8.50000000E-01
  8.50000000E-01  8.50000000E-01  8.00000000E-01  8.50000000E-01  8.50000000E-01
  8.50000000E-01  8.00000000E-01  8.50000000E-01  8.50000000E-01  8.50000000E-01
  8.00000000E-01  8.50000000E-01  8.50000000E-01  8.50000000E-01  8.00000000E-01
  8.50000000E-01  8.50000000E-01  8.50000000E-01  8.00000000E-01  8.50000000E-01
  8.50000000E-01  8.50000000E-01  8.00000000E-01  8.50000000E-01  8.50000000E-01
  8.50000000E-01  8.00000000E-01  8.50000000E-01  8.50000000E-01  8.50000000E-01
  8.00000000E-01  8.50000000E-01  8.50000000E-01  8.50000000E-01  8.00000000E-01
  8.50000000E-01  8.50000000E-01  8.50000000E-01  8.00000000E-01  8.50000000E-01
  8.50000000E-01  8.50000000E-01  8.00000000E-01  8.50000000E-01  8.50000000E-01
  8.50000000E-01  8.00000000E-01  8.50000000E-01  8.50000000E-01  8.50000000E-01
  8.00000000E-01  8.50000000E-01  8.50000000E-01  8.50000000E-01  8.00000000E-01
  8.50000000E-01  8.50000000E-01  8.50000000E-01  8.00000000E-01  8.50000000E-01
  8.50000000E-01  8.50000000E-01  8.00000000E-01  8.50000000E-01  8.50000000E-01
  8.50000000E-01  8.00000000E-01  8.50000000E-01  8.50000000E-01  8.50000000E-01
  8.00000000E-01  8.50000000E-01  8.50000000E-01  8.50000000E-01  8.00000000E-01
  8.50000000E-01  8.50000000E-01  8.50000000E-01  8.00000000E-01  8.50000000E-01
  8.50000000E-01  8.50000000E-01  8.00000000E-01  8.50000000E-01  8.50000000E-01
  8.50000000E-01  8.00000000E-01  8.50000000E-01  8.50000000E-01  8.50000000E-01
  8.00000000E-01  8.50000000E-01  8.50000000E-01  8.50000000E-01  8.00000000E-01
  8.50000000E-01  8.50000000E-01  8.50000000E-01  8.00000000E-01  8.50000000E-01
  8.50000000E-01  8.50000000E-01  8.00000000E-01  8.50000000E-01  8.50000000E-01
  8.50000000E-01  8.00000000E-01  8.50000000E-01  8.50000000E-01  8.50000000E-01
  8.00000000E-01  8.50000000E-01  8.50000000E-01  8.50000000E-01  8.00000000E-01
  8.50000000E-01  8.50000000E-01  8.50000000E-01  8.00000000E-01  8.50000000E-01
  8.50000000E-01  8.50000000E-01  8.00000000E-01  8.50000000E-01  8.50000000E-01
  8.50000000E-01  8.00000000E-01  8.50000000E-01  8.50000000E-01  8.50000000E-01
  8.00000000E-01  8.50000000E-01  8.50000000E-01  8.50000000E-01  8.00000000E-01
  8.50000000E-01  8.50000000E-01  8.50000000E-01  8.00000000E-01  8.50000000E-01
  8.50000000E-01  8.50000000E-01  8.00000000E-01  8.50000000E-01  8.50000000E-01
  8.50000000E-01  8.00000000E-01  8.50000000E-01  8.50000000E-01  8.50000000E-01
  8.00000000E-01  8.50000000E-01  8.50000000E-01  8.50000000E-01  8.00000000E-01
  8.50000000E-01  8.50000000E-01  8.50000000E-01  8.00000000E-01  8.50000000E-01
  8.50000000E-01  8.50000000E-01  8.00000000E-01  8.50000000E-01  8.50000000E-01
  8.50000000E-01  8.00000000E-01  8.50000000E-01  8.50000000E-01  8.50000000E-01
  8.00000000E-01  8.50000000E-01  8.50000000E-01  8.50000000E-01  8.00000000E-01
  8.50000000E-01  8.50000000E-01  8.50000000E-01  8.00000000E-01  8.50000000E-01
  8.50000000E-01  8.50000000E-01  8.00000000E-01  8.50000000E-01  8.50000000E-01
  8.50000000E-01  8.00000000E-01  8.50000000E-01  8.50000000E-01  8.50000000E-01
  8.00000000E-01  8.50000000E-01  8.50000000E-01  8.50000000E-01  8.00000000E-01
  8.50000000E-01  8.50000000E-01  8.50000000E-01  8.00000000E-01  8.50000000E-01
  8.50000000E-01  8.50000000E-01  8.00000000E-01  8.50000000E-01  8.50000000E-01
  8.50000000E-01  8.00000000E-01  8.50000000E-01  8.50000000E-01  8.50000000E-01
  8.00000000E-01  8.50000000E-01  8.50000000E-01  8.50000000E-01  8.00000000E-01
  8.50000000E-01  8.50000000E-01  8.50000000E-01  8.00000000E-01  8.50000000E-01
  8.50000000E-01  8.50000000E-01  8.00000000E-01  8.50000000E-01  8.50000000E-01
  8.50000000E-01  8.00000000E-01  8.50000000E-01  8.50000000E-01  8.50000000E-01
  8.00000000E-01  8.50000000E-01  8.50000000E-01  8.50000000E-01  8.00000000E-01
  8.50000000E-01  8.50000000E-01  8.50000000E-01  8.00000000E-01  8.50000000E-01
  8.50000000E-01  8.50000000E-01  8.00000000E-01  8.50000000E-01  8.50000000E-01
  8.50000000E-01  8.00000000E-01  8.50000000E-01  8.50000000E-01  8.50000000E-01
  8.00000000E-01  8.50000000E-01  8.50000000E-01  8.50000000E-01  8.00000000E-01
  8.50000000E-01  8.50000000E-01  8.50000000E-01  8.00000000E-01  8.50000000E-01
  8.50000000E-01  8.50000000E-01  8.00000000E-01  8.50000000E-01  8.50000000E-01
  8.50000000E-01  8.00000000E-01  8.50000000E-01  8.50000000E-01  8.50000000E-01
  8.00000000E-01  8.50000000E-01  8.50000000E-01  8.50000000E-01  8.00000000E-01
  8.50000000E-01  8.50000000E-01  8.50000000E-01  8.00000000E-01  8.50000000E-01
  8.50000000E-01  8.50000000E-01  8.00000000E-01  8.50000000E-01  8.50000000E-01
  8.50000000E-01  8.00000000E-01  8.50000000E-01  8.50000000E-01  8.50000000E-01
  8.00000000E-01  8.50000000E-01  8.50000000E-01  8.50000000E-01  8.00000000E-01
  8.50000000E-01  8.50000000E-01  8.50000000E-01  8.00000000E-01  8.50000000E-01
  8.50000000E-01  8.50000000E-01  8.00000000E-01  8.50000000E-01  8.50000000E-01
  8.50000000E-01  8.00000000E-01  8.50000000E-01  8.50000000E-01  8.50000000E-01
  8.00000000E-01  8.50000000E-01  8.50000000E-01  8.50000000E-01  8.00000000E-01
  8.50000000E-01  8.50000000E-01  8.50000000E-01  8.00000000E-01  8.50000000E-01
  8.50000000E-01  8.50000000E-01  8.00000000E-01  8.50000000E-01  8.50000000E-01
  8.50000000E-01  8.00000000E-01  8.50000000E-01  8.50000000E-01  8.50000000E-01
  8.00000000E-01  8.50000000E-01  8.50000000E-01  8.50000000E-01  8.00000000E-01
  8.50000000E-01  8.50000000E-01  8.50000000E-01  8.00000000E-01  8.50000000E-01
  8.50000000E-01  8.50000000E-01  8.00000000E-01  8.50000000E-01  8.50000000E-01
  8.50000000E-01  8.00000000E-01  8.50000000E-01  8.50000000E-01  8.50000000E-01
  8.00000000E-01  8.50000000E-01  8.50000000E-01  8.50000000E-01  8.00000000E-01
  8.50000000E-01  8.50000000E-01  8.50000000E-01  8.00000000E-01  8.50000000E-01
  8.50000000E-01  8.50000000E-01  8.00000000E-01  8.50000000E-01  8.50000000E-01
  8.50000000E-01  8.00000000E-01  8.50000000E-01  8.50000000E-01  8.50000000E-01
  8.00000000E-01  8.50000000E-01  8.50000000E-01  8.50000000E-01  8.00000000E-01
  8.50000000E-01  8.50000000E-01  8.50000000E-01  8.00000000E-01  8.50000000E-01
  8.50000000E-01  8.50000000E-01  8.00000000E-01  8.50000000E-01  8.50000000E-01
  8.50000000E-01  8.00000000E-01  8.50000000E-01  8.50000000E-01  8.50000000E-01
  8.00000000E-01  8.50000000E-01  8.50000000E-01  8.50000000E-01  8.00000000E-01
  8.50000000E-01  8.50000000E-01  8.50000000E-01  8.00000000E-01  8.50000000E-01
  8.50000000E-01  8.50000000E-01  8.00000000E-01  8.50000000E-01  8.50000000E-01
  8.50000000E-01  8.00000000E-01  8.50000000E-01  8.50000000E-01  8.50000000E-01
  8.00000000E-01  8.50000000E-01  8.50000000E-01  8.50000000E-01  8.00000000E-01
  8.50000000E-01  8.50000000E-01  8.50000000E-01  8.00000000E-01  8.50000000E-01
  8.50000000E-01  8.50000000E-01  8.00000000E-01  8.50000000E-01  8.50000000E-01
  8.50000000E-01  8.00000000E-01  8.50000000E-01  8.50000000E-01  8.50000000E-01
  8.00000000E-01  8.50000000E-01  8.50000000E-01  8.50000000E-01  8.00000000E-01
  8.50000000E-01  8.50000000E-01  8.50000000E-01  8.00000000E-01  8.50000000E-01
  8.50000000E-01  8.50000000E-01  8.00000000E-01  8.50000000E-01  8.50000000E-01
  8.50000000E-01  8.00000000E-01  8.50000000E-01  8.50000000E-01  8.50000000E-01
  8.00000000E-01  8.50000000E-01  8.50000000E-01  8.50000000E-01  8.00000000E-01
  8.50000000E-01  8.50000000E-01  8.50000000E-01  8.00000000E-01  8.50000000E-01
  8.50000000E-01  8.50000000E-01  8.00000000E-01  8.50000000E-01  8.50000000E-01
  8.50000000E-01  8.00000000E-01  8.50000000E-01  8.50000000E-01  8.50000000E-01
  8.00000000E-01  8.50000000E-01  8.50000000E-01  8.50000000E-01  8.00000000E-01
  8.50000000E-01  8.50000000E-01  8.50000000E-01  8.00000000E-01  8.50000000E-01
  8.50000000E-01  8.50000000E-01  8.00000000E-01  8.50000000E-01  8.50000000E-01
  8.50000000E-01  8.00000000E-01  8.50000000E-01  8.50000000E-01  8.50000000E-01
  8.00000000E-01  8.50000000E-01  8.50000000E-01  8.50000000E-01  8.00000000E-01
  8.50000000E-01  8.50000000E-01  8.50000000E-01  8.00000000E-01  8.50000000E-01
  8.50000000E-01  8.50000000E-01  8.00000000E-01  8.50000000E-01  8.50000000E-01
  8.50000000E-01  8.00000000E-01  8.50000000E-01  8.50000000E-01  8.50000000E-01
  8.00000000E-01  8.50000000E-01  8.50000000E-01  8.50000000E-01  8.00000000E-01
  8.50000000E-01  8.50000000E-01  8.50000000E-01  8.00000000E-01  8.50000000E-01
  8.50000000E-01  8.50000000E-01  8.00000000E-01  8.50000000E-01  8.50000000E-01
  8.50000000E-01  8.00000000E-01  8.50000000E-01  8.50000000E-01  8.50000000E-01
  8.00000000E-01  8.50000000E-01  8.50000000E-01  8.50000000E-01  8.00000000E-01
  8.50000000E-01  8.50000000E-01  8.50000000E-01  8.00000000E-01  8.50000000E-01
  8.50000000E-01  8.50000000E-01  8.00000000E-01  8.50000000E-01  8.50000000E-01
  8.50000000E-01  8.00000000E-01  8.50000000E-01  8.50000000E-01  8.50000000E-01
  8.00000000E-01  8.50000000E-01  8.50000000E-01  8.50000000E-01  8.00000000E-01
  8.50000000E-01  8.50000000E-01  8.50000000E-01  8.00000000E-01  8.50000000E-01
  8.50000000E-01  8.50000000E-01  8.00000000E-01  8.50000000E-01  8.50000000E-01
  8.50000000E-01  8.00000000E-01  8.50000000E-01  8.50000000E-01  8.50000000E-01
  8.00000000E-01  8.50000000E-01  8.50000000E-01  8.50000000E-01  8.00000000E-01
  8.50000000E-01  8.50000000E-01  8.50000000E-01  8.00000000E-01  8.50000000E-01
  8.50000000E-01  8.50000000E-01  8.00000000E-01  8.50000000E-01  8.50000000E-01
  8.50000000E-01  8.00000000E-01  8.50000000E-01  8.50000000E-01  8.50000000E-01
  8.00000000E-01  8.50000000E-01  8.50000000E-01  8.50000000E-01  8.00000000E-01
  8.50000000E-01  8.50000000E-01  8.50000000E-01  8.00000000E-01  8.50000000E-01
  8.50000000E-01  8.50000000E-01  8.00000000E-01  8.50000000E-01  8.50000000E-01
  8.50000000E-01  8.00000000E-01  8.50000000E-01  8.50000000E-01  8.50000000E-01
  8.00000000E-01  8.50000000E-01  8.50000000E-01  8.50000000E-01  8.00000000E-01
  8.50000000E-01  8.50000000E-01  8.50000000E-01  8.00000000E-01  8.50000000E-01
  8.50000000E-01  8.50000000E-01  8.00000000E-01  8.50000000E-01  8.50000000E-01
  8.50000000E-01  8.00000000E-01  8.50000000E-01  8.50000000E-01  8.50000000E-01
  8.00000000E-01  8.50000000E-01  8.50000000E-01  8.50000000E-01  8.00000000E-01
  8.50000000E-01  8.50000000E-01  8.50000000E-01  8.00000000E-01  8.50000000E-01
  8.50000000E-01  8.50000000E-01  8.00000000E-01  8.50000000E-01  8.50000000E-01
  8.50000000E-01  8.00000000E-01  8.50000000E-01  8.50000000E-01  8.50000000E-01
  8.00000000E-01  8.50000000E-01  8.50000000E-01  8.50000000E-01  8.00000000E-01
  8.50000000E-01  8.50000000E-01  8.50000000E-01  8.00000000E-01  8.50000000E-01
  8.50000000E-01  8.50000000E-01  8.00000000E-01  8.50000000E-01  8.50000000E-01
  8.50000000E-01  8.00000000E-01  8.50000000E-01  8.50000000E-01  8.50000000E-01
  8.00000000E-01  8.50000000E-01  8.50000000E-01  8.50000000E-01  8.00000000E-01
  8.50000000E-01  8.50000000E-01  8.50000000E-01  8.00000000E-01  8.50000000E-01
  8.50000000E-01  8.50000000E-01  8.00000000E-01  8.50000000E-01  8.50000000E-01
  8.50000000E-01  8.00000000E-01  8.50000000E-01  8.50000000E-01  8.50000000E-01
  8.00000000E-01  8.50000000E-01  8.50000000E-01  8.50000000E-01  8.00000000E-01
  8.50000000E-01  8.50000000E-01  8.50000000E-01  8.00000000E-01  8.50000000E-01
  8.50000000E-01  8.50000000E-01  8.00000000E-01  8.50000000E-01  8.50000000E-01
  8.50000000E-01  8.00000000E-01  8.50000000E-01  8.50000000E-01  8.50000000E-01
  8.00000000E-01  8.50000000E-01  8.50000000E-01  8.50000000E-01  8.00000000E-01
  8.50000000E-01  8.50000000E-01  8.50000000E-01  8.00000000E-01  8.50000000E-01
  8.50000000E-01  8.50000000E-01  8.00000000E-01  8.50000000E-01  8.50000000E-01
  8.50000000E-01  8.00000000E-01  8.50000000E-01  8.50000000E-01  8.50000000E-01
  8.00000000E-01  8.50000000E-01  8.50000000E-01  8.50000000E-01  8.00000000E-01
  8.50000000E-01  8.50000000E-01  8.50000000E-01  8.00000000E-01  8.50000000E-01
  8.50000000E-01  8.50000000E-01  8.00000000E-01  8.50000000E-01  8.50000000E-01
  8.50000000E-01  8.00000000E-01  8.50000000E-01  8.50000000E-01  8.50000000E-01
  8.00000000E-01  8.50000000E-01  8.50000000E-01  8.50000000E-01  8.00000000E-01
  8.50000000E-01  8.50000000E-01  8.50000000E-01  8.00000000E-01  8.50000000E-01
  8.50000000E-01  8.50000000E-01  8.00000000E-01  8.50000000E-01  8.50000000E-01
  8.50000000E-01  8.00000000E-01  8.50000000E-01  8.50000000E-01  8.50000000E-01
  8.00000000E-01  8.50000000E-01  8.50000000E-01  8.50000000E-01  8.00000000E-01
  8.50000000E-01  8.50000000E-01  8.50000000E-01  8.00000000E-01  8.50000000E-01
  8.50000000E-01  8.50000000E-01  8.00000000E-01  8.50000000E-01  8.50000000E-01
  8.50000000E-01  8.00000000E-01  8.50000000E-01  8.50000000E-01  8.50000000E-01
  8.00000000E-01  8.50000000E-01  8.50000000E-01  8.50000000E-01  8.00000000E-01
  8.50000000E-01  8.50000000E-01  8.50000000E-01  8.00000000E-01  8.50000000E-01
  8.50000000E-01  8.50000000E-01  8.00000000E-01  8.50000000E-01  8.50000000E-01
  8.50000000E-01  8.00000000E-01  8.50000000E-01  8.50000000E-01  8.50000000E-01
  8.00000000E-01  8.50000000E-01  8.50000000E-01  8.50000000E-01  8.00000000E-01
  8.50000000E-01  8.50000000E-01  8.50000000E-01  8.00000000E-01  8.50000000E-01
  8.50000000E-01  8.50000000E-01  8.00000000E-01  8.50000000E-01  8.50000000E-01
  8.50000000E-01  8.00000000E-01  8.50000000E-01  8.50000000E-01  8.50000000E-01
  8.00000000E-01  8.50000000E-01  8.50000000E-01  8.50000000E-01  8.00000000E-01
  8.50000000E-01  8.50000000E-01  8.50000000E-01  8.00000000E-01  8.50000000E-01
  8.50000000E-01  8.50000000E-01  8.00000000E-01  8.50000000E-01  8.50000000E-01
  8.50000000E-01  8.00000000E-01  8.50000000E-01  8.50000000E-01  8.50000000E-01
  8.00000000E-01  8.50000000E-01  8.50000000E-01  8.50000000E-01  8.00000000E-01
  8.50000000E-01  8.50000000E-01  8.50000000E-01  8.00000000E-01  8.50000000E-01
  8.50000000E-01  8.50000000E-01  8.00000000E-01  8.50000000E-01  8.50000000E-01
  8.50000000E-01  8.00000000E-01  8.50000000E-01  8.50000000E-01  8.50000000E-01
  8.00000000E-01  8.50000000E-01  8.50000000E-01  8.50000000E-01  8.00000000E-01
  8.50000000E-01  8.50000000E-01  8.50000000E-01  8.00000000E-01  8.50000000E-01
  8.50000000E-01  8.50000000E-01  8.00000000E-01  8.50000000E-01  8.50000000E-01
  8.50000000E-01  8.00000000E-01  8.50000000E-01  8.50000000E-01  8.50000000E-01
  8.00000000E-01  8.50000000E-01  8.50000000E-01  8.50000000E-01  8.00000000E-01
  8.50000000E-01  8.50000000E-01  8.50000000E-01  8.00000000E-01  8.50000000E-01
  8.50000000E-01  8.50000000E-01  8.00000000E-01  8.50000000E-01  8.50000000E-01
  8.50000000E-01  8.00000000E-01  8.50000000E-01  8.50000000E-01  8.50000000E-01
  8.00000000E-01  8.50000000E-01  8.50000000E-01  8.50000000E-01  8.00000000E-01
  8.50000000E-01  8.50000000E-01  8.50000000E-01  8.00000000E-01  8.50000000E-01
  8.50000000E-01  8.50000000E-01  8.00000000E-01  8.50000000E-01  8.50000000E-01
  8.50000000E-01  8.00000000E-01  8.50000000E-01  8.50000000E-01  8.50000000E-01
  8.00000000E-01  8.50000000E-01  8.50000000E-01  8.50000000E-01  8.00000000E-01
  8.50000000E-01  8.50000000E-01  8.50000000E-01  8.00000000E-01  8.50000000E-01
  8.50000000E-01  8.50000000E-01  8.00000000E-01  8.50000000E-01  8.50000000E-01
  8.50000000E-01  8.00000000E-01  8.50000000E-01  8.50000000E-01  8.50000000E-01
  8.00000000E-01  8.50000000E-01  8.50000000E-01  8.50000000E-01  8.00000000E-01
  8.50000000E-01  8.50000000E-01  8.50000000E-01  8.00000000E-01  8.50000000E-01
  8.50000000E-01  8.50000000E-01  8.00000000E-01  8.50000000E-01  8.50000000E-01
  8.50000000E-01  8.00000000E-01  8.50000000E-01  8.50000000E-01  8.50000000E-01
  8.00000000E-01  8.50000000E-01  8.50000000E-01  8.50000000E-01  8.00000000E-01
  8.50000000E-01  8.50000000E-01  8.50000000E-01  8.00000000E-01  8.50000000E-01
  8.50000000E-01  8.50000000E-01  8.00000000E-01  8.50000000E-01  8.50000000E-01
  8.50000000E-01  8.00000000E-01  8.50000000E-01  8.50000000E-01  8.50000000E-01
  8.00000000E-01  8.50000000E-01  8.50000000E-01  8.50000000E-01  8.00000000E-01
  8.50000000E-01  8.50000000E-01  8.50000000E-01  8.00000000E-01  8.50000000E-01
  8.50000000E-01  8.50000000E-01  8.00000000E-01  8.50000000E-01  8.50000000E-01
  8.50000000E-01  8.00000000E-01  8.50000000E-01  8.50000000E-01  8.50000000E-01
  8.00000000E-01  8.50000000E-01  8.50000000E-01  8.50000000E-01  8.00000000E-01
  8.50000000E-01  8.50000000E-01  8.50000000E-01  8.00000000E-01  8.50000000E-01
  8.50000000E-01  8.50000000E-01  8.00000000E-01  8.50000000E-01  8.50000000E-01
  8.50000000E-01  8.00000000E-01  8.50000000E-01  8.50000000E-01  8.50000000E-01
  8.00000000E-01  8.50000000E-01  8.50000000E-01  8.50000000E-01  8.00000000E-01
  8.50000000E-01  8.50000000E-01  8.50000000E-01  8.00000000E-01  8.50000000E-01
  8.50000000E-01  8.50000000E-01  8.00000000E-01  8.50000000E-01  8.50000000E-01
  8.50000000E-01  8.00000000E-01  8.50000000E-01  8.50000000E-01  8.50000000E-01
  8.00000000E-01  8.50000000E-01  8.50000000E-01  8.50000000E-01  8.00000000E-01
  8.50000000E-01  8.50000000E-01  8.50000000E-01  8.00000000E-01  8.50000000E-01
  8.50000000E-01  8.50000000E-01  8.00000000E-01  8.50000000E-01  8.50000000E-01
  8.50000000E-01  8.00000000E-01  8.50000000E-01  8.50000000E-01  8.50000000E-01
  8.00000000E-01  8.50000000E-01  8.50000000E-01  8.50000000E-01  8.00000000E-01
  8.50000000E-01  8.50000000E-01  8.50000000E-01  8.00000000E-01  8.50000000E-01
  8.50000000E-01  8.50000000E-01  8.00000000E-01  8.50000000E-01  8.50000000E-01
  8.50000000E-01  8.00000000E-01  8.50000000E-01  8.50000000E-01  8.50000000E-01
  8.00000000E-01  8.50000000E-01  8.50000000E-01  8.50000000E-01  8.00000000E-01
  8.50000000E-01  8.50000000E-01  8.50000000E-01  8.00000000E-01  8.50000000E-01
  8.50000000E-01  8.50000000E-01  8.00000000E-01  8.50000000E-01  8.50000000E-01
  8.50000000E-01  8.00000000E-01  8.50000000E-01  8.50000000E-01  8.50000000E-01
  8.00000000E-01  8.50000000E-01  8.50000000E-01  8.50000000E-01  8.00000000E-01
  8.50000000E-01  8.50000000E-01  8.50000000E-01  8.00000000E-01  8.50000000E-01
  8.50000000E-01  8.50000000E-01  8.00000000E-01  8.50000000E-01  8.50000000E-01
  8.50000000E-01  8.00000000E-01  8.50000000E-01  8.50000000E-01  8.50000000E-01
  8.00000000E-01  8.50000000E-01  8.50000000E-01  8.50000000E-01  8.00000000E-01
  8.50000000E-01  8.50000000E-01  8.50000000E-01  8.00000000E-01  8.50000000E-01
  8.50000000E-01  8.50000000E-01  8.00000000E-01  8.50000000E-01  8.50000000E-01
  8.50000000E-01  8.00000000E-01  8.50000000E-01  8.50000000E-01  8.50000000E-01
  8.00000000E-01  8.50000000E-01  8.50000000E-01  8.50000000E-01  8.00000000E-01
  8.50000000E-01  8.50000000E-01  8.50000000E-01  8.00000000E-01  8.50000000E-01
  8.50000000E-01  8.50000000E-01  8.00000000E-01  8.50000000E-01  8.50000000E-01
  8.50000000E-01  8.00000000E-01  8.50000000E-01  8.50000000E-01  8.50000000E-01
  8.00000000E-01  8.50000000E-01  8.50000000E-01  8.50000000E-01  8.00000000E-01
  8.50000000E-01  8.50000000E-01  8.50000000E-01  8.00000000E-01  8.50000000E-01
  8.50000000E-01  8.50000000E-01  8.00000000E-01  8.50000000E-01  8.50000000E-01
  8.50000000E-01  8.00000000E-01  8.50000000E-01  8.50000000E-01  8.50000000E-01
  8.00000000E-01  8.50000000E-01  8.50000000E-01  8.50000000E-01  8.00000000E-01
  8.50000000E-01  8.50000000E-01  8.50000000E-01  8.00000000E-01  8.50000000E-01
  8.50000000E-01  8.50000000E-01  8.00000000E-01  8.50000000E-01  8.50000000E-01
  8.50000000E-01  8.00000000E-01  8.50000000E-01  8.50000000E-01  8.50000000E-01
  8.00000000E-01  8.50000000E-01  8.50000000E-01  8.50000000E-01  8.00000000E-01
  8.50000000E-01  8.50000000E-01  8.50000000E-01  8.00000000E-01  8.50000000E-01
  8.50000000E-01  8.50000000E-01  8.00000000E-01  8.50000000E-01  8.50000000E-01
  8.50000000E-01  8.00000000E-01  8.50000000E-01  8.50000000E-01  8.50000000E-01
  8.00000000E-01  8.50000000E-01  8.50000000E-01  8.50000000E-01  8.00000000E-01
  8.50000000E-01  8.50000000E-01  8.50000000E-01  8.00000000E-01  8.50000000E-01
  8.50000000E-01  8.50000000E-01  8.00000000E-01  8.50000000E-01  8.50000000E-01
  8.50000000E-01  8.00000000E-01  8.50000000E-01  8.50000000E-01  8.50000000E-01
  8.00000000E-01  8.50000000E-01  8.50000000E-01  8.50000000E-01  8.00000000E-01
  8.50000000E-01  8.50000000E-01  8.50000000E-01  8.00000000E-01  8.50000000E-01
  8.50000000E-01  8.50000000E-01  8.00000000E-01  8.50000000E-01  8.50000000E-01
  8.50000000E-01  8.00000000E-01  8.50000000E-01  8.50000000E-01  8.50000000E-01
  8.00000000E-01  8.50000000E-01  8.50000000E-01  8.50000000E-01  8.00000000E-01
  8.50000000E-01  8.50000000E-01  8.50000000E-01  8.00000000E-01  8.50000000E-01
  8.50000000E-01  8.50000000E-01  8.00000000E-01  8.50000000E-01  8.50000000E-01
  8.50000000E-01  8.00000000E-01  8.50000000E-01  8.50000000E-01  8.50000000E-01
  8.00000000E-01  8.50000000E-01  8.50000000E-01  8.50000000E-01  8.00000000E-01
  8.50000000E-01  8.50000000E-01  8.50000000E-01  8.00000000E-01  8.50000000E-01
  8.50000000E-01  8.50000000E-01  8.00000000E-01  8.50000000E-01  8.50000000E-01
  8.50000000E-01  8.00000000E-01  8.50000000E-01  8.50000000E-01  8.50000000E-01
  8.00000000E-01  8.50000000E-01  8.50000000E-01  8.50000000E-01  8.00000000E-01
  8.50000000E-01  8.50000000E-01  8.50000000E-01  8.00000000E-01  8.50000000E-01
  8.50000000E-01  8.50000000E-01  8.00000000E-01  8.50000000E-01  8.50000000E-01
  8.50000000E-01  8.00000000E-01  8.50000000E-01  8.50000000E-01  8.50000000E-01
  8.00000000E-01  8.50000000E-01  8.50000000E-01  8.50000000E-01  8.00000000E-01
  8.50000000E-01  8.50000000E-01  8.50000000E-01  8.00000000E-01  8.50000000E-01
  8.50000000E-01  8.50000000E-01  8.00000000E-01  8.50000000E-01  8.50000000E-01
  8.50000000E-01  8.00000000E-01  8.50000000E-01  8.50000000E-01  8.50000000E-01
  8.00000000E-01  8.50000000E-01  8.50000000E-01  8.50000000E-01  8.00000000E-01
  8.50000000E-01  8.50000000E-01  8.50000000E-01  8.00000000E-01  8.50000000E-01
  8.50000000E-01  8.50000000E-01  8.00000000E-01  8.50000000E-01  8.50000000E-01
  8.50000000E-01  8.00000000E-01  8.50000000E-01  8.50000000E-01  8.50000000E-01
  8.00000000E-01  8.50000000E-01  8.50000000E-01  8.50000000E-01  8.00000000E-01
  8.50000000E-01  8.50000000E-01  8.50000000E-01  8.00000000E-01  8.50000000E-01
  8.50000000E-01  8.50000000E-01  8.00000000E-01  8.50000000E-01  8.50000000E-01
  8.50000000E-01  8.00000000E-01  8.50000000E-01  8.50000000E-01  8.50000000E-01
  8.00000000E-01  8.50000000E-01  8.50000000E-01  8.50000000E-01  8.00000000E-01
  8.50000000E-01  8.50000000E-01  8.50000000E-01  8.00000000E-01  8.50000000E-01
  8.50000000E-01  8.50000000E-01  8.00000000E-01  8.50000000E-01  8.50000000E-01
  8.50000000E-01  8.00000000E-01  8.50000000E-01  8.50000000E-01  8.50000000E-01
  8.00000000E-01  8.50000000E-01  8.50000000E-01  8.50000000E-01  8.00000000E-01
  8.50000000E-01  8.50000000E-01  8.50000000E-01  8.00000000E-01  8.50000000E-01
  8.50000000E-01  8.50000000E-01  8.00000000E-01  8.50000000E-01  8.50000000E-01
  8.50000000E-01  8.00000000E-01  8.50000000E-01  8.50000000E-01  8.50000000E-01
  8.00000000E-01  8.50000000E-01  8.50000000E-01  8.50000000E-01  8.00000000E-01
  8.50000000E-01  8.50000000E-01  8.50000000E-01  8.00000000E-01  8.50000000E-01
  8.50000000E-01  8.50000000E-01  8.00000000E-01  8.50000000E-01  8.50000000E-01
  8.50000000E-01  8.00000000E-01  8.50000000E-01  8.50000000E-01  8.50000000E-01
  8.00000000E-01  8.50000000E-01  8.50000000E-01  8.50000000E-01  8.00000000E-01
  8.50000000E-01  8.50000000E-01  8.50000000E-01  8.00000000E-01  8.50000000E-01
  8.50000000E-01  8.50000000E-01  8.00000000E-01  8.50000000E-01  8.50000000E-01
  8.50000000E-01  8.00000000E-01  8.50000000E-01  8.50000000E-01  8.50000000E-01
  8.00000000E-01  8.50000000E-01  8.50000000E-01  8.50000000E-01  8.00000000E-01
  8.50000000E-01  8.50000000E-01  8.50000000E-01  8.00000000E-01  8.50000000E-01
  8.50000000E-01  8.50000000E-01  8.00000000E-01  8.50000000E-01  8.50000000E-01
  8.50000000E-01  8.00000000E-01  8.50000000E-01  8.50000000E-01  8.50000000E-01
  8.00000000E-01  8.50000000E-01  8.50000000E-01  8.50000000E-01  8.00000000E-01
  8.50000000E-01  8.50000000E-01  8.50000000E-01  8.00000000E-01  8.50000000E-01
  8.50000000E-01  8.50000000E-01  8.00000000E-01  8.50000000E-01  8.50000000E-01
  8.50000000E-01  8.00000000E-01  8.50000000E-01  8.50000000E-01  8.50000000E-01
  8.00000000E-01  8.50000000E-01  8.50000000E-01  8.50000000E-01  8.00000000E-01
  8.50000000E-01  8.50000000E-01  8.50000000E-01  8.00000000E-01  8.50000000E-01
  8.50000000E-01  8.50000000E-01  8.00000000E-01  8.50000000E-01  8.50000000E-01
  8.50000000E-01  8.00000000E-01  8.50000000E-01  8.50000000E-01  8.50000000E-01
  8.00000000E-01  8.50000000E-01  8.50000000E-01  8.50000000E-01  8.00000000E-01
  8.50000000E-01  8.50000000E-01  8.50000000E-01  8.00000000E-01  8.50000000E-01
  8.50000000E-01  8.50000000E-01  8.00000000E-01  8.50000000E-01  8.50000000E-01
  8.50000000E-01  8.00000000E-01  8.50000000E-01  8.50000000E-01  8.50000000E-01
  8.00000000E-01  8.50000000E-01  8.50000000E-01  8.50000000E-01  8.00000000E-01
  8.50000000E-01  8.50000000E-01  8.50000000E-01  8.00000000E-01  8.50000000E-01
  8.50000000E-01  8.50000000E-01  8.00000000E-01  8.50000000E-01  8.50000000E-01
  8.50000000E-01  8.00000000E-01  8.50000000E-01  8.50000000E-01  8.50000000E-01
  8.00000000E-01  8.50000000E-01  8.50000000E-01  8.50000000E-01  8.00000000E-01
  8.50000000E-01  8.50000000E-01  8.50000000E-01  8.00000000E-01  8.50000000E-01
  8.50000000E-01  8.50000000E-01  8.00000000E-01  8.50000000E-01  8.50000000E-01
  8.50000000E-01  8.00000000E-01  8.50000000E-01  8.50000000E-01  8.50000000E-01
  8.00000000E-01  8.50000000E-01  8.50000000E-01  8.50000000E-01  8.00000000E-01
  8.50000000E-01  8.50000000E-01  8.50000000E-01  8.00000000E-01  8.50000000E-01
  8.50000000E-01  8.50000000E-01  8.00000000E-01  8.50000000E-01  8.50000000E-01
  8.50000000E-01  8.00000000E-01  8.50000000E-01  8.50000000E-01  8.50000000E-01
  8.00000000E-01  8.50000000E-01  8.50000000E-01  8.50000000E-01  8.00000000E-01
  8.50000000E-01  8.50000000E-01  8.50000000E-01  8.00000000E-01  8.50000000E-01
  8.50000000E-01  8.50000000E-01  8.00000000E-01  8.50000000E-01  8.50000000E-01
  8.50000000E-01  8.00000000E-01  8.50000000E-01  8.50000000E-01  8.50000000E-01
  8.00000000E-01  8.50000000E-01  8.50000000E-01  8.50000000E-01  8.00000000E-01
  8.50000000E-01  8.50000000E-01  8.50000000E-01  8.00000000E-01  8.50000000E-01
  8.50000000E-01  8.50000000E-01  8.00000000E-01  8.50000000E-01  8.50000000E-01
  8.50000000E-01  8.00000000E-01  8.50000000E-01  8.50000000E-01  8.50000000E-01
  8.00000000E-01  8.50000000E-01  8.50000000E-01  8.50000000E-01  8.00000000E-01
  8.50000000E-01  8.50000000E-01  8.50000000E-01  8.00000000E-01  8.50000000E-01
  8.50000000E-01  8.50000000E-01  8.00000000E-01  8.50000000E-01  8.50000000E-01
  8.50000000E-01  8.00000000E-01  8.50000000E-01  8.50000000E-01  8.50000000E-01
  8.00000000E-01  8.50000000E-01  8.50000000E-01  8.50000000E-01  8.00000000E-01
  8.50000000E-01  8.50000000E-01  8.50000000E-01  8.00000000E-01  8.50000000E-01
  8.50000000E-01  8.50000000E-01  8.00000000E-01  8.50000000E-01  8.50000000E-01
  8.50000000E-01  8.00000000E-01  8.50000000E-01  8.50000000E-01  8.50000000E-01
  8.00000000E-01  8.50000000E-01  8.50000000E-01  8.50000000E-01  8.00000000E-01
  8.50000000E-01  8.50000000E-01  8.50000000E-01  8.00000000E-01  8.50000000E-01
  8.50000000E-01  8.50000000E-01  8.00000000E-01  8.50000000E-01  8.50000000E-01
  8.50000000E-01  8.00000000E-01  8.50000000E-01  8.50000000E-01  8.50000000E-01
  8.00000000E-01  8.50000000E-01  8.50000000E-01  8.50000000E-01  8.00000000E-01
  8.50000000E-01  8.50000000E-01  8.50000000E-01  8.00000000E-01  8.50000000E-01
  8.50000000E-01  8.50000000E-01  8.00000000E-01  8.50000000E-01  8.50000000E-01
  8.50000000E-01  8.00000000E-01  8.50000000E-01  8.50000000E-01  8.50000000E-01
  8.00000000E-01  8.50000000E-01  8.50000000E-01  8.50000000E-01  8.00000000E-01
  8.50000000E-01  8.50000000E-01  8.50000000E-01  8.00000000E-01  8.50000000E-01
  8.50000000E-01  8.50000000E-01  8.00000000E-01  8.50000000E-01  8.50000000E-01
  8.50000000E-01  8.00000000E-01  8.50000000E-01  8.50000000E-01  8.50000000E-01
  8.00000000E-01  8.50000000E-01  8.50000000E-01  8.50000000E-01  8.00000000E-01
  8.50000000E-01  8.50000000E-01  8.50000000E-01  8.00000000E-01  8.50000000E-01
  8.50000000E-01  8.50000000E-01  8.00000000E-01  8.50000000E-01  8.50000000E-01
  8.50000000E-01  8.00000000E-01  8.50000000E-01  8.50000000E-01  8.50000000E-01
  8.00000000E-01  8.50000000E-01  8.50000000E-01  8.50000000E-01  8.00000000E-01
  8.50000000E-01  8.50000000E-01  8.50000000E-01  8.00000000E-01  8.50000000E-01
  8.50000000E-01  8.50000000E-01  8.00000000E-01  8.50000000E-01  8.50000000E-01
  8.50000000E-01  8.00000000E-01  8.50000000E-01  8.50000000E-01  8.50000000E-01
  8.00000000E-01  8.50000000E-01  8.50000000E-01  8.50000000E-01  8.00000000E-01
  8.50000000E-01  8.50000000E-01  8.50000000E-01  8.00000000E-01  8.50000000E-01
  8.50000000E-01  8.50000000E-01  8.00000000E-01  8.50000000E-01  8.50000000E-01
  8.50000000E-01  8.00000000E-01  8.50000000E-01  8.50000000E-01  8.50000000E-01
  8.00000000E-01  8.50000000E-01  8.50000000E-01  8.50000000E-01  8.00000000E-01
  8.50000000E-01  8.50000000E-01  8.50000000E-01  8.00000000E-01  8.50000000E-01
  8.50000000E-01  8.50000000E-01  8.00000000E-01  8.50000000E-01  8.50000000E-01
  8.50000000E-01  8.00000000E-01  8.50000000E-01  8.50000000E-01  8.50000000E-01
  8.00000000E-01  8.50000000E-01  8.50000000E-01  8.50000000E-01  8.00000000E-01
  8.50000000E-01  8.50000000E-01  8.50000000E-01  8.00000000E-01  8.50000000E-01
  8.50000000E-01  8.50000000E-01  8.00000000E-01  8.50000000E-01  8.50000000E-01
  8.50000000E-01  8.00000000E-01  8.50000000E-01  8.50000000E-01  8.50000000E-01
  8.00000000E-01  8.50000000E-01  8.50000000E-01  8.50000000E-01  8.00000000E-01
  8.50000000E-01  8.50000000E-01  8.50000000E-01  8.00000000E-01  8.50000000E-01
  8.50000000E-01  8.50000000E-01  8.00000000E-01  8.50000000E-01  8.50000000E-01
  8.50000000E-01  8.00000000E-01  8.50000000E-01  8.50000000E-01  8.50000000E-01
  8.00000000E-01  8.50000000E-01  8.50000000E-01  8.50000000E-01  8.00000000E-01
  8.50000000E-01  8.50000000E-01  8.50000000E-01  8.00000000E-01  8.50000000E-01
  8.50000000E-01  8.50000000E-01  8.00000000E-01  8.50000000E-01  8.50000000E-01
  8.50000000E-01  8.00000000E-01  8.50000000E-01  8.50000000E-01  8.50000000E-01
  8.00000000E-01  8.50000000E-01  8.50000000E-01  8.50000000E-01  8.00000000E-01
  8.50000000E-01  8.50000000E-01  8.50000000E-01  8.00000000E-01  8.50000000E-01
  8.50000000E-01  8.50000000E-01  8.00000000E-01  8.50000000E-01  8.50000000E-01
  8.50000000E-01  8.00000000E-01  8.50000000E-01  8.50000000E-01  8.50000000E-01
  8.00000000E-01  8.50000000E-01  8.50000000E-01  8.50000000E-01  8.00000000E-01
  8.50000000E-01  8.50000000E-01  8.50000000E-01  8.00000000E-01  8.50000000E-01
  8.50000000E-01  8.50000000E-01  8.00000000E-01  8.50000000E-01  8.50000000E-01
  8.50000000E-01  8.00000000E-01  8.50000000E-01  8.50000000E-01  8.50000000E-01
  8.00000000E-01  8.50000000E-01  8.50000000E-01  8.50000000E-01  8.00000000E-01
  8.50000000E-01  8.50000000E-01  8.50000000E-01  8.00000000E-01  8.50000000E-01
  8.50000000E-01  8.50000000E-01  8.00000000E-01  8.50000000E-01  8.50000000E-01
  8.50000000E-01  8.00000000E-01  8.50000000E-01  8.50000000E-01  8.50000000E-01
  8.00000000E-01  8.50000000E-01  8.50000000E-01  8.50000000E-01  8.00000000E-01
  8.50000000E-01  8.50000000E-01  8.50000000E-01  8.00000000E-01  8.50000000E-01
  8.50000000E-01  8.50000000E-01  8.00000000E-01  8.50000000E-01  8.50000000E-01
  8.50000000E-01  8.00000000E-01  8.50000000E-01  8.50000000E-01  8.50000000E-01
  8.00000000E-01  8.50000000E-01  8.50000000E-01  8.50000000E-01  8.00000000E-01
  8.50000000E-01  8.50000000E-01  8.50000000E-01  8.00000000E-01  8.50000000E-01
  8.50000000E-01  8.50000000E-01  8.00000000E-01  8.50000000E-01  8.50000000E-01
  8.50000000E-01  8.00000000E-01  8.50000000E-01  8.50000000E-01  8.50000000E-01
  8.00000000E-01  8.50000000E-01  8.50000000E-01  8.50000000E-01  8.00000000E-01
  8.50000000E-01  8.50000000E-01  8.50000000E-01  8.00000000E-01  8.50000000E-01
  8.50000000E-01  8.50000000E-01  8.00000000E-01  8.50000000E-01  8.50000000E-01
  8.50000000E-01  8.00000000E-01  8.50000000E-01  8.50000000E-01  8.50000000E-01
  8.00000000E-01  8.50000000E-01  8.50000000E-01  8.50000000E-01  8.00000000E-01
  8.50000000E-01  8.50000000E-01  8.50000000E-01  8.00000000E-01  8.50000000E-01
  8.50000000E-01  8.50000000E-01  8.00000000E-01  8.50000000E-01  8.50000000E-01
  8.50000000E-01  8.00000000E-01  8.50000000E-01  8.50000000E-01  8.50000000E-01
  8.00000000E-01  8.50000000E-01  8.50000000E-01  8.50000000E-01  8.00000000E-01
  8.50000000E-01  8.50000000E-01  8.50000000E-01  8.00000000E-01  8.50000000E-01
  8.50000000E-01  8.50000000E-01  8.00000000E-01  8.50000000E-01  8.50000000E-01
  8.50000000E-01  8.00000000E-01  8.50000000E-01  8.50000000E-01  8.50000000E-01
  8.00000000E-01  8.50000000E-01  8.50000000E-01  8.50000000E-01  8.00000000E-01
  8.50000000E-01  8.50000000E-01  8.50000000E-01  8.00000000E-01  8.50000000E-01
  8.50000000E-01  8.50000000E-01  8.00000000E-01  8.50000000E-01  8.50000000E-01
  8.50000000E-01  8.00000000E-01  8.50000000E-01  8.50000000E-01  8.50000000E-01
  8.00000000E-01  8.50000000E-01  8.50000000E-01  8.50000000E-01  8.00000000E-01
  8.50000000E-01  8.50000000E-01  8.50000000E-01  8.00000000E-01  8.50000000E-01
  8.50000000E-01  8.50000000E-01  8.00000000E-01  8.50000000E-01  8.50000000E-01
  8.50000000E-01  8.00000000E-01  8.50000000E-01  8.50000000E-01  8.50000000E-01
  8.00000000E-01  8.50000000E-01  8.50000000E-01  8.50000000E-01  8.00000000E-01
  8.50000000E-01  8.50000000E-01  8.50000000E-01  8.00000000E-01  8.50000000E-01
  8.50000000E-01  8.50000000E-01  8.00000000E-01  8.50000000E-01  8.50000000E-01
  8.50000000E-01  8.00000000E-01  8.50000000E-01  8.50000000E-01  8.50000000E-01
  8.00000000E-01  8.50000000E-01  8.50000000E-01  8.50000000E-01  8.00000000E-01
  8.50000000E-01  8.50000000E-01  8.50000000E-01  8.00000000E-01  8.50000000E-01
  8.50000000E-01  8.50000000E-01  8.00000000E-01  8.50000000E-01  8.50000000E-01
  8.50000000E-01  8.00000000E-01  8.50000000E-01  8.50000000E-01  8.50000000E-01
  8.00000000E-01  8.50000000E-01  8.50000000E-01  8.50000000E-01  8.00000000E-01
  8.50000000E-01  8.50000000E-01  8.50000000E-01  8.00000000E-01  8.50000000E-01
  8.50000000E-01  8.50000000E-01  8.00000000E-01  8.50000000E-01  8.50000000E-01
  8.50000000E-01  8.00000000E-01  8.50000000E-01  8.50000000E-01  8.50000000E-01
  8.00000000E-01  8.50000000E-01  8.50000000E-01  8.50000000E-01  8.00000000E-01
  8.50000000E-01  8.50000000E-01  8.50000000E-01  8.00000000E-01  8.50000000E-01
  8.50000000E-01  8.50000000E-01  8.00000000E-01  8.50000000E-01  8.50000000E-01
  8.50000000E-01  8.00000000E-01  8.50000000E-01  8.50000000E-01  8.50000000E-01
  8.00000000E-01  8.50000000E-01  8.50000000E-01  8.50000000E-01  8.00000000E-01
  8.50000000E-01  8.50000000E-01  8.50000000E-01  8.00000000E-01  8.50000000E-01
  8.50000000E-01  8.50000000E-01  8.00000000E-01  8.50000000E-01  8.50000000E-01
  8.50000000E-01  8.00000000E-01  8.50000000E-01  8.50000000E-01  8.50000000E-01
  8.00000000E-01  8.50000000E-01  8.50000000E-01  8.50000000E-01  8.00000000E-01
  8.50000000E-01  8.50000000E-01  8.50000000E-01  8.00000000E-01  8.50000000E-01
  8.50000000E-01  8.50000000E-01  8.00000000E-01  8.50000000E-01  8.50000000E-01
  8.50000000E-01  8.00000000E-01  8.50000000E-01  8.50000000E-01  8.50000000E-01
  8.00000000E-01  8.50000000E-01  8.50000000E-01  8.50000000E-01  8.00000000E-01
  8.50000000E-01  8.50000000E-01  8.50000000E-01  8.00000000E-01  8.50000000E-01
  8.50000000E-01  8.50000000E-01  8.00000000E-01  8.50000000E-01  8.50000000E-01
  8.50000000E-01  8.00000000E-01  8.50000000E-01  8.50000000E-01  8.50000000E-01
  8.00000000E-01  8.50000000E-01  8.50000000E-01  8.50000000E-01  8.00000000E-01
  8.50000000E-01  8.50000000E-01  8.50000000E-01  8.00000000E-01  8.50000000E-01
  8.50000000E-01  8.50000000E-01  8.00000000E-01  8.50000000E-01  8.50000000E-01
  8.50000000E-01  8.00000000E-01  8.50000000E-01  8.50000000E-01  8.50000000E-01
  8.00000000E-01  8.50000000E-01  8.50000000E-01  8.50000000E-01  8.00000000E-01
  8.50000000E-01  8.50000000E-01  8.50000000E-01  8.00000000E-01  8.50000000E-01
  8.50000000E-01  8.50000000E-01  8.00000000E-01  8.50000000E-01  8.50000000E-01
  8.50000000E-01  8.00000000E-01  8.50000000E-01  8.50000000E-01  8.50000000E-01
  8.00000000E-01  8.50000000E-01  8.50000000E-01  8.50000000E-01  8.00000000E-01
  8.50000000E-01  8.50000000E-01  8.50000000E-01  8.00000000E-01  8.50000000E-01
  8.50000000E-01  8.50000000E-01  8.00000000E-01  8.50000000E-01  8.50000000E-01
  8.50000000E-01  8.00000000E-01  8.50000000E-01  8.50000000E-01  8.50000000E-01
  8.00000000E-01  8.50000000E-01  8.50000000E-01  8.50000000E-01  8.00000000E-01
  8.50000000E-01  8.50000000E-01  8.50000000E-01  8.00000000E-01  8.50000000E-01
  8.50000000E-01  8.50000000E-01  8.00000000E-01  8.50000000E-01  8.50000000E-01
  8.50000000E-01  8.00000000E-01  8.50000000E-01  8.50000000E-01  8.50000000E-01
  8.00000000E-01  8.50000000E-01  8.50000000E-01  8.50000000E-01  8.00000000E-01
  8.50000000E-01  8.50000000E-01  8.50000000E-01  8.00000000E-01  8.50000000E-01
  8.50000000E-01  8.50000000E-01  8.00000000E-01  8.50000000E-01  8.50000000E-01
  8.50000000E-01  8.00000000E-01  8.50000000E-01  8.50000000E-01  8.50000000E-01
  8.00000000E-01  8.50000000E-01  8.50000000E-01  8.50000000E-01  8.00000000E-01
  8.50000000E-01  8.50000000E-01  8.50000000E-01  8.00000000E-01  8.50000000E-01
  8.50000000E-01  8.50000000E-01  8.00000000E-01  8.50000000E-01  8.50000000E-01
  8.50000000E-01  8.00000000E-01  8.50000000E-01  8.50000000E-01  8.50000000E-01
  8.00000000E-01  8.50000000E-01  8.50000000E-01  8.50000000E-01  8.00000000E-01
  8.50000000E-01  8.50000000E-01  8.50000000E-01  8.00000000E-01  8.50000000E-01
  8.50000000E-01  8.50000000E-01  8.00000000E-01  8.50000000E-01  8.50000000E-01
  8.50000000E-01  8.00000000E-01  8.50000000E-01  8.50000000E-01  8.50000000E-01
  8.00000000E-01  8.50000000E-01  8.50000000E-01  8.50000000E-01  8.00000000E-01
  8.50000000E-01  8.50000000E-01  8.50000000E-01  8.00000000E-01  8.50000000E-01
  8.50000000E-01  8.50000000E-01  8.00000000E-01  8.50000000E-01  8.50000000E-01
  8.50000000E-01  8.00000000E-01  8.50000000E-01  8.50000000E-01  8.50000000E-01
  8.00000000E-01  8.50000000E-01  8.50000000E-01  8.50000000E-01  8.00000000E-01
  8.50000000E-01  8.50000000E-01  8.50000000E-01  8.00000000E-01  8.50000000E-01
  8.50000000E-01  8.50000000E-01  8.00000000E-01  8.50000000E-01  8.50000000E-01
  8.50000000E-01  8.00000000E-01  8.50000000E-01  8.50000000E-01  8.50000000E-01
  8.00000000E-01  8.50000000E-01  8.50000000E-01  8.50000000E-01  8.00000000E-01
  8.50000000E-01  8.50000000E-01  8.50000000E-01  8.00000000E-01  8.50000000E-01
  8.50000000E-01  8.50000000E-01  8.00000000E-01  8.50000000E-01  8.50000000E-01
  8.50000000E-01  8.00000000E-01  8.50000000E-01  8.50000000E-01  8.50000000E-01
  8.00000000E-01  8.50000000E-01  8.50000000E-01  8.50000000E-01  8.00000000E-01
  8.50000000E-01  8.50000000E-01  8.50000000E-01  8.00000000E-01  8.50000000E-01
  8.50000000E-01  8.50000000E-01  8.00000000E-01  8.50000000E-01  8.50000000E-01
  8.50000000E-01  8.00000000E-01  8.50000000E-01  8.50000000E-01  8.50000000E-01
  8.00000000E-01  8.50000000E-01  8.50000000E-01  8.50000000E-01  8.00000000E-01
  8.50000000E-01  8.50000000E-01  8.50000000E-01  8.00000000E-01  8.50000000E-01
  8.50000000E-01  8.50000000E-01  8.00000000E-01  8.50000000E-01  8.50000000E-01
  8.50000000E-01  8.00000000E-01  8.50000000E-01  8.50000000E-01  8.50000000E-01
  8.00000000E-01  8.50000000E-01  8.50000000E-01  8.50000000E-01  8.00000000E-01
  8.50000000E-01  8.50000000E-01  8.50000000E-01  8.00000000E-01  8.50000000E-01
  8.50000000E-01  8.50000000E-01  8.00000000E-01  8.50000000E-01  8.50000000E-01
  8.50000000E-01  8.00000000E-01  8.50000000E-01  8.50000000E-01  8.50000000E-01
  8.00000000E-01  8.50000000E-01  8.50000000E-01  8.50000000E-01  8.00000000E-01
  8.50000000E-01  8.50000000E-01  8.50000000E-01  8.00000000E-01  8.50000000E-01
  8.50000000E-01  8.50000000E-01  8.00000000E-01  8.50000000E-01  8.50000000E-01
  8.50000000E-01  8.00000000E-01  8.50000000E-01  8.50000000E-01  8.50000000E-01
  8.00000000E-01  8.50000000E-01  8.50000000E-01  8.50000000E-01  8.00000000E-01
  8.50000000E-01  8.50000000E-01  8.50000000E-01  8.00000000E-01  8.50000000E-01
  8.50000000E-01  8.50000000E-01  8.00000000E-01  8.50000000E-01  8.50000000E-01
  8.50000000E-01  8.00000000E-01  8.50000000E-01  8.50000000E-01  8.50000000E-01
  8.00000000E-01  8.50000000E-01  8.50000000E-01  8.50000000E-01  8.00000000E-01
  8.50000000E-01  8.50000000E-01  8.50000000E-01  8.00000000E-01  8.50000000E-01
  8.50000000E-01  8.50000000E-01  8.00000000E-01  8.50000000E-01  8.50000000E-01
  8.50000000E-01  8.00000000E-01  8.50000000E-01  8.50000000E-01  8.50000000E-01
  8.00000000E-01  8.50000000E-01  8.50000000E-01  8.50000000E-01  8.00000000E-01
  8.50000000E-01  8.50000000E-01  8.50000000E-01  8.00000000E-01  8.50000000E-01
  8.50000000E-01  8.50000000E-01  8.00000000E-01  8.50000000E-01  8.50000000E-01
  8.50000000E-01  8.00000000E-01  8.50000000E-01  8.50000000E-01  8.50000000E-01
  8.00000000E-01  8.50000000E-01  8.50000000E-01  8.50000000E-01  8.00000000E-01
  8.50000000E-01  8.50000000E-01  8.50000000E-01  8.00000000E-01  8.50000000E-01
  8.50000000E-01  8.50000000E-01  8.00000000E-01  8.50000000E-01  8.50000000E-01
  8.50000000E-01  8.00000000E-01  8.50000000E-01  8.50000000E-01  8.50000000E-01
  8.00000000E-01  8.50000000E-01  8.50000000E-01  8.50000000E-01  8.00000000E-01
  8.50000000E-01  8.50000000E-01  8.50000000E-01  8.00000000E-01  8.50000000E-01
  8.50000000E-01  8.50000000E-01  8.00000000E-01  8.50000000E-01  8.50000000E-01
  8.50000000E-01  8.00000000E-01  8.50000000E-01  8.50000000E-01  8.50000000E-01
  8.00000000E-01  8.50000000E-01  8.50000000E-01  8.50000000E-01  8.00000000E-01
  8.50000000E-01  8.50000000E-01  8.50000000E-01  8.00000000E-01  8.50000000E-01
  8.50000000E-01  8.50000000E-01  8.00000000E-01  8.50000000E-01  8.50000000E-01
  8.50000000E-01  8.00000000E-01  8.50000000E-01  8.50000000E-01  8.50000000E-01
  8.00000000E-01  8.50000000E-01  8.50000000E-01  8.50000000E-01  8.00000000E-01
  8.50000000E-01  8.50000000E-01  8.50000000E-01  8.00000000E-01  8.50000000E-01
  8.50000000E-01  8.50000000E-01  8.00000000E-01  8.50000000E-01  8.50000000E-01
  8.50000000E-01  8.00000000E-01  8.50000000E-01  8.50000000E-01  8.50000000E-01
  8.00000000E-01  8.50000000E-01  8.50000000E-01  8.50000000E-01  8.00000000E-01
  8.50000000E-01  8.50000000E-01  8.50000000E-01  8.00000000E-01  8.50000000E-01
  8.50000000E-01  8.50000000E-01  8.00000000E-01  8.50000000E-01  8.50000000E-01
  8.50000000E-01  8.00000000E-01  8.50000000E-01  8.50000000E-01  8.50000000E-01
  8.00000000E-01  8.50000000E-01  8.50000000E-01  8.50000000E-01  8.00000000E-01
  8.50000000E-01  8.50000000E-01  8.50000000E-01  8.00000000E-01  8.50000000E-01
  8.50000000E-01  8.50000000E-01  8.00000000E-01  8.50000000E-01  8.50000000E-01
  8.50000000E-01  8.00000000E-01  8.50000000E-01  8.50000000E-01  8.50000000E-01
  8.00000000E-01  8.50000000E-01  8.50000000E-01  8.50000000E-01  8.00000000E-01
  8.50000000E-01  8.50000000E-01  8.50000000E-01  8.00000000E-01  8.50000000E-01
  8.50000000E-01  8.50000000E-01  8.00000000E-01  8.50000000E-01  8.50000000E-01
  8.50000000E-01  8.00000000E-01  8.50000000E-01  8.50000000E-01  8.50000000E-01
  8.00000000E-01  8.50000000E-01  8.50000000E-01  8.50000000E-01  8.00000000E-01
  8.50000000E-01  8.50000000E-01  8.50000000E-01  8.00000000E-01  8.50000000E-01
  8.50000000E-01  8.50000000E-01  8.00000000E-01  8.50000000E-01  8.50000000E-01
  8.50000000E-01  8.00000000E-01  8.50000000E-01  8.50000000E-01  8.50000000E-01
  8.00000000E-01  8.50000000E-01  8.50000000E-01  8.50000000E-01  8.00000000E-01
  8.50000000E-01  8.50000000E-01  8.50000000E-01  8.00000000E-01  8.50000000E-01
  8.50000000E-01  8.50000000E-01  8.00000000E-01  8.50000000E-01  8.50000000E-01
  8.50000000E-01  8.00000000E-01  8.50000000E-01  8.50000000E-01  8.50000000E-01
  8.00000000E-01  8.50000000E-01  8.50000000E-01  8.50000000E-01  8.00000000E-01
  8.50000000E-01  8.50000000E-01  8.50000000E-01  8.00000000E-01  8.50000000E-01
  8.50000000E-01  8.50000000E-01  8.00000000E-01  8.50000000E-01  8.50000000E-01
  8.50000000E-01  8.00000000E-01  8.50000000E-01  8.50000000E-01  8.50000000E-01
  8.00000000E-01  8.50000000E-01  8.50000000E-01  8.50000000E-01  8.00000000E-01
  8.50000000E-01  8.50000000E-01  8.50000000E-01  8.00000000E-01  8.50000000E-01
  8.50000000E-01  8.50000000E-01  8.00000000E-01  8.50000000E-01  8.50000000E-01
  8.50000000E-01  8.00000000E-01  8.50000000E-01  8.50000000E-01  8.50000000E-01
  8.00000000E-01  8.50000000E-01  8.50000000E-01  8.50000000E-01  8.00000000E-01
  8.50000000E-01  8.50000000E-01  8.50000000E-01  8.00000000E-01  8.50000000E-01
  8.50000000E-01  8.50000000E-01  8.00000000E-01  8.50000000E-01  8.50000000E-01
  8.50000000E-01  8.00000000E-01  8.50000000E-01  8.50000000E-01  8.50000000E-01
  8.00000000E-01  8.50000000E-01  8.50000000E-01  8.50000000E-01  8.00000000E-01
  8.50000000E-01  8.50000000E-01  8.50000000E-01  8.00000000E-01  8.50000000E-01
  8.50000000E-01  8.50000000E-01  8.00000000E-01  8.50000000E-01  8.50000000E-01
  8.50000000E-01  8.00000000E-01  8.50000000E-01  8.50000000E-01  8.50000000E-01
  8.00000000E-01  8.50000000E-01  8.50000000E-01  8.50000000E-01  8.00000000E-01
  8.50000000E-01  8.50000000E-01  8.50000000E-01  8.00000000E-01  8.50000000E-01
  8.50000000E-01  8.50000000E-01  8.00000000E-01  8.50000000E-01  8.50000000E-01
  8.50000000E-01  8.00000000E-01  8.50000000E-01  8.50000000E-01  8.50000000E-01
  8.00000000E-01  8.50000000E-01  8.50000000E-01  8.50000000E-01  8.00000000E-01
  8.50000000E-01  8.50000000E-01  8.50000000E-01  8.00000000E-01  8.50000000E-01
  8.50000000E-01  8.50000000E-01  8.00000000E-01  8.50000000E-01  8.50000000E-01
  8.50000000E-01  8.00000000E-01  8.50000000E-01  8.50000000E-01  8.50000000E-01
  8.00000000E-01  8.50000000E-01  8.50000000E-01  8.50000000E-01  8.00000000E-01
  8.50000000E-01  8.50000000E-01  8.50000000E-01  8.00000000E-01  8.50000000E-01
  8.50000000E-01  8.50000000E-01  8.00000000E-01  8.50000000E-01  8.50000000E-01
  8.50000000E-01  8.00000000E-01  8.50000000E-01  8.50000000E-01  8.50000000E-01
  8.00000000E-01  8.50000000E-01  8.50000000E-01  8.50000000E-01  8.00000000E-01
  8.50000000E-01  8.50000000E-01  8.50000000E-01  8.00000000E-01  8.50000000E-01
  8.50000000E-01  8.50000000E-01  8.00000000E-01  8.50000000E-01  8.50000000E-01
  8.50000000E-01  8.00000000E-01  8.50000000E-01  8.50000000E-01  8.50000000E-01
  8.00000000E-01  8.50000000E-01  8.50000000E-01  8.50000000E-01  8.00000000E-01
  8.50000000E-01  8.50000000E-01  8.50000000E-01  8.00000000E-01  8.50000000E-01
  8.50000000E-01  8.50000000E-01  8.00000000E-01  8.50000000E-01  8.50000000E-01
  8.50000000E-01  8.00000000E-01  8.50000000E-01  8.50000000E-01  8.50000000E-01
  8.00000000E-01  8.50000000E-01  8.50000000E-01  8.50000000E-01  8.00000000E-01
  8.50000000E-01  8.50000000E-01  8.50000000E-01  8.00000000E-01  8.50000000E-01
  8.50000000E-01  8.50000000E-01  8.00000000E-01  8.50000000E-01  8.50000000E-01
  8.50000000E-01  8.00000000E-01  8.50000000E-01  8.50000000E-01  8.50000000E-01
  8.00000000E-01  8.50000000E-01  8.50000000E-01  8.50000000E-01  8.00000000E-01
  8.50000000E-01  8.50000000E-01  8.50000000E-01  8.00000000E-01  8.50000000E-01
  8.50000000E-01  8.50000000E-01  8.00000000E-01  8.50000000E-01  8.50000000E-01
  8.50000000E-01  8.00000000E-01  8.50000000E-01  8.50000000E-01  8.50000000E-01
  8.00000000E-01  8.50000000E-01  8.50000000E-01  8.50000000E-01  8.00000000E-01
  8.50000000E-01  8.50000000E-01  8.50000000E-01  8.00000000E-01  8.50000000E-01
  8.50000000E-01  8.50000000E-01  8.00000000E-01  8.50000000E-01  8.50000000E-01
  8.50000000E-01  8.00000000E-01  8.50000000E-01  8.50000000E-01  8.50000000E-01
  8.00000000E-01  8.50000000E-01  8.50000000E-01  8.50000000E-01  8.00000000E-01
  8.50000000E-01  8.50000000E-01  8.50000000E-01  8.00000000E-01  8.50000000E-01
  8.50000000E-01  8.50000000E-01  8.00000000E-01  8.50000000E-01  8.50000000E-01
  8.50000000E-01  8.00000000E-01  8.50000000E-01  8.50000000E-01  8.50000000E-01
  8.00000000E-01  8.50000000E-01  8.50000000E-01  8.50000000E-01  8.00000000E-01
  8.50000000E-01  8.50000000E-01  8.50000000E-01  8.00000000E-01  8.50000000E-01
  8.50000000E-01  8.50000000E-01  8.00000000E-01  8.50000000E-01  8.50000000E-01
  8.50000000E-01  8.00000000E-01  8.50000000E-01  8.50000000E-01  8.50000000E-01
  8.00000000E-01  8.50000000E-01  8.50000000E-01  8.50000000E-01  8.00000000E-01
  8.50000000E-01  8.50000000E-01  8.50000000E-01  8.00000000E-01  8.50000000E-01
  8.50000000E-01  8.50000000E-01  8.00000000E-01  8.50000000E-01  8.50000000E-01
  8.50000000E-01  8.00000000E-01  8.50000000E-01  8.50000000E-01  8.50000000E-01
  8.00000000E-01  8.50000000E-01  8.50000000E-01  8.50000000E-01  8.00000000E-01
  8.50000000E-01  8.50000000E-01  8.50000000E-01  8.00000000E-01  8.50000000E-01
  8.50000000E-01  8.50000000E-01  8.00000000E-01  8.50000000E-01  8.50000000E-01
  8.50000000E-01  8.00000000E-01  8.50000000E-01  8.50000000E-01  8.50000000E-01
  8.00000000E-01  8.50000000E-01  8.50000000E-01  8.50000000E-01  8.00000000E-01
  8.50000000E-01  8.50000000E-01  8.50000000E-01  8.00000000E-01  8.50000000E-01
  8.50000000E-01  8.50000000E-01  8.00000000E-01  8.50000000E-01  8.50000000E-01
  8.50000000E-01  8.00000000E-01  8.50000000E-01  8.50000000E-01  8.50000000E-01
  8.00000000E-01  8.50000000E-01  8.50000000E-01  8.50000000E-01  8.00000000E-01
  8.50000000E-01  8.50000000E-01  8.50000000E-01  8.00000000E-01  8.50000000E-01
  8.50000000E-01  8.50000000E-01  8.00000000E-01  8.50000000E-01  8.50000000E-01
  8.50000000E-01  8.00000000E-01  8.50000000E-01  8.50000000E-01  8.50000000E-01
  8.00000000E-01  8.50000000E-01  8.50000000E-01  8.50000000E-01  8.00000000E-01
  8.50000000E-01  8.50000000E-01  8.50000000E-01  8.00000000E-01  8.50000000E-01
  8.50000000E-01  8.50000000E-01  8.00000000E-01  8.50000000E-01  8.50000000E-01
  8.50000000E-01  8.00000000E-01  8.50000000E-01  8.50000000E-01  8.50000000E-01
  8.00000000E-01  8.50000000E-01  8.50000000E-01  8.50000000E-01  8.00000000E-01
  8.50000000E-01  8.50000000E-01  8.50000000E-01  8.00000000E-01  8.50000000E-01
  8.50000000E-01  8.50000000E-01  8.00000000E-01  8.50000000E-01  8.50000000E-01
  8.50000000E-01  8.00000000E-01  8.50000000E-01  8.50000000E-01  8.50000000E-01
  8.00000000E-01  8.50000000E-01  8.50000000E-01  8.50000000E-01  8.00000000E-01
  8.50000000E-01  8.50000000E-01  8.50000000E-01  8.00000000E-01  8.50000000E-01
  8.50000000E-01  8.50000000E-01  8.00000000E-01  8.50000000E-01  8.50000000E-01
  8.50000000E-01  8.00000000E-01  8.50000000E-01  8.50000000E-01  8.50000000E-01
  8.00000000E-01  8.50000000E-01  8.50000000E-01  8.50000000E-01  8.00000000E-01
  8.50000000E-01  8.50000000E-01  8.50000000E-01  8.00000000E-01  8.50000000E-01
  8.50000000E-01  8.50000000E-01  8.00000000E-01  8.50000000E-01  8.50000000E-01
  8.50000000E-01  8.00000000E-01  8.50000000E-01  8.50000000E-01  8.50000000E-01
  8.00000000E-01  8.50000000E-01  8.50000000E-01  8.50000000E-01  8.00000000E-01
  8.50000000E-01  8.50000000E-01  8.50000000E-01  8.00000000E-01  8.50000000E-01
  8.50000000E-01  8.50000000E-01  8.00000000E-01  8.50000000E-01  8.50000000E-01
  8.50000000E-01  8.00000000E-01  8.50000000E-01  8.50000000E-01  8.50000000E-01
  8.00000000E-01  8.50000000E-01  8.50000000E-01  8.50000000E-01  8.00000000E-01
  8.50000000E-01  8.50000000E-01  8.50000000E-01  8.00000000E-01  8.50000000E-01
  8.50000000E-01  8.50000000E-01  8.00000000E-01  8.50000000E-01  8.50000000E-01
  8.50000000E-01  8.00000000E-01  8.50000000E-01  8.50000000E-01  8.50000000E-01
  8.00000000E-01  8.50000000E-01  8.50000000E-01  8.50000000E-01  8.00000000E-01
  8.50000000E-01  8.50000000E-01  8.50000000E-01  8.00000000E-01  8.50000000E-01
  8.50000000E-01  8.50000000E-01  8.00000000E-01  8.50000000E-01  8.50000000E-01
  8.50000000E-01  8.00000000E-01  8.50000000E-01  8.50000000E-01  8.50000000E-01
  8.00000000E-01  8.50000000E-01  8.50000000E-01  8.50000000E-01  8.00000000E-01
  8.50000000E-01  8.50000000E-01  8.50000000E-01  8.00000000E-01  8.50000000E-01
  8.50000000E-01  8.50000000E-01  8.00000000E-01  8.50000000E-01  8.50000000E-01
  8.50000000E-01  8.00000000E-01  8.50000000E-01  8.50000000E-01  8.50000000E-01
  8.00000000E-01  8.50000000E-01  8.50000000E-01  8.50000000E-01  8.00000000E-01
  8.50000000E-01  8.50000000E-01  8.50000000E-01  8.00000000E-01  8.50000000E-01
  8.50000000E-01  8.50000000E-01  8.00000000E-01  8.50000000E-01  8.50000000E-01
  8.50000000E-01  8.00000000E-01  8.50000000E-01  8.50000000E-01  8.50000000E-01
  8.00000000E-01  8.50000000E-01  8.50000000E-01  8.50000000E-01  8.00000000E-01
  8.50000000E-01  8.50000000E-01  8.50000000E-01  8.00000000E-01  8.50000000E-01
  8.50000000E-01  8.50000000E-01  8.00000000E-01  8.50000000E-01  8.50000000E-01
  8.50000000E-01  8.00000000E-01  8.50000000E-01  8.50000000E-01  8.50000000E-01
  8.00000000E-01  8.50000000E-01  8.50000000E-01  8.50000000E-01  8.00000000E-01
  8.50000000E-01  8.50000000E-01  8.50000000E-01  8.00000000E-01  8.50000000E-01
  8.50000000E-01  8.50000000E-01  8.00000000E-01  8.50000000E-01  8.50000000E-01
  8.50000000E-01  8.00000000E-01  8.50000000E-01  8.50000000E-01  8.50000000E-01
  8.00000000E-01  8.50000000E-01  8.50000000E-01  8.50000000E-01  8.00000000E-01
  8.50000000E-01  8.50000000E-01  8.50000000E-01  8.00000000E-01  8.50000000E-01
  8.50000000E-01  8.50000000E-01  8.00000000E-01  8.50000000E-01  8.50000000E-01
  8.50000000E-01  8.00000000E-01  8.50000000E-01  8.50000000E-01  8.50000000E-01
  8.00000000E-01  8.50000000E-01  8.50000000E-01  8.50000000E-01  8.00000000E-01
  8.50000000E-01  8.50000000E-01  8.50000000E-01  8.00000000E-01  8.50000000E-01
  8.50000000E-01  8.50000000E-01  8.00000000E-01  8.50000000E-01  8.50000000E-01
  8.50000000E-01  8.00000000E-01  8.50000000E-01  8.50000000E-01  8.50000000E-01
  8.00000000E-01  8.50000000E-01  8.50000000E-01  8.50000000E-01  8.00000000E-01
  8.50000000E-01  8.50000000E-01  8.50000000E-01  8.00000000E-01  8.50000000E-01
  8.50000000E-01  8.50000000E-01  8.00000000E-01  8.50000000E-01  8.50000000E-01
  8.50000000E-01  8.00000000E-01  8.50000000E-01  8.50000000E-01  8.50000000E-01
  8.00000000E-01  8.50000000E-01  8.50000000E-01  8.50000000E-01  8.00000000E-01
  8.50000000E-01  8.50000000E-01  8.50000000E-01  8.00000000E-01  8.50000000E-01
  8.50000000E-01  8.50000000E-01  8.00000000E-01  8.50000000E-01  8.50000000E-01
  8.50000000E-01  8.00000000E-01  8.50000000E-01  8.50000000E-01  8.50000000E-01
  8.00000000E-01  8.50000000E-01  8.50000000E-01  8.50000000E-01  8.00000000E-01
  8.50000000E-01  8.50000000E-01  8.50000000E-01  8.00000000E-01  8.50000000E-01
  8.50000000E-01  8.50000000E-01  8.00000000E-01  8.50000000E-01  8.50000000E-01
  8.50000000E-01  8.00000000E-01  8.50000000E-01  8.50000000E-01  8.50000000E-01
  8.00000000E-01  8.50000000E-01  8.50000000E-01  8.50000000E-01  8.00000000E-01
  8.50000000E-01  8.50000000E-01  8.50000000E-01  8.00000000E-01  8.50000000E-01
  8.50000000E-01  8.50000000E-01  8.00000000E-01  8.50000000E-01  8.50000000E-01
  8.50000000E-01  8.00000000E-01  8.50000000E-01  8.50000000E-01  8.50000000E-01
  8.00000000E-01  8.50000000E-01  8.50000000E-01  8.50000000E-01  8.00000000E-01
  8.50000000E-01  8.50000000E-01  8.50000000E-01  8.00000000E-01  8.50000000E-01
  8.50000000E-01  8.50000000E-01  8.00000000E-01  8.50000000E-01  8.50000000E-01
  8.50000000E-01  8.00000000E-01  8.50000000E-01  8.50000000E-01  8.50000000E-01
  8.00000000E-01  8.50000000E-01  8.50000000E-01  8.50000000E-01  8.00000000E-01
  8.50000000E-01  8.50000000E-01  8.50000000E-01  8.00000000E-01  8.50000000E-01
  8.50000000E-01  8.50000000E-01  8.00000000E-01  8.50000000E-01  8.50000000E-01
  8.50000000E-01  8.00000000E-01  8.50000000E-01  8.50000000E-01  8.50000000E-01
  8.00000000E-01  8.50000000E-01  8.50000000E-01  8.50000000E-01  8.00000000E-01
  8.50000000E-01  8.50000000E-01  8.50000000E-01  8.00000000E-01  8.50000000E-01
  8.50000000E-01  8.50000000E-01  8.00000000E-01  8.50000000E-01  8.50000000E-01
  8.50000000E-01  8.00000000E-01  8.50000000E-01  8.50000000E-01  8.50000000E-01
  8.00000000E-01  8.50000000E-01  8.50000000E-01  8.50000000E-01  8.00000000E-01
  8.50000000E-01  8.50000000E-01  8.50000000E-01  8.00000000E-01  8.50000000E-01
  8.50000000E-01  8.50000000E-01  8.00000000E-01  8.50000000E-01  8.50000000E-01
  8.50000000E-01  8.00000000E-01  8.50000000E-01  8.50000000E-01  8.50000000E-01
  8.00000000E-01  8.50000000E-01  8.50000000E-01  8.50000000E-01  8.00000000E-01
  8.50000000E-01  8.50000000E-01  8.50000000E-01  8.00000000E-01  8.50000000E-01
  8.50000000E-01  8.50000000E-01  8.00000000E-01  8.50000000E-01  8.50000000E-01
  8.50000000E-01  8.00000000E-01  8.50000000E-01  8.50000000E-01  8.50000000E-01
  8.00000000E-01  8.50000000E-01  8.50000000E-01  8.50000000E-01  8.00000000E-01
  8.50000000E-01  8.50000000E-01  8.50000000E-01  8.00000000E-01  8.50000000E-01
  8.50000000E-01  8.50000000E-01  8.00000000E-01  8.50000000E-01  8.50000000E-01
  8.50000000E-01  8.00000000E-01  8.50000000E-01  8.50000000E-01  8.50000000E-01
  8.00000000E-01  8.50000000E-01  8.50000000E-01  8.50000000E-01  8.00000000E-01
  8.50000000E-01  8.50000000E-01  8.50000000E-01  8.00000000E-01  8.50000000E-01
  8.50000000E-01  8.50000000E-01  8.00000000E-01  8.50000000E-01  8.50000000E-01
  8.50000000E-01  8.00000000E-01  8.50000000E-01  8.50000000E-01  8.50000000E-01
  8.00000000E-01  8.50000000E-01  8.50000000E-01  8.50000000E-01  8.00000000E-01
  8.50000000E-01  8.50000000E-01  8.50000000E-01  8.00000000E-01  8.50000000E-01
  8.50000000E-01  8.50000000E-01  8.00000000E-01  8.50000000E-01  8.50000000E-01
  8.50000000E-01  8.00000000E-01  8.50000000E-01  8.50000000E-01  8.50000000E-01
  8.00000000E-01  8.50000000E-01  8.50000000E-01  8.50000000E-01  8.00000000E-01
  8.50000000E-01  8.50000000E-01  8.50000000E-01  8.00000000E-01  8.50000000E-01
  8.50000000E-01  8.50000000E-01  8.00000000E-01  8.50000000E-01  8.50000000E-01
  8.50000000E-01  8.00000000E-01  8.50000000E-01  8.50000000E-01  8.50000000E-01
  8.00000000E-01  8.50000000E-01  8.50000000E-01  8.50000000E-01  8.00000000E-01
  8.50000000E-01  8.50000000E-01  8.50000000E-01  8.00000000E-01  8.50000000E-01
  8.50000000E-01  8.50000000E-01  8.00000000E-01  8.50000000E-01  8.50000000E-01
  8.50000000E-01  8.00000000E-01  8.50000000E-01  8.50000000E-01  8.50000000E-01
  8.00000000E-01  8.50000000E-01  8.50000000E-01  8.50000000E-01  8.00000000E-01
  8.50000000E-01  8.50000000E-01  8.50000000E-01  8.00000000E-01  8.50000000E-01
  8.50000000E-01  8.50000000E-01  8.00000000E-01  8.50000000E-01  8.50000000E-01
  8.50000000E-01  8.00000000E-01  8.50000000E-01  8.50000000E-01  8.50000000E-01
  8.00000000E-01  8.50000000E-01  8.50000000E-01  8.50000000E-01  8.00000000E-01
  8.50000000E-01  8.50000000E-01  8.50000000E-01  8.00000000E-01  8.50000000E-01
  8.50000000E-01  8.50000000E-01  8.00000000E-01  8.50000000E-01  8.50000000E-01
  8.50000000E-01  8.00000000E-01  8.50000000E-01  8.50000000E-01  8.50000000E-01
  8.00000000E-01  8.50000000E-01  8.50000000E-01  8.50000000E-01  8.00000000E-01
  8.50000000E-01  8.50000000E-01  8.50000000E-01  8.00000000E-01  8.50000000E-01
  8.50000000E-01  8.50000000E-01  8.00000000E-01  8.50000000E-01  8.50000000E-01
  8.50000000E-01  8.00000000E-01  8.50000000E-01  8.50000000E-01  8.50000000E-01
  8.00000000E-01  8.50000000E-01  8.50000000E-01  8.50000000E-01  8.00000000E-01
  8.50000000E-01  8.50000000E-01  8.50000000E-01  8.00000000E-01  8.50000000E-01
  8.50000000E-01  8.50000000E-01  8.00000000E-01  8.50000000E-01  8.50000000E-01
  8.50000000E-01  8.00000000E-01  8.50000000E-01  8.50000000E-01  8.50000000E-01
  8.00000000E-01  8.50000000E-01  8.50000000E-01  8.50000000E-01  8.00000000E-01
  8.50000000E-01  8.50000000E-01  8.50000000E-01  8.00000000E-01  8.50000000E-01
  8.50000000E-01  8.50000000E-01  8.00000000E-01  8.50000000E-01  8.50000000E-01
  8.50000000E-01  8.00000000E-01  8.50000000E-01  8.50000000E-01  8.50000000E-01
  8.00000000E-01  8.50000000E-01  8.50000000E-01  8.50000000E-01  8.00000000E-01
  8.50000000E-01  8.50000000E-01  8.50000000E-01  8.00000000E-01  8.50000000E-01
  8.50000000E-01  8.50000000E-01  8.00000000E-01  8.50000000E-01  8.50000000E-01
  8.50000000E-01  8.00000000E-01  8.50000000E-01  8.50000000E-01  8.50000000E-01
  8.00000000E-01  8.50000000E-01  8.50000000E-01  8.50000000E-01  8.00000000E-01
  8.50000000E-01  8.50000000E-01  8.50000000E-01  8.00000000E-01  8.50000000E-01
  8.50000000E-01  8.50000000E-01  8.00000000E-01  8.50000000E-01  8.50000000E-01
  8.50000000E-01  8.00000000E-01  8.50000000E-01  8.50000000E-01  8.50000000E-01
  8.00000000E-01  8.50000000E-01  8.50000000E-01  8.50000000E-01  8.00000000E-01
  8.50000000E-01  8.50000000E-01  8.50000000E-01  8.00000000E-01  8.50000000E-01
  8.50000000E-01  8.50000000E-01  8.00000000E-01  8.50000000E-01  8.50000000E-01
  8.50000000E-01  8.00000000E-01  8.50000000E-01  8.50000000E-01  8.50000000E-01
  8.00000000E-01  8.50000000E-01  8.50000000E-01  8.50000000E-01  8.00000000E-01
  8.50000000E-01  8.50000000E-01  8.50000000E-01  8.00000000E-01  8.50000000E-01
  8.50000000E-01  8.50000000E-01  8.00000000E-01  8.50000000E-01  8.50000000E-01
  8.50000000E-01  8.00000000E-01  8.50000000E-01  8.50000000E-01  8.50000000E-01
  8.00000000E-01  8.50000000E-01  8.50000000E-01  8.50000000E-01  8.00000000E-01
  8.50000000E-01  8.50000000E-01  8.50000000E-01  8.00000000E-01  8.50000000E-01
  8.50000000E-01  8.50000000E-01  8.00000000E-01  8.50000000E-01  8.50000000E-01
  8.50000000E-01  8.00000000E-01  8.50000000E-01  8.50000000E-01  8.50000000E-01
  8.00000000E-01  8.50000000E-01  8.50000000E-01  8.50000000E-01  8.00000000E-01
  8.50000000E-01  8.50000000E-01  8.50000000E-01  8.00000000E-01  8.50000000E-01
  8.50000000E-01  8.50000000E-01  8.00000000E-01  8.50000000E-01  8.50000000E-01
  8.50000000E-01  8.00000000E-01  8.50000000E-01  8.50000000E-01  8.50000000E-01
  8.00000000E-01  8.50000000E-01  8.50000000E-01  8.50000000E-01  8.00000000E-01
  8.50000000E-01  8.50000000E-01  8.50000000E-01  8.00000000E-01  8.50000000E-01
  8.50000000E-01  8.50000000E-01  8.00000000E-01  8.50000000E-01  8.50000000E-01
  8.50000000E-01  8.00000000E-01  8.50000000E-01  8.50000000E-01  8.50000000E-01
  8.00000000E-01  8.50000000E-01  8.50000000E-01  8.50000000E-01  8.00000000E-01
  8.50000000E-01  8.50000000E-01  8.50000000E-01  8.00000000E-01  8.50000000E-01
  8.50000000E-01  8.50000000E-01  8.00000000E-01  8.50000000E-01  8.50000000E-01
  8.50000000E-01  8.00000000E-01  8.50000000E-01  8.50000000E-01  8.50000000E-01
  8.00000000E-01  8.50000000E-01  8.50000000E-01  8.50000000E-01  8.00000000E-01
  8.50000000E-01  8.50000000E-01  8.50000000E-01  8.00000000E-01  8.50000000E-01
  8.50000000E-01  8.50000000E-01  8.00000000E-01  8.50000000E-01  8.50000000E-01
  8.50000000E-01  8.00000000E-01  8.50000000E-01  8.50000000E-01  8.50000000E-01
  8.00000000E-01  8.50000000E-01  8.50000000E-01  8.50000000E-01  8.00000000E-01
  8.50000000E-01  8.50000000E-01  8.50000000E-01  8.00000000E-01  8.50000000E-01
  8.50000000E-01  8.50000000E-01  8.00000000E-01  8.50000000E-01  8.50000000E-01
  8.50000000E-01  8.00000000E-01  8.50000000E-01  8.50000000E-01  8.50000000E-01
  8.00000000E-01  8.50000000E-01  8.50000000E-01  8.50000000E-01  8.00000000E-01
  8.50000000E-01  8.50000000E-01  8.50000000E-01  8.00000000E-01  8.50000000E-01
  8.50000000E-01  8.50000000E-01  8.00000000E-01  8.50000000E-01  8.50000000E-01
  8.50000000E-01  8.00000000E-01  8.50000000E-01  8.50000000E-01  8.50000000E-01
  8.00000000E-01  8.50000000E-01  8.50000000E-01  8.50000000E-01  8.00000000E-01
  8.50000000E-01  8.50000000E-01  8.50000000E-01  8.00000000E-01  8.50000000E-01
  8.50000000E-01  8.50000000E-01  8.00000000E-01  8.50000000E-01  8.50000000E-01
  8.50000000E-01  8.00000000E-01  8.50000000E-01  8.50000000E-01  8.50000000E-01
  8.00000000E-01  8.50000000E-01  8.50000000E-01  8.50000000E-01  8.00000000E-01
  8.50000000E-01  8.50000000E-01  8.50000000E-01  8.00000000E-01  8.50000000E-01
  8.50000000E-01  8.50000000E-01  8.00000000E-01  8.50000000E-01  8.50000000E-01
  8.50000000E-01  8.00000000E-01  8.50000000E-01  8.50000000E-01  8.50000000E-01
  8.00000000E-01  8.50000000E-01  8.50000000E-01  8.50000000E-01  8.00000000E-01
  8.50000000E-01  8.50000000E-01  8.50000000E-01  8.00000000E-01  8.50000000E-01
  8.50000000E-01  8.50000000E-01  8.00000000E-01  8.50000000E-01  8.50000000E-01
  8.50000000E-01  8.00000000E-01  8.50000000E-01  8.50000000E-01  8.50000000E-01
  8.00000000E-01  8.50000000E-01  8.50000000E-01  8.50000000E-01  8.00000000E-01
  8.50000000E-01  8.50000000E-01  8.50000000E-01  8.00000000E-01  8.50000000E-01
  8.50000000E-01  8.50000000E-01  8.00000000E-01  8.50000000E-01  8.50000000E-01
  8.50000000E-01  8.00000000E-01  8.50000000E-01  8.50000000E-01  8.50000000E-01
  8.00000000E-01  8.50000000E-01  8.50000000E-01  8.50000000E-01  8.00000000E-01
  8.50000000E-01  8.50000000E-01  8.50000000E-01  8.00000000E-01  8.50000000E-01
  8.50000000E-01  8.50000000E-01  8.00000000E-01  8.50000000E-01  8.50000000E-01
  8.50000000E-01  8.00000000E-01  8.50000000E-01  8.50000000E-01  8.50000000E-01
  8.00000000E-01  8.50000000E-01  8.50000000E-01  8.50000000E-01  8.00000000E-01
  8.50000000E-01  8.50000000E-01  8.50000000E-01  8.00000000E-01  8.50000000E-01
  8.50000000E-01  8.50000000E-01  8.00000000E-01  8.50000000E-01  8.50000000E-01
  8.50000000E-01  8.00000000E-01  8.50000000E-01  8.50000000E-01  8.50000000E-01
  8.00000000E-01  8.50000000E-01  8.50000000E-01  8.50000000E-01  8.00000000E-01
  8.50000000E-01  8.50000000E-01  8.50000000E-01  8.00000000E-01  8.50000000E-01
  8.50000000E-01  8.50000000E-01  8.00000000E-01  8.50000000E-01  8.50000000E-01
  8.50000000E-01  8.00000000E-01  8.50000000E-01  8.50000000E-01  8.50000000E-01
  8.00000000E-01  8.50000000E-01  8.50000000E-01  8.50000000E-01  8.00000000E-01
  8.50000000E-01  8.50000000E-01  8.50000000E-01  8.00000000E-01  8.50000000E-01
  8.50000000E-01  8.50000000E-01  8.00000000E-01  8.50000000E-01  8.50000000E-01
  8.50000000E-01  8.00000000E-01  8.50000000E-01  8.50000000E-01  8.50000000E-01
  8.00000000E-01  8.50000000E-01  8.50000000E-01  8.50000000E-01  8.00000000E-01
  8.50000000E-01  8.50000000E-01  8.50000000E-01  8.00000000E-01  8.50000000E-01
  8.50000000E-01  8.50000000E-01  8.00000000E-01  8.50000000E-01  8.50000000E-01
  8.50000000E-01  8.00000000E-01  8.50000000E-01  8.50000000E-01  8.50000000E-01
  8.00000000E-01  8.50000000E-01  8.50000000E-01  8.50000000E-01  8.00000000E-01
  8.50000000E-01  8.50000000E-01  8.50000000E-01  8.00000000E-01  8.50000000E-01
  8.50000000E-01  8.50000000E-01  8.00000000E-01  8.50000000E-01  8.50000000E-01
  8.50000000E-01  8.00000000E-01  8.50000000E-01  8.50000000E-01  8.50000000E-01
  8.00000000E-01  8.50000000E-01  8.50000000E-01  8.50000000E-01  8.00000000E-01
  8.50000000E-01  8.50000000E-01  8.50000000E-01  8.00000000E-01  8.50000000E-01
  8.50000000E-01  8.50000000E-01  8.00000000E-01  8.50000000E-01  8.50000000E-01
  8.50000000E-01  8.00000000E-01  8.50000000E-01  8.50000000E-01  8.50000000E-01
  8.00000000E-01  8.50000000E-01  8.50000000E-01  8.50000000E-01  8.00000000E-01
  8.50000000E-01  8.50000000E-01  8.50000000E-01  8.00000000E-01  8.50000000E-01
  8.50000000E-01  8.50000000E-01  8.00000000E-01  8.50000000E-01  8.50000000E-01
  8.50000000E-01  8.00000000E-01  8.50000000E-01  8.50000000E-01  8.50000000E-01
  8.00000000E-01  8.50000000E-01  8.50000000E-01  8.50000000E-01  8.00000000E-01
  8.50000000E-01  8.50000000E-01  8.50000000E-01  8.00000000E-01  8.50000000E-01
  8.50000000E-01  8.50000000E-01  8.00000000E-01  8.50000000E-01  8.50000000E-01
  8.50000000E-01  8.00000000E-01  8.50000000E-01  8.50000000E-01  8.50000000E-01
  8.00000000E-01  8.50000000E-01  8.50000000E-01  8.50000000E-01  8.00000000E-01
  8.50000000E-01  8.50000000E-01  8.50000000E-01  8.00000000E-01  8.50000000E-01
  8.50000000E-01  8.50000000E-01  8.00000000E-01  8.50000000E-01  8.50000000E-01
  8.50000000E-01  8.00000000E-01  8.50000000E-01  8.50000000E-01  8.50000000E-01
  8.00000000E-01  8.50000000E-01  8.50000000E-01  8.50000000E-01  8.00000000E-01
  8.50000000E-01  8.50000000E-01  8.50000000E-01  8.00000000E-01  8.50000000E-01
  8.50000000E-01  8.50000000E-01  8.00000000E-01  8.50000000E-01  8.50000000E-01
  8.50000000E-01  8.00000000E-01  8.50000000E-01  8.50000000E-01  8.50000000E-01
  8.00000000E-01  8.50000000E-01  8.50000000E-01  8.50000000E-01  8.00000000E-01
  8.50000000E-01  8.50000000E-01  8.50000000E-01  8.00000000E-01  8.50000000E-01
  8.50000000E-01  8.50000000E-01  8.00000000E-01  8.50000000E-01  8.50000000E-01
  8.50000000E-01  8.00000000E-01  8.50000000E-01  8.50000000E-01  8.50000000E-01
  8.00000000E-01  8.50000000E-01  8.50000000E-01  8.50000000E-01  8.00000000E-01
  8.50000000E-01  8.50000000E-01  8.50000000E-01  8.00000000E-01  8.50000000E-01
  8.50000000E-01  8.50000000E-01  8.00000000E-01  8.50000000E-01  8.50000000E-01
  8.50000000E-01  8.00000000E-01  8.50000000E-01  8.50000000E-01  8.50000000E-01
  8.00000000E-01  8.50000000E-01  8.50000000E-01  8.50000000E-01  8.00000000E-01
  8.50000000E-01  8.50000000E-01  8.50000000E-01  8.00000000E-01  8.50000000E-01
  8.50000000E-01  8.50000000E-01  8.00000000E-01  8.50000000E-01  8.50000000E-01
  8.50000000E-01  8.00000000E-01  8.50000000E-01  8.50000000E-01  8.50000000E-01
  8.00000000E-01  8.50000000E-01  8.50000000E-01  8.50000000E-01  8.00000000E-01
  8.50000000E-01  8.50000000E-01  8.50000000E-01  8.00000000E-01  8.50000000E-01
  8.50000000E-01  8.50000000E-01  8.00000000E-01  8.50000000E-01  8.50000000E-01
  8.50000000E-01  8.00000000E-01  8.50000000E-01  8.50000000E-01  8.50000000E-01
  8.00000000E-01  8.50000000E-01  8.50000000E-01  8.50000000E-01  8.00000000E-01
  8.50000000E-01  8.50000000E-01  8.50000000E-01  8.00000000E-01  8.50000000E-01
  8.50000000E-01  8.50000000E-01  8.00000000E-01  8.50000000E-01  8.50000000E-01
  8.50000000E-01  8.00000000E-01  8.50000000E-01  8.50000000E-01  8.50000000E-01
  8.00000000E-01  8.50000000E-01  8.50000000E-01  8.50000000E-01  8.00000000E-01
  8.50000000E-01  8.50000000E-01  8.50000000E-01  8.00000000E-01  8.50000000E-01
  8.50000000E-01  8.50000000E-01  8.00000000E-01  8.50000000E-01  8.50000000E-01
  8.50000000E-01  8.00000000E-01  8.50000000E-01  8.50000000E-01  8.50000000E-01
  8.00000000E-01  8.50000000E-01  8.50000000E-01  8.50000000E-01  8.00000000E-01
  8.50000000E-01  8.50000000E-01  8.50000000E-01  8.00000000E-01  8.50000000E-01
  8.50000000E-01  8.50000000E-01  8.00000000E-01  8.50000000E-01  8.50000000E-01
  8.50000000E-01  8.00000000E-01  8.50000000E-01  8.50000000E-01  8.50000000E-01
  8.00000000E-01  8.50000000E-01  8.50000000E-01  8.50000000E-01  8.00000000E-01
  8.50000000E-01  8.50000000E-01  8.50000000E-01  8.00000000E-01  8.50000000E-01
  8.50000000E-01  8.50000000E-01  8.00000000E-01  8.50000000E-01  8.50000000E-01
  8.50000000E-01  8.00000000E-01  8.50000000E-01  8.50000000E-01  8.50000000E-01
  8.00000000E-01  8.50000000E-01  8.50000000E-01  8.50000000E-01  8.00000000E-01
  8.50000000E-01  8.50000000E-01  8.50000000E-01  8.00000000E-01  8.50000000E-01
  8.50000000E-01  8.50000000E-01  8.00000000E-01  8.50000000E-01  8.50000000E-01
  8.50000000E-01  8.00000000E-01  8.50000000E-01  8.50000000E-01  8.50000000E-01
  8.00000000E-01  8.50000000E-01  8.50000000E-01  8.50000000E-01  8.00000000E-01
  8.50000000E-01  8.50000000E-01  8.50000000E-01  8.00000000E-01  8.50000000E-01
  8.50000000E-01  8.50000000E-01  8.00000000E-01  8.50000000E-01  8.50000000E-01
  8.50000000E-01  8.00000000E-01  8.50000000E-01  8.50000000E-01  8.50000000E-01
  8.00000000E-01  8.50000000E-01  8.50000000E-01  8.50000000E-01  8.00000000E-01
  8.50000000E-01  8.50000000E-01  8.50000000E-01  8.00000000E-01  8.50000000E-01
  8.50000000E-01  8.50000000E-01  8.00000000E-01  8.50000000E-01  8.50000000E-01
  8.50000000E-01  8.00000000E-01  8.50000000E-01  8.50000000E-01  8.50000000E-01
  8.00000000E-01  8.50000000E-01  8.50000000E-01  8.50000000E-01  8.00000000E-01
  8.50000000E-01  8.50000000E-01  8.50000000E-01  8.00000000E-01  8.50000000E-01
  8.50000000E-01  8.50000000E-01  8.00000000E-01  8.50000000E-01  8.50000000E-01
  8.50000000E-01  8.00000000E-01  8.50000000E-01  8.50000000E-01  8.50000000E-01
  8.00000000E-01  8.50000000E-01  8.50000000E-01  8.50000000E-01  8.00000000E-01
  8.50000000E-01  8.50000000E-01  8.50000000E-01  8.00000000E-01  8.50000000E-01
  8.50000000E-01  8.50000000E-01  8.00000000E-01  8.50000000E-01  8.50000000E-01
  8.50000000E-01  8.00000000E-01  8.50000000E-01  8.50000000E-01  8.50000000E-01
  8.00000000E-01  8.50000000E-01  8.50000000E-01  8.50000000E-01  8.00000000E-01
  8.50000000E-01  8.50000000E-01  8.50000000E-01  8.00000000E-01  8.50000000E-01
  8.50000000E-01  8.50000000E-01  8.00000000E-01  8.50000000E-01  8.50000000E-01
  8.50000000E-01  8.00000000E-01  8.50000000E-01  8.50000000E-01  8.50000000E-01
  8.00000000E-01  8.50000000E-01  8.50000000E-01  8.50000000E-01  8.00000000E-01
  8.50000000E-01  8.50000000E-01  8.50000000E-01  8.00000000E-01  8.50000000E-01
  8.50000000E-01  8.50000000E-01  8.00000000E-01  8.50000000E-01  8.50000000E-01
  8.50000000E-01  8.00000000E-01  8.50000000E-01  8.50000000E-01  8.50000000E-01
  8.00000000E-01  8.50000000E-01  8.50000000E-01  8.50000000E-01  8.00000000E-01
  8.50000000E-01  8.50000000E-01  8.50000000E-01  8.00000000E-01  8.50000000E-01
  8.50000000E-01  8.50000000E-01  8.00000000E-01  8.50000000E-01  8.50000000E-01
  8.50000000E-01  8.00000000E-01  8.50000000E-01  8.50000000E-01  8.50000000E-01
  8.00000000E-01  8.50000000E-01  8.50000000E-01  8.50000000E-01  8.00000000E-01
  8.50000000E-01  8.50000000E-01  8.50000000E-01  8.00000000E-01  8.50000000E-01
  8.50000000E-01  8.50000000E-01  8.00000000E-01  8.50000000E-01  8.50000000E-01
  8.50000000E-01  8.00000000E-01  8.50000000E-01  8.50000000E-01  8.50000000E-01
  8.00000000E-01  8.50000000E-01  8.50000000E-01  8.50000000E-01  8.00000000E-01
  8.50000000E-01  8.50000000E-01  8.50000000E-01  8.00000000E-01  8.50000000E-01
  8.50000000E-01  8.50000000E-01  8.00000000E-01  8.50000000E-01  8.50000000E-01
  8.50000000E-01  8.00000000E-01  8.50000000E-01  8.50000000E-01  8.50000000E-01
  8.00000000E-01  8.50000000E-01  8.50000000E-01  8.50000000E-01  8.00000000E-01
  8.50000000E-01  8.50000000E-01  8.50000000E-01  8.00000000E-01  8.50000000E-01
  8.50000000E-01  8.50000000E-01  8.00000000E-01  8.50000000E-01  8.50000000E-01
  8.50000000E-01  8.00000000E-01  8.50000000E-01  8.50000000E-01  8.50000000E-01
  8.00000000E-01  8.50000000E-01  8.50000000E-01  8.50000000E-01  8.00000000E-01
  8.50000000E-01  8.50000000E-01  8.50000000E-01  8.00000000E-01  8.50000000E-01
  8.50000000E-01  8.50000000E-01  8.00000000E-01  8.50000000E-01  8.50000000E-01
  8.50000000E-01  8.00000000E-01  8.50000000E-01  8.50000000E-01  8.50000000E-01
  8.00000000E-01  8.50000000E-01  8.50000000E-01  8.50000000E-01  8.00000000E-01
  8.50000000E-01  8.50000000E-01  8.50000000E-01  8.00000000E-01  8.50000000E-01
  8.50000000E-01  8.50000000E-01  8.00000000E-01  8.50000000E-01  8.50000000E-01
  8.50000000E-01  8.00000000E-01  8.50000000E-01  8.50000000E-01  8.50000000E-01
  8.00000000E-01  8.50000000E-01  8.50000000E-01  8.50000000E-01  8.00000000E-01
  8.50000000E-01  8.50000000E-01  8.50000000E-01  8.00000000E-01  8.50000000E-01
  8.50000000E-01  8.50000000E-01  8.00000000E-01  8.50000000E-01  8.50000000E-01
  8.50000000E-01  8.00000000E-01  8.50000000E-01  8.50000000E-01  8.50000000E-01
  8.00000000E-01  8.50000000E-01  8.50000000E-01  8.50000000E-01  8.00000000E-01
  8.50000000E-01  8.50000000E-01  8.50000000E-01  8.00000000E-01  8.50000000E-01
  8.50000000E-01  8.50000000E-01  8.00000000E-01  8.50000000E-01  8.50000000E-01
  8.50000000E-01  8.00000000E-01  8.50000000E-01  8.50000000E-01  8.50000000E-01
  8.00000000E-01  8.50000000E-01  8.50000000E-01  8.50000000E-01  8.00000000E-01
  8.50000000E-01  8.50000000E-01  8.50000000E-01  8.00000000E-01  8.50000000E-01
  8.50000000E-01  8.50000000E-01  8.00000000E-01  8.50000000E-01  8.50000000E-01
  8.50000000E-01  8.00000000E-01  8.50000000E-01  8.50000000E-01  8.50000000E-01
  8.00000000E-01  8.50000000E-01  8.50000000E-01  8.50000000E-01  8.00000000E-01
  8.50000000E-01  8.50000000E-01  8.50000000E-01  8.00000000E-01  8.50000000E-01
  8.50000000E-01  8.50000000E-01  8.00000000E-01  8.50000000E-01  8.50000000E-01
  8.50000000E-01  8.00000000E-01  8.50000000E-01  8.50000000E-01  8.50000000E-01
  8.00000000E-01  8.50000000E-01  8.50000000E-01  8.50000000E-01  8.00000000E-01
  8.50000000E-01  8.50000000E-01  8.50000000E-01  8.00000000E-01  8.50000000E-01
  8.50000000E-01  8.50000000E-01  8.00000000E-01  8.50000000E-01  8.50000000E-01
  8.50000000E-01  8.00000000E-01  8.50000000E-01  8.50000000E-01  8.50000000E-01
  8.00000000E-01  8.50000000E-01  8.50000000E-01  8.50000000E-01  8.00000000E-01
  8.50000000E-01  8.50000000E-01  8.50000000E-01  8.00000000E-01  8.50000000E-01
  8.50000000E-01  8.50000000E-01  8.00000000E-01  8.50000000E-01  8.50000000E-01
  8.50000000E-01  8.00000000E-01  8.50000000E-01  8.50000000E-01  8.50000000E-01
  8.00000000E-01  8.50000000E-01  8.50000000E-01  8.50000000E-01  8.00000000E-01
  8.50000000E-01  8.50000000E-01  8.50000000E-01  8.00000000E-01  8.50000000E-01
  8.50000000E-01  8.50000000E-01  8.00000000E-01  8.50000000E-01  8.50000000E-01
  8.50000000E-01  8.00000000E-01  8.50000000E-01  8.50000000E-01  8.50000000E-01
  8.00000000E-01  8.50000000E-01  8.50000000E-01  8.50000000E-01  8.00000000E-01
  8.50000000E-01  8.50000000E-01  8.50000000E-01  8.00000000E-01  8.50000000E-01
  8.50000000E-01  8.50000000E-01  8.00000000E-01  8.50000000E-01  8.50000000E-01
  8.50000000E-01  8.00000000E-01  8.50000000E-01  8.50000000E-01  8.50000000E-01
  8.00000000E-01  8.50000000E-01  8.50000000E-01  8.50000000E-01  8.00000000E-01
  8.50000000E-01  8.50000000E-01  8.50000000E-01  8.00000000E-01  8.50000000E-01
  8.50000000E-01  8.50000000E-01  8.00000000E-01  8.50000000E-01  8.50000000E-01
  8.50000000E-01  8.00000000E-01  8.50000000E-01  8.50000000E-01  8.50000000E-01
  8.00000000E-01  8.50000000E-01  8.50000000E-01  8.50000000E-01  8.00000000E-01
  8.50000000E-01  8.50000000E-01  8.50000000E-01  8.00000000E-01  8.50000000E-01
  8.50000000E-01  8.50000000E-01  8.00000000E-01  8.50000000E-01  8.50000000E-01
  8.50000000E-01  8.00000000E-01  8.50000000E-01  8.50000000E-01  8.50000000E-01
  8.00000000E-01  8.50000000E-01  8.50000000E-01  8.50000000E-01  8.00000000E-01
  8.50000000E-01  8.50000000E-01  8.50000000E-01  8.00000000E-01  8.50000000E-01
  8.50000000E-01  8.50000000E-01  8.00000000E-01  8.50000000E-01  8.50000000E-01
  8.50000000E-01  8.00000000E-01  8.50000000E-01  8.50000000E-01  8.50000000E-01
  8.00000000E-01  8.50000000E-01  8.50000000E-01  8.50000000E-01  8.00000000E-01
  8.50000000E-01  8.50000000E-01  8.50000000E-01  8.00000000E-01  8.50000000E-01
  8.50000000E-01  8.50000000E-01  8.00000000E-01  8.50000000E-01  8.50000000E-01
  8.50000000E-01  8.00000000E-01  8.50000000E-01  8.50000000E-01  8.50000000E-01
  8.00000000E-01  8.50000000E-01  8.50000000E-01  8.50000000E-01  8.00000000E-01
  8.50000000E-01  8.50000000E-01  8.50000000E-01  8.00000000E-01  8.50000000E-01
  8.50000000E-01  8.50000000E-01  8.00000000E-01  8.50000000E-01  8.50000000E-01
  8.50000000E-01  8.00000000E-01  8.50000000E-01  8.50000000E-01  8.50000000E-01
  8.00000000E-01  8.50000000E-01  8.50000000E-01  8.50000000E-01  8.00000000E-01
  8.50000000E-01  8.50000000E-01  8.50000000E-01  8.00000000E-01  8.50000000E-01
  8.50000000E-01  8.50000000E-01  8.00000000E-01  8.50000000E-01  8.50000000E-01
  8.50000000E-01  8.00000000E-01  8.50000000E-01  8.50000000E-01  8.50000000E-01
  8.00000000E-01  8.50000000E-01  8.50000000E-01  8.50000000E-01  8.00000000E-01
  8.50000000E-01  8.50000000E-01  8.50000000E-01  8.00000000E-01  8.50000000E-01
  8.50000000E-01  8.50000000E-01  8.00000000E-01  8.50000000E-01  8.50000000E-01
  8.50000000E-01  8.00000000E-01  8.50000000E-01  8.50000000E-01  8.50000000E-01
  8.00000000E-01  8.50000000E-01  8.50000000E-01  8.50000000E-01  8.00000000E-01
  8.50000000E-01  8.50000000E-01  8.50000000E-01  8.00000000E-01  8.50000000E-01
  8.50000000E-01  8.50000000E-01  8.00000000E-01  8.50000000E-01  8.50000000E-01
  8.50000000E-01  8.00000000E-01  8.50000000E-01  8.50000000E-01  8.50000000E-01
  8.00000000E-01  8.50000000E-01  8.50000000E-01  8.50000000E-01  8.00000000E-01
  8.50000000E-01  8.50000000E-01  8.50000000E-01  8.00000000E-01  8.50000000E-01
  8.50000000E-01  8.50000000E-01  8.00000000E-01  8.50000000E-01  8.50000000E-01
  8.50000000E-01  8.00000000E-01  8.50000000E-01  8.50000000E-01  8.50000000E-01
  8.00000000E-01  8.50000000E-01  8.50000000E-01  8.50000000E-01  8.00000000E-01
  8.50000000E-01  8.50000000E-01  8.50000000E-01  8.00000000E-01  8.50000000E-01
  8.50000000E-01  8.50000000E-01  8.00000000E-01  8.50000000E-01  8.50000000E-01
  8.50000000E-01  8.00000000E-01  8.50000000E-01  8.50000000E-01  8.50000000E-01
  8.00000000E-01  8.50000000E-01  8.50000000E-01  8.50000000E-01  8.00000000E-01
  8.50000000E-01  8.50000000E-01  8.50000000E-01  8.00000000E-01  8.50000000E-01
  8.50000000E-01  8.50000000E-01  8.00000000E-01  8.50000000E-01  8.50000000E-01
  8.50000000E-01  8.00000000E-01  8.50000000E-01  8.50000000E-01  8.50000000E-01
  8.00000000E-01  8.50000000E-01  8.50000000E-01  8.50000000E-01  8.00000000E-01
  8.50000000E-01  8.50000000E-01  8.50000000E-01  8.00000000E-01  8.50000000E-01
  8.50000000E-01  8.50000000E-01  8.00000000E-01  8.50000000E-01  8.50000000E-01
  8.50000000E-01  8.00000000E-01  8.50000000E-01  8.50000000E-01  8.50000000E-01
  8.00000000E-01  8.50000000E-01  8.50000000E-01  8.50000000E-01  8.00000000E-01
  8.50000000E-01  8.50000000E-01  8.50000000E-01  8.00000000E-01  8.50000000E-01
  8.50000000E-01  8.50000000E-01  8.00000000E-01  8.50000000E-01  8.50000000E-01
  8.50000000E-01  8.00000000E-01  8.50000000E-01  8.50000000E-01  8.50000000E-01
  8.00000000E-01  8.50000000E-01  8.50000000E-01  8.50000000E-01  8.00000000E-01
  8.50000000E-01  8.50000000E-01  8.50000000E-01  8.00000000E-01  8.50000000E-01
  8.50000000E-01  8.50000000E-01  8.00000000E-01  8.50000000E-01  8.50000000E-01
  8.50000000E-01  8.00000000E-01  8.50000000E-01  8.50000000E-01  8.50000000E-01
  8.00000000E-01  8.50000000E-01  8.50000000E-01  8.50000000E-01  8.00000000E-01
  8.50000000E-01  8.50000000E-01  8.50000000E-01  8.00000000E-01  8.50000000E-01
  8.50000000E-01  8.50000000E-01  8.00000000E-01  8.50000000E-01  8.50000000E-01
  8.50000000E-01  8.00000000E-01  8.50000000E-01  8.50000000E-01  8.50000000E-01
  8.00000000E-01  8.50000000E-01  8.50000000E-01  8.50000000E-01  8.00000000E-01
  8.50000000E-01  8.50000000E-01  8.50000000E-01  8.00000000E-01  8.50000000E-01
  8.50000000E-01  8.50000000E-01  8.00000000E-01  8.50000000E-01  8.50000000E-01
  8.50000000E-01  8.00000000E-01  8.50000000E-01  8.50000000E-01  8.50000000E-01
  8.00000000E-01  8.50000000E-01  8.50000000E-01  8.50000000E-01  8.00000000E-01
  8.50000000E-01  8.50000000E-01  8.50000000E-01  8.00000000E-01  8.50000000E-01
  8.50000000E-01  8.50000000E-01  8.00000000E-01  8.50000000E-01  8.50000000E-01
  8.50000000E-01  8.00000000E-01  8.50000000E-01  8.50000000E-01  8.50000000E-01
  8.00000000E-01  8.50000000E-01  8.50000000E-01  8.50000000E-01  8.00000000E-01
  8.50000000E-01  8.50000000E-01  8.50000000E-01  8.00000000E-01  8.50000000E-01
  8.50000000E-01  8.50000000E-01  8.00000000E-01  8.50000000E-01  8.50000000E-01
  8.50000000E-01  8.00000000E-01  8.50000000E-01  8.50000000E-01  8.50000000E-01
  8.00000000E-01  8.50000000E-01  8.50000000E-01  8.50000000E-01  8.00000000E-01
  8.50000000E-01  8.50000000E-01  8.50000000E-01  8.00000000E-01  8.50000000E-01
  8.50000000E-01  8.50000000E-01  8.00000000E-01  8.50000000E-01  8.50000000E-01
  8.50000000E-01  8.00000000E-01  8.50000000E-01  8.50000000E-01  8.50000000E-01
  8.00000000E-01  8.50000000E-01  8.50000000E-01  8.50000000E-01  8.00000000E-01
  8.50000000E-01  8.50000000E-01  8.50000000E-01  8.00000000E-01  8.50000000E-01
  8.50000000E-01  8.50000000E-01  8.00000000E-01  8.50000000E-01  8.50000000E-01
  8.50000000E-01  8.00000000E-01  8.50000000E-01  8.50000000E-01  8.50000000E-01
  8.00000000E-01  8.50000000E-01  8.50000000E-01  8.50000000E-01  8.00000000E-01
  8.50000000E-01  8.50000000E-01  8.50000000E-01  8.00000000E-01  8.50000000E-01
  8.50000000E-01  8.50000000E-01  8.00000000E-01  8.50000000E-01  8.50000000E-01
  8.50000000E-01  8.00000000E-01  8.50000000E-01  8.50000000E-01  8.50000000E-01
  8.00000000E-01  8.50000000E-01  8.50000000E-01  8.50000000E-01  8.00000000E-01
  8.50000000E-01  8.50000000E-01  8.50000000E-01  8.00000000E-01  8.50000000E-01
  8.50000000E-01  8.50000000E-01  8.00000000E-01  8.50000000E-01  8.50000000E-01
  8.50000000E-01  8.00000000E-01  8.50000000E-01  8.50000000E-01  8.50000000E-01
  8.00000000E-01  8.50000000E-01  8.50000000E-01  8.50000000E-01  8.00000000E-01
  8.50000000E-01  8.50000000E-01  8.50000000E-01  8.00000000E-01  8.50000000E-01
  8.50000000E-01  8.50000000E-01  8.00000000E-01  8.50000000E-01  8.50000000E-01
  8.50000000E-01  8.00000000E-01  8.50000000E-01  8.50000000E-01  8.50000000E-01
  8.00000000E-01  8.50000000E-01  8.50000000E-01  8.50000000E-01  8.00000000E-01
  8.50000000E-01  8.50000000E-01  8.50000000E-01  8.00000000E-01  8.50000000E-01
  8.50000000E-01  8.50000000E-01  8.00000000E-01  8.50000000E-01  8.50000000E-01
  8.50000000E-01  8.00000000E-01  8.50000000E-01  8.50000000E-01  8.50000000E-01
  8.00000000E-01  8.50000000E-01  8.50000000E-01  8.50000000E-01  8.00000000E-01
  8.50000000E-01  8.50000000E-01  8.50000000E-01  8.00000000E-01  8.50000000E-01
  8.50000000E-01  8.50000000E-01  8.00000000E-01  8.50000000E-01  8.50000000E-01
  8.50000000E-01  8.00000000E-01  8.50000000E-01  8.50000000E-01  8.50000000E-01
  8.00000000E-01  8.50000000E-01  8.50000000E-01  8.50000000E-01  8.00000000E-01
  8.50000000E-01  8.50000000E-01  8.50000000E-01  8.00000000E-01  8.50000000E-01
  8.50000000E-01  8.50000000E-01  8.00000000E-01  8.50000000E-01  8.50000000E-01
  8.50000000E-01  8.00000000E-01  8.50000000E-01  8.50000000E-01  8.50000000E-01
  8.00000000E-01  8.50000000E-01  8.50000000E-01  8.50000000E-01  8.00000000E-01
  8.50000000E-01  8.50000000E-01  8.50000000E-01  8.00000000E-01  8.50000000E-01
  8.50000000E-01  8.50000000E-01  8.00000000E-01  8.50000000E-01  8.50000000E-01
  8.50000000E-01  8.00000000E-01  8.50000000E-01  8.50000000E-01  8.50000000E-01
  8.00000000E-01  8.50000000E-01  8.50000000E-01  8.50000000E-01  8.00000000E-01
  8.50000000E-01  8.50000000E-01  8.50000000E-01  8.00000000E-01  8.50000000E-01
  8.50000000E-01  8.50000000E-01  8.00000000E-01  8.50000000E-01  8.50000000E-01
  8.50000000E-01  8.00000000E-01  8.50000000E-01  8.50000000E-01  8.50000000E-01
  8.00000000E-01  8.50000000E-01  8.50000000E-01  8.50000000E-01  8.00000000E-01
  8.50000000E-01  8.50000000E-01  8.50000000E-01  8.00000000E-01  8.50000000E-01
  8.50000000E-01  8.50000000E-01  8.00000000E-01  8.50000000E-01  8.50000000E-01
  8.50000000E-01  8.00000000E-01  8.50000000E-01  8.50000000E-01  8.50000000E-01
  8.00000000E-01  8.50000000E-01  8.50000000E-01  8.50000000E-01  8.00000000E-01
  8.50000000E-01  8.50000000E-01  8.50000000E-01  8.00000000E-01  8.50000000E-01
  8.50000000E-01  8.50000000E-01  8.00000000E-01  8.50000000E-01  8.50000000E-01
  8.50000000E-01  8.00000000E-01  8.50000000E-01  8.50000000E-01  8.50000000E-01
  8.00000000E-01  8.50000000E-01  8.50000000E-01  8.50000000E-01  8.00000000E-01
  8.50000000E-01  8.50000000E-01  8.50000000E-01  8.00000000E-01  8.50000000E-01
  8.50000000E-01  8.50000000E-01  8.00000000E-01  8.50000000E-01  8.50000000E-01
  8.50000000E-01  8.00000000E-01  8.50000000E-01  8.50000000E-01  8.50000000E-01
  8.00000000E-01  8.50000000E-01  8.50000000E-01  8.50000000E-01  8.00000000E-01
  8.50000000E-01  8.50000000E-01  8.50000000E-01  8.00000000E-01  8.50000000E-01
  8.50000000E-01  8.50000000E-01  8.00000000E-01  8.50000000E-01  8.50000000E-01
  8.50000000E-01  8.00000000E-01  8.50000000E-01  8.50000000E-01  8.50000000E-01
  8.00000000E-01  8.50000000E-01  8.50000000E-01  8.50000000E-01  8.00000000E-01
  8.50000000E-01  8.50000000E-01  8.50000000E-01  8.00000000E-01  8.50000000E-01
  8.50000000E-01  8.50000000E-01  8.00000000E-01  8.50000000E-01  8.50000000E-01
  8.50000000E-01  8.00000000E-01  8.50000000E-01  8.50000000E-01  8.50000000E-01
  8.00000000E-01  8.50000000E-01  8.50000000E-01  8.50000000E-01  8.00000000E-01
  8.50000000E-01  8.50000000E-01  8.50000000E-01  8.00000000E-01  8.50000000E-01
  8.50000000E-01  8.50000000E-01  8.00000000E-01  8.50000000E-01  8.50000000E-01
  8.50000000E-01  8.00000000E-01  8.50000000E-01  8.50000000E-01  8.50000000E-01
  8.00000000E-01  8.50000000E-01  8.50000000E-01  8.50000000E-01  8.00000000E-01
  8.50000000E-01  8.50000000E-01  8.50000000E-01  8.00000000E-01  8.50000000E-01
  8.50000000E-01  8.50000000E-01  8.00000000E-01  8.50000000E-01  8.50000000E-01
  8.50000000E-01  8.00000000E-01  8.50000000E-01  8.50000000E-01  8.50000000E-01
  8.00000000E-01  8.50000000E-01  8.50000000E-01  8.50000000E-01  8.00000000E-01
  8.50000000E-01  8.50000000E-01  8.50000000E-01  8.00000000E-01  8.50000000E-01
  8.50000000E-01  8.50000000E-01  8.00000000E-01  8.50000000E-01  8.50000000E-01
  8.50000000E-01  8.00000000E-01  8.50000000E-01  8.50000000E-01  8.50000000E-01
  8.00000000E-01  8.50000000E-01  8.50000000E-01  8.50000000E-01  8.00000000E-01
  8.50000000E-01  8.50000000E-01  8.50000000E-01  8.00000000E-01  8.50000000E-01
  8.50000000E-01  8.50000000E-01  8.00000000E-01  8.50000000E-01  8.50000000E-01
  8.50000000E-01  8.00000000E-01  8.50000000E-01  8.50000000E-01  8.50000000E-01
  8.00000000E-01  8.50000000E-01  8.50000000E-01  8.50000000E-01  8.00000000E-01
  8.50000000E-01  8.50000000E-01  8.50000000E-01  8.00000000E-01  8.50000000E-01
  8.50000000E-01  8.50000000E-01  8.00000000E-01  8.50000000E-01  8.50000000E-01
  8.50000000E-01  8.00000000E-01  8.50000000E-01  8.50000000E-01  8.50000000E-01
  8.00000000E-01  8.50000000E-01  8.50000000E-01  8.50000000E-01  8.00000000E-01
  8.50000000E-01  8.50000000E-01  8.50000000E-01  8.00000000E-01  8.50000000E-01
  8.50000000E-01  8.50000000E-01  8.00000000E-01  8.50000000E-01  8.50000000E-01
  8.50000000E-01  8.00000000E-01  8.50000000E-01  8.50000000E-01  8.50000000E-01
  8.00000000E-01  8.50000000E-01  8.50000000E-01  8.50000000E-01  8.00000000E-01
  8.50000000E-01  8.50000000E-01  8.50000000E-01  8.00000000E-01  8.50000000E-01
  8.50000000E-01  8.50000000E-01  8.00000000E-01  8.50000000E-01  8.50000000E-01
  8.50000000E-01  8.00000000E-01  8.50000000E-01  8.50000000E-01  8.50000000E-01
  8.00000000E-01  8.50000000E-01  8.50000000E-01  8.50000000E-01  8.00000000E-01
  8.50000000E-01  8.50000000E-01  8.50000000E-01  8.00000000E-01  8.50000000E-01
  8.50000000E-01  8.50000000E-01  8.00000000E-01  8.50000000E-01  8.50000000E-01
  8.50000000E-01  8.00000000E-01  8.50000000E-01  8.50000000E-01  8.50000000E-01
  8.00000000E-01  8.50000000E-01  8.50000000E-01  8.50000000E-01  8.00000000E-01
  8.50000000E-01  8.50000000E-01  8.50000000E-01  8.00000000E-01  8.50000000E-01
  8.50000000E-01  8.50000000E-01  8.00000000E-01  8.50000000E-01  8.50000000E-01
  8.50000000E-01  8.00000000E-01  8.50000000E-01  8.50000000E-01  8.50000000E-01
  8.00000000E-01  8.50000000E-01  8.50000000E-01  8.50000000E-01  8.00000000E-01
  8.50000000E-01  8.50000000E-01  8.50000000E-01  8.00000000E-01  8.50000000E-01
  8.50000000E-01  8.50000000E-01  8.00000000E-01  8.50000000E-01  8.50000000E-01
  8.50000000E-01  8.00000000E-01  8.50000000E-01  8.50000000E-01  8.50000000E-01
  8.00000000E-01  8.50000000E-01  8.50000000E-01  8.50000000E-01  8.00000000E-01
  8.50000000E-01  8.50000000E-01  8.50000000E-01  8.00000000E-01  8.50000000E-01
  8.50000000E-01  8.50000000E-01  8.00000000E-01  8.50000000E-01  8.50000000E-01
  8.50000000E-01  8.00000000E-01  8.50000000E-01  8.50000000E-01  8.50000000E-01
  8.00000000E-01  8.50000000E-01  8.50000000E-01  8.50000000E-01  8.00000000E-01
  8.50000000E-01  8.50000000E-01  8.50000000E-01  8.00000000E-01  8.50000000E-01
  8.50000000E-01  8.50000000E-01  8.00000000E-01  8.50000000E-01  8.50000000E-01
  8.50000000E-01  8.00000000E-01  8.50000000E-01  8.50000000E-01  8.50000000E-01
  8.00000000E-01  8.50000000E-01  8.50000000E-01  8.50000000E-01  8.00000000E-01
  8.50000000E-01  8.50000000E-01  8.50000000E-01  8.00000000E-01  8.50000000E-01
  8.50000000E-01  8.50000000E-01  8.00000000E-01  8.50000000E-01  8.50000000E-01
  8.50000000E-01  8.00000000E-01  8.50000000E-01  8.50000000E-01  8.50000000E-01
  8.00000000E-01  8.50000000E-01  8.50000000E-01  8.50000000E-01  8.00000000E-01
  8.50000000E-01  8.50000000E-01  8.50000000E-01  8.00000000E-01  8.50000000E-01
  8.50000000E-01  8.50000000E-01  8.00000000E-01  8.50000000E-01  8.50000000E-01
  8.50000000E-01  8.00000000E-01  8.50000000E-01  8.50000000E-01  8.50000000E-01
  8.00000000E-01  8.50000000E-01  8.50000000E-01  8.50000000E-01  8.00000000E-01
  8.50000000E-01  8.50000000E-01  8.50000000E-01  8.00000000E-01  8.50000000E-01
  8.50000000E-01  8.50000000E-01  8.00000000E-01  8.50000000E-01  8.50000000E-01
  8.50000000E-01  8.00000000E-01  8.50000000E-01  8.50000000E-01  8.50000000E-01
  8.00000000E-01  8.50000000E-01  8.50000000E-01  8.50000000E-01  8.00000000E-01
  8.50000000E-01  8.50000000E-01  8.50000000E-01  8.00000000E-01  8.50000000E-01
  8.50000000E-01  8.50000000E-01  8.00000000E-01  8.50000000E-01  8.50000000E-01
  8.50000000E-01  8.00000000E-01  8.50000000E-01  8.50000000E-01  8.50000000E-01
  8.00000000E-01  8.50000000E-01  8.50000000E-01  8.50000000E-01  8.00000000E-01
  8.50000000E-01  8.50000000E-01  8.50000000E-01  8.00000000E-01  8.50000000E-01
  8.50000000E-01  8.50000000E-01  8.00000000E-01  8.50000000E-01  8.50000000E-01
  8.50000000E-01  8.00000000E-01  8.50000000E-01  8.50000000E-01  8.50000000E-01
  8.00000000E-01  8.50000000E-01  8.50000000E-01  8.50000000E-01  8.00000000E-01
  8.50000000E-01  8.50000000E-01  8.50000000E-01  8.00000000E-01  8.50000000E-01
  8.50000000E-01  8.50000000E-01  8.00000000E-01  8.50000000E-01  8.50000000E-01
  8.50000000E-01  8.00000000E-01  8.50000000E-01  8.50000000E-01  8.50000000E-01
  8.00000000E-01  8.50000000E-01  8.50000000E-01  8.50000000E-01  8.00000000E-01
  8.50000000E-01  8.50000000E-01  8.50000000E-01  8.00000000E-01  8.50000000E-01
  8.50000000E-01  8.50000000E-01  8.00000000E-01  8.50000000E-01  8.50000000E-01
  8.50000000E-01  8.00000000E-01  8.50000000E-01  8.50000000E-01  8.50000000E-01
  8.00000000E-01  8.50000000E-01  8.50000000E-01  8.50000000E-01  8.00000000E-01
  8.50000000E-01  8.50000000E-01  8.50000000E-01  8.00000000E-01  8.50000000E-01
  8.50000000E-01  8.50000000E-01  8.00000000E-01  8.50000000E-01  8.50000000E-01
  8.50000000E-01  8.00000000E-01  8.50000000E-01  8.50000000E-01  8.50000000E-01
  8.00000000E-01  8.50000000E-01  8.50000000E-01  8.50000000E-01  8.00000000E-01
  8.50000000E-01  8.50000000E-01  8.50000000E-01  8.00000000E-01  8.50000000E-01
  8.50000000E-01  8.50000000E-01  8.00000000E-01  8.50000000E-01  8.50000000E-01
  8.50000000E-01  8.00000000E-01  8.50000000E-01  8.50000000E-01  8.50000000E-01
  8.00000000E-01  8.50000000E-01  8.50000000E-01  8.50000000E-01  8.00000000E-01
  8.50000000E-01  8.50000000E-01  8.50000000E-01  8.00000000E-01  8.50000000E-01
  8.50000000E-01  8.50000000E-01  8.00000000E-01  8.50000000E-01  8.50000000E-01
  8.50000000E-01  8.00000000E-01  8.50000000E-01  8.50000000E-01  8.50000000E-01
  8.00000000E-01  8.50000000E-01  8.50000000E-01  8.50000000E-01  8.00000000E-01
  8.50000000E-01  8.50000000E-01  8.50000000E-01  8.00000000E-01  8.50000000E-01
  8.50000000E-01  8.50000000E-01  8.00000000E-01  8.50000000E-01  8.50000000E-01
  8.50000000E-01  8.00000000E-01  8.50000000E-01  8.50000000E-01  8.50000000E-01
  8.00000000E-01  8.50000000E-01  8.50000000E-01  8.50000000E-01  8.00000000E-01
  8.50000000E-01  8.50000000E-01  8.50000000E-01  8.00000000E-01  8.50000000E-01
  8.50000000E-01  8.50000000E-01  8.00000000E-01  8.50000000E-01  8.50000000E-01
  8.50000000E-01  8.00000000E-01  8.50000000E-01  8.50000000E-01  8.50000000E-01
  8.00000000E-01  8.50000000E-01  8.50000000E-01  8.50000000E-01  8.00000000E-01
  8.50000000E-01  8.50000000E-01  8.50000000E-01  8.00000000E-01  8.50000000E-01
  8.50000000E-01  8.50000000E-01  8.00000000E-01  8.50000000E-01  8.50000000E-01
  8.50000000E-01  8.00000000E-01  8.50000000E-01  8.50000000E-01  8.50000000E-01
  8.00000000E-01  8.50000000E-01  8.50000000E-01  8.50000000E-01  8.00000000E-01
  8.50000000E-01  8.50000000E-01  8.50000000E-01  8.00000000E-01  8.50000000E-01
  8.50000000E-01  8.50000000E-01  8.00000000E-01  8.50000000E-01  8.50000000E-01
  8.50000000E-01  8.00000000E-01  8.50000000E-01  8.50000000E-01  8.50000000E-01
  8.00000000E-01  8.50000000E-01  8.50000000E-01  8.50000000E-01  8.00000000E-01
  8.50000000E-01  8.50000000E-01  8.50000000E-01  8.00000000E-01  8.50000000E-01
  8.50000000E-01  8.50000000E-01  8.00000000E-01  8.50000000E-01  8.50000000E-01
  8.50000000E-01  8.00000000E-01  8.50000000E-01  8.50000000E-01  8.50000000E-01
  8.00000000E-01  8.50000000E-01  8.50000000E-01  8.50000000E-01  8.00000000E-01
  8.50000000E-01  8.50000000E-01  8.50000000E-01  8.00000000E-01  8.50000000E-01
  8.50000000E-01  8.50000000E-01  8.00000000E-01  8.50000000E-01  8.50000000E-01
  8.50000000E-01  8.00000000E-01  8.50000000E-01  8.50000000E-01  8.50000000E-01
  8.00000000E-01  8.50000000E-01  8.50000000E-01  8.50000000E-01  8.00000000E-01
  8.50000000E-01  8.50000000E-01  8.50000000E-01  8.00000000E-01  8.50000000E-01
  8.50000000E-01  8.50000000E-01  8.00000000E-01  8.50000000E-01  8.50000000E-01
  8.50000000E-01  8.00000000E-01  8.50000000E-01  8.50000000E-01  8.50000000E-01
  8.00000000E-01  8.50000000E-01  8.50000000E-01  8.50000000E-01  8.00000000E-01
  8.50000000E-01  8.50000000E-01  8.50000000E-01  8.00000000E-01  8.50000000E-01
  8.50000000E-01  8.50000000E-01  8.00000000E-01  8.50000000E-01  8.50000000E-01
  8.50000000E-01  8.00000000E-01  8.50000000E-01  8.50000000E-01  8.50000000E-01
  8.00000000E-01  8.50000000E-01  8.50000000E-01  8.50000000E-01  8.00000000E-01
  8.50000000E-01  8.50000000E-01  8.50000000E-01  8.00000000E-01  8.50000000E-01
  8.50000000E-01  8.50000000E-01  8.00000000E-01  8.50000000E-01  8.50000000E-01
  8.50000000E-01  8.00000000E-01  8.50000000E-01  8.50000000E-01  8.50000000E-01
  8.00000000E-01  8.50000000E-01  8.50000000E-01  8.50000000E-01  8.00000000E-01
  8.50000000E-01  8.50000000E-01  8.50000000E-01  8.00000000E-01  8.50000000E-01
  8.50000000E-01  8.50000000E-01  8.00000000E-01  8.50000000E-01  8.50000000E-01
  8.50000000E-01  8.00000000E-01  8.50000000E-01  8.50000000E-01  8.50000000E-01
  8.00000000E-01  8.50000000E-01  8.50000000E-01  8.50000000E-01  8.00000000E-01
  8.50000000E-01  8.50000000E-01  8.50000000E-01  8.00000000E-01  8.50000000E-01
  8.50000000E-01  8.50000000E-01  8.00000000E-01  8.50000000E-01  8.50000000E-01
  8.50000000E-01  8.00000000E-01  8.50000000E-01  8.50000000E-01  8.50000000E-01
  8.00000000E-01  8.50000000E-01  8.50000000E-01  8.50000000E-01  8.00000000E-01
  8.50000000E-01  8.50000000E-01  8.50000000E-01  8.00000000E-01  8.50000000E-01
  8.50000000E-01  8.50000000E-01  8.00000000E-01  8.50000000E-01  8.50000000E-01
  8.50000000E-01  8.00000000E-01  8.50000000E-01  8.50000000E-01  8.50000000E-01
  8.00000000E-01  8.50000000E-01  8.50000000E-01  8.50000000E-01  8.00000000E-01
  8.50000000E-01  8.50000000E-01  8.50000000E-01  8.00000000E-01  8.50000000E-01
  8.50000000E-01  8.50000000E-01  8.00000000E-01  8.50000000E-01  8.50000000E-01
  8.50000000E-01  8.00000000E-01  8.50000000E-01  8.50000000E-01  8.50000000E-01
  8.00000000E-01  8.50000000E-01  8.50000000E-01  8.50000000E-01  8.00000000E-01
  8.50000000E-01  8.50000000E-01  8.50000000E-01  8.00000000E-01  8.50000000E-01
  8.50000000E-01  8.50000000E-01  8.00000000E-01  8.50000000E-01  8.50000000E-01
  8.50000000E-01  8.00000000E-01  8.50000000E-01  8.50000000E-01  8.50000000E-01
  8.00000000E-01  8.50000000E-01  8.50000000E-01  8.50000000E-01  8.00000000E-01
  8.50000000E-01  8.50000000E-01  8.50000000E-01  8.00000000E-01  8.50000000E-01
  8.50000000E-01  8.50000000E-01  8.00000000E-01  8.50000000E-01  8.50000000E-01
  8.50000000E-01  8.00000000E-01  8.50000000E-01  8.50000000E-01  8.50000000E-01
  8.00000000E-01  8.50000000E-01  8.50000000E-01  8.50000000E-01  8.00000000E-01
  8.50000000E-01  8.50000000E-01  8.50000000E-01  8.00000000E-01  8.50000000E-01
  8.50000000E-01  8.50000000E-01  8.00000000E-01  8.50000000E-01  8.50000000E-01
  8.50000000E-01  8.00000000E-01  8.50000000E-01  8.50000000E-01  8.50000000E-01
  8.00000000E-01  8.50000000E-01  8.50000000E-01  8.50000000E-01  8.00000000E-01
  8.50000000E-01  8.50000000E-01  8.50000000E-01  8.00000000E-01  8.50000000E-01
  8.50000000E-01  8.50000000E-01  8.00000000E-01  8.50000000E-01  8.50000000E-01
  8.50000000E-01  8.00000000E-01  8.50000000E-01  8.50000000E-01  8.50000000E-01
  8.00000000E-01  8.50000000E-01  8.50000000E-01  8.50000000E-01  8.00000000E-01
  8.50000000E-01  8.50000000E-01  8.50000000E-01  8.00000000E-01  8.50000000E-01
  8.50000000E-01  8.50000000E-01  8.00000000E-01  8.50000000E-01  8.50000000E-01
  8.50000000E-01  8.00000000E-01  8.50000000E-01  8.50000000E-01  8.50000000E-01
  8.00000000E-01  8.50000000E-01  8.50000000E-01  8.50000000E-01  8.00000000E-01
  8.50000000E-01  8.50000000E-01  8.50000000E-01  8.00000000E-01  8.50000000E-01
  8.50000000E-01  8.50000000E-01  8.00000000E-01  8.50000000E-01  8.50000000E-01
  8.50000000E-01  8.00000000E-01  8.50000000E-01  8.50000000E-01  8.50000000E-01
  8.00000000E-01  8.50000000E-01  8.50000000E-01  8.50000000E-01  8.00000000E-01
  8.50000000E-01  8.50000000E-01  8.50000000E-01  8.00000000E-01  8.50000000E-01
  8.50000000E-01  8.50000000E-01  8.00000000E-01  8.50000000E-01  8.50000000E-01
  8.50000000E-01  8.00000000E-01  8.50000000E-01  8.50000000E-01  8.50000000E-01
  8.00000000E-01  8.50000000E-01  8.50000000E-01  8.50000000E-01  8.00000000E-01
  8.50000000E-01  8.50000000E-01  8.50000000E-01  8.00000000E-01  8.50000000E-01
  8.50000000E-01  8.50000000E-01  8.00000000E-01  8.50000000E-01  8.50000000E-01
  8.50000000E-01  8.00000000E-01  8.50000000E-01  8.50000000E-01  8.50000000E-01
  8.00000000E-01  8.50000000E-01  8.50000000E-01  8.50000000E-01  8.00000000E-01
  8.50000000E-01  8.50000000E-01  8.50000000E-01  8.00000000E-01  8.50000000E-01
  8.50000000E-01  8.50000000E-01  8.00000000E-01  8.50000000E-01  8.50000000E-01
  8.50000000E-01  8.00000000E-01  8.50000000E-01  8.50000000E-01  8.50000000E-01
  8.00000000E-01  8.50000000E-01  8.50000000E-01  8.50000000E-01  8.00000000E-01
  8.50000000E-01  8.50000000E-01  8.50000000E-01  8.00000000E-01  8.50000000E-01
  8.50000000E-01  8.50000000E-01  8.00000000E-01  8.50000000E-01  8.50000000E-01
  8.50000000E-01  8.00000000E-01  8.50000000E-01  8.50000000E-01  8.50000000E-01
  8.00000000E-01  8.50000000E-01  8.50000000E-01  8.50000000E-01  8.00000000E-01
  8.50000000E-01  8.50000000E-01  8.50000000E-01  8.00000000E-01  8.50000000E-01
  8.50000000E-01  8.50000000E-01  8.00000000E-01  8.50000000E-01  8.50000000E-01
  8.50000000E-01  8.00000000E-01  8.50000000E-01  8.50000000E-01  8.50000000E-01
  8.00000000E-01  8.50000000E-01  8.50000000E-01  8.50000000E-01  8.00000000E-01
  8.50000000E-01  8.50000000E-01  8.50000000E-01  8.00000000E-01  8.50000000E-01
  8.50000000E-01  8.50000000E-01  8.00000000E-01  8.50000000E-01  8.50000000E-01
  8.50000000E-01  8.00000000E-01  8.50000000E-01  8.50000000E-01  8.50000000E-01
  8.00000000E-01  8.50000000E-01  8.50000000E-01  8.50000000E-01  8.00000000E-01
  8.50000000E-01  8.50000000E-01  8.50000000E-01  8.00000000E-01  8.50000000E-01
  8.50000000E-01  8.50000000E-01  8.00000000E-01  8.50000000E-01  8.50000000E-01
  8.50000000E-01  8.00000000E-01  8.50000000E-01  8.50000000E-01  8.50000000E-01
  8.00000000E-01  8.50000000E-01  8.50000000E-01  8.50000000E-01  8.00000000E-01
  8.50000000E-01  8.50000000E-01  8.50000000E-01  8.00000000E-01  8.50000000E-01
  8.50000000E-01  8.50000000E-01  8.00000000E-01  8.50000000E-01  8.50000000E-01
  8.50000000E-01  8.00000000E-01  8.50000000E-01  8.50000000E-01  8.50000000E-01
  8.00000000E-01  8.50000000E-01  8.50000000E-01  8.50000000E-01  8.00000000E-01
  8.50000000E-01  8.50000000E-01  8.50000000E-01  8.00000000E-01  8.50000000E-01
  8.50000000E-01  8.50000000E-01  8.00000000E-01  8.50000000E-01  8.50000000E-01
  8.50000000E-01  8.00000000E-01  8.50000000E-01  8.50000000E-01  8.50000000E-01
  8.00000000E-01  8.50000000E-01  8.50000000E-01  8.50000000E-01  8.00000000E-01
  8.50000000E-01  8.50000000E-01  8.50000000E-01  8.00000000E-01  8.50000000E-01
  8.50000000E-01  8.50000000E-01  8.00000000E-01  8.50000000E-01  8.50000000E-01
  8.50000000E-01  8.00000000E-01  8.50000000E-01  8.50000000E-01  8.50000000E-01
  8.00000000E-01  8.50000000E-01  8.50000000E-01  8.50000000E-01  8.00000000E-01
  8.50000000E-01  8.50000000E-01  8.50000000E-01  8.00000000E-01  8.50000000E-01
  8.50000000E-01  8.50000000E-01  8.00000000E-01  8.50000000E-01  8.50000000E-01
  8.50000000E-01  8.00000000E-01  8.50000000E-01  8.50000000E-01  8.50000000E-01
  8.00000000E-01  8.50000000E-01  8.50000000E-01  8.50000000E-01  8.00000000E-01
  8.50000000E-01  8.50000000E-01  8.50000000E-01  8.00000000E-01  8.50000000E-01
  8.50000000E-01  8.50000000E-01  8.00000000E-01  8.50000000E-01  8.50000000E-01
  8.50000000E-01  8.00000000E-01  8.50000000E-01  8.50000000E-01  8.50000000E-01
  8.00000000E-01  8.50000000E-01  8.50000000E-01  8.50000000E-01  8.00000000E-01
  8.50000000E-01  8.50000000E-01  8.50000000E-01  8.00000000E-01  8.50000000E-01
  8.50000000E-01  8.50000000E-01  8.00000000E-01  8.50000000E-01  8.50000000E-01
  8.50000000E-01  8.00000000E-01  8.50000000E-01  8.50000000E-01  8.50000000E-01
  8.00000000E-01  8.50000000E-01  8.50000000E-01  8.50000000E-01  8.00000000E-01
  8.50000000E-01  8.50000000E-01  8.50000000E-01  8.00000000E-01  8.50000000E-01
  8.50000000E-01  8.50000000E-01  8.00000000E-01  8.50000000E-01  8.50000000E-01
  8.50000000E-01  8.00000000E-01  8.50000000E-01  8.50000000E-01  8.50000000E-01
  8.00000000E-01  8.50000000E-01  8.50000000E-01  8.50000000E-01  8.00000000E-01
  8.50000000E-01  8.50000000E-01  8.50000000E-01  8.00000000E-01  8.50000000E-01
  8.50000000E-01  8.50000000E-01  8.00000000E-01  8.50000000E-01  8.50000000E-01
  8.50000000E-01  8.00000000E-01  8.50000000E-01  8.50000000E-01  8.50000000E-01
  8.00000000E-01  8.50000000E-01  8.50000000E-01  8.50000000E-01  8.00000000E-01
  8.50000000E-01  8.50000000E-01  8.50000000E-01  8.00000000E-01  8.50000000E-01
  8.50000000E-01  8.50000000E-01  8.00000000E-01  8.50000000E-01  8.50000000E-01
  8.50000000E-01  8.00000000E-01  8.50000000E-01  8.50000000E-01  8.50000000E-01
  8.00000000E-01  8.50000000E-01  8.50000000E-01  8.50000000E-01  8.00000000E-01
  8.50000000E-01  8.50000000E-01  8.50000000E-01  8.00000000E-01  8.50000000E-01
  8.50000000E-01  8.50000000E-01  8.00000000E-01  8.50000000E-01  8.50000000E-01
  8.50000000E-01  8.00000000E-01  8.50000000E-01  8.50000000E-01  8.50000000E-01
  8.00000000E-01  8.50000000E-01  8.50000000E-01  8.50000000E-01  8.00000000E-01
  8.50000000E-01  8.50000000E-01  8.50000000E-01  8.00000000E-01  8.50000000E-01
  8.50000000E-01  8.50000000E-01  8.00000000E-01  8.50000000E-01  8.50000000E-01
  8.50000000E-01  8.00000000E-01  8.50000000E-01  8.50000000E-01  8.50000000E-01
  8.00000000E-01  8.50000000E-01  8.50000000E-01  8.50000000E-01  8.00000000E-01
  8.50000000E-01  8.50000000E-01  8.50000000E-01  8.00000000E-01  8.50000000E-01
  8.50000000E-01  8.50000000E-01  8.00000000E-01  8.50000000E-01  8.50000000E-01
  8.50000000E-01  8.00000000E-01  8.50000000E-01  8.50000000E-01  8.50000000E-01
  8.00000000E-01  8.50000000E-01  8.50000000E-01  8.50000000E-01  8.00000000E-01
  8.50000000E-01  8.50000000E-01  8.50000000E-01  8.00000000E-01  8.50000000E-01
  8.50000000E-01  8.50000000E-01  8.00000000E-01  8.50000000E-01  8.50000000E-01
  8.50000000E-01  8.00000000E-01  8.50000000E-01  8.50000000E-01  8.50000000E-01
  8.00000000E-01  8.50000000E-01  8.50000000E-01  8.50000000E-01  8.00000000E-01
  8.50000000E-01  8.50000000E-01  8.50000000E-01  8.00000000E-01  8.50000000E-01
  8.50000000E-01  8.50000000E-01  8.00000000E-01  8.50000000E-01  8.50000000E-01
  8.50000000E-01  8.00000000E-01  8.50000000E-01  8.50000000E-01  8.50000000E-01
  8.00000000E-01  8.50000000E-01  8.50000000E-01  8.50000000E-01  8.00000000E-01
  8.50000000E-01  8.50000000E-01  8.50000000E-01  8.00000000E-01  8.50000000E-01
  8.50000000E-01  8.50000000E-01  8.00000000E-01  8.50000000E-01  8.50000000E-01
  8.50000000E-01  8.00000000E-01  8.50000000E-01  8.50000000E-01  8.50000000E-01
  8.00000000E-01  8.50000000E-01  8.50000000E-01  8.50000000E-01  8.00000000E-01
  8.50000000E-01  8.50000000E-01  8.50000000E-01  8.00000000E-01  8.50000000E-01
  8.50000000E-01  8.50000000E-01  8.00000000E-01  8.50000000E-01  8.50000000E-01
  8.50000000E-01  8.00000000E-01  8.50000000E-01  8.50000000E-01  8.50000000E-01
  8.00000000E-01  8.50000000E-01  8.50000000E-01  8.50000000E-01  8.00000000E-01
  8.50000000E-01  8.50000000E-01  8.50000000E-01  8.00000000E-01  8.50000000E-01
  8.50000000E-01  8.50000000E-01  8.00000000E-01  8.50000000E-01  8.50000000E-01
  8.50000000E-01  8.00000000E-01  8.50000000E-01  8.50000000E-01  8.50000000E-01
  8.00000000E-01  8.50000000E-01  8.50000000E-01  8.50000000E-01  8.00000000E-01
  8.50000000E-01  8.50000000E-01  8.50000000E-01  8.00000000E-01  8.50000000E-01
  8.50000000E-01  8.50000000E-01  8.00000000E-01  8.50000000E-01  8.50000000E-01
  8.50000000E-01  8.00000000E-01  8.50000000E-01  8.50000000E-01  8.50000000E-01
  8.00000000E-01  8.50000000E-01  8.50000000E-01  8.50000000E-01  8.00000000E-01
  8.50000000E-01  8.50000000E-01  8.50000000E-01  8.00000000E-01  8.50000000E-01
  8.50000000E-01  8.50000000E-01  8.00000000E-01  8.50000000E-01  8.50000000E-01
  8.50000000E-01  8.00000000E-01  8.50000000E-01  8.50000000E-01  8.50000000E-01
  8.00000000E-01  8.50000000E-01  8.50000000E-01  8.50000000E-01  8.00000000E-01
  8.50000000E-01  8.50000000E-01  8.50000000E-01  8.00000000E-01  8.50000000E-01
  8.50000000E-01  8.50000000E-01  8.00000000E-01  8.50000000E-01  8.50000000E-01
  8.50000000E-01  8.00000000E-01  8.50000000E-01  8.50000000E-01  8.50000000E-01
  8.00000000E-01  8.50000000E-01  8.50000000E-01  8.50000000E-01  8.00000000E-01
  8.50000000E-01  8.50000000E-01  8.50000000E-01  8.00000000E-01  8.50000000E-01
  8.50000000E-01  8.50000000E-01  8.00000000E-01  8.50000000E-01  8.50000000E-01
  8.50000000E-01  8.00000000E-01  8.50000000E-01  8.50000000E-01  8.50000000E-01
  8.00000000E-01  8.50000000E-01  8.50000000E-01  8.50000000E-01  8.00000000E-01
  8.50000000E-01  8.50000000E-01  8.50000000E-01  8.00000000E-01  8.50000000E-01
  8.50000000E-01  8.50000000E-01  8.00000000E-01  8.50000000E-01  8.50000000E-01
  8.50000000E-01  8.00000000E-01  8.50000000E-01  8.50000000E-01  8.50000000E-01
  8.00000000E-01  8.50000000E-01  8.50000000E-01  8.50000000E-01  8.00000000E-01
  8.50000000E-01  8.50000000E-01  8.50000000E-01  8.00000000E-01  8.50000000E-01
  8.50000000E-01  8.50000000E-01  8.00000000E-01  8.50000000E-01  8.50000000E-01
  8.50000000E-01  8.00000000E-01  8.50000000E-01  8.50000000E-01  8.50000000E-01
  8.00000000E-01  8.50000000E-01  8.50000000E-01  8.50000000E-01  8.00000000E-01
  8.50000000E-01  8.50000000E-01  8.50000000E-01  8.00000000E-01  8.50000000E-01
  8.50000000E-01  8.50000000E-01  8.00000000E-01  8.50000000E-01  8.50000000E-01
  8.50000000E-01  8.00000000E-01  8.50000000E-01  8.50000000E-01  8.50000000E-01
  8.00000000E-01  8.50000000E-01  8.50000000E-01  8.50000000E-01  8.00000000E-01
  8.50000000E-01  8.50000000E-01  8.50000000E-01  8.00000000E-01  8.50000000E-01
  8.50000000E-01  8.50000000E-01  8.00000000E-01  8.50000000E-01  8.50000000E-01
  8.50000000E-01  8.00000000E-01  8.50000000E-01  8.50000000E-01  8.50000000E-01
  8.00000000E-01  8.50000000E-01  8.50000000E-01  8.50000000E-01  8.00000000E-01
  8.50000000E-01  8.50000000E-01  8.50000000E-01  8.00000000E-01  8.50000000E-01
  8.50000000E-01  8.50000000E-01  8.00000000E-01  8.50000000E-01  8.50000000E-01
  8.50000000E-01  8.00000000E-01  8.50000000E-01  8.50000000E-01  8.50000000E-01
  8.00000000E-01  8.50000000E-01  8.50000000E-01  8.50000000E-01  8.00000000E-01
  8.50000000E-01  8.50000000E-01  8.50000000E-01  8.00000000E-01  8.50000000E-01
  8.50000000E-01  8.50000000E-01  8.00000000E-01  8.50000000E-01  8.50000000E-01
  8.50000000E-01  8.00000000E-01  8.50000000E-01  8.50000000E-01  8.50000000E-01
  8.00000000E-01  8.50000000E-01  8.50000000E-01  8.50000000E-01  8.00000000E-01
  8.50000000E-01  8.50000000E-01  8.50000000E-01  8.00000000E-01  8.50000000E-01
  8.50000000E-01  8.50000000E-01  8.00000000E-01  8.50000000E-01  8.50000000E-01
  8.50000000E-01  8.00000000E-01  8.50000000E-01  8.50000000E-01  8.50000000E-01
  8.00000000E-01  8.50000000E-01  8.50000000E-01  8.50000000E-01  8.00000000E-01
  8.50000000E-01  8.50000000E-01  8.50000000E-01  8.00000000E-01  8.50000000E-01
  8.50000000E-01  8.50000000E-01  8.00000000E-01  8.50000000E-01  8.50000000E-01
  8.50000000E-01  8.00000000E-01  8.50000000E-01  8.50000000E-01  8.50000000E-01
  8.00000000E-01  8.50000000E-01  8.50000000E-01  8.50000000E-01  8.00000000E-01
  8.50000000E-01  8.50000000E-01  8.50000000E-01  8.00000000E-01  8.50000000E-01
  8.50000000E-01  8.50000000E-01  8.00000000E-01  8.50000000E-01  8.50000000E-01
  8.50000000E-01  8.00000000E-01  8.50000000E-01  8.50000000E-01  8.50000000E-01
  8.00000000E-01  8.50000000E-01  8.50000000E-01  8.50000000E-01  8.00000000E-01
  8.50000000E-01  8.50000000E-01  8.50000000E-01  8.00000000E-01  8.50000000E-01
  8.50000000E-01  8.50000000E-01  8.00000000E-01  8.50000000E-01  8.50000000E-01
  8.50000000E-01  8.00000000E-01  8.50000000E-01  8.50000000E-01  8.50000000E-01
  8.00000000E-01  8.50000000E-01  8.50000000E-01  8.50000000E-01  8.00000000E-01
  8.50000000E-01  8.50000000E-01  8.50000000E-01  8.00000000E-01  8.50000000E-01
  8.50000000E-01  8.50000000E-01  8.00000000E-01  8.50000000E-01  8.50000000E-01
  8.50000000E-01  8.00000000E-01  8.50000000E-01  8.50000000E-01  8.50000000E-01
  8.00000000E-01  8.50000000E-01  8.50000000E-01  8.50000000E-01  8.00000000E-01
  8.50000000E-01  8.50000000E-01  8.50000000E-01  8.00000000E-01  8.50000000E-01
  8.50000000E-01  8.50000000E-01  8.00000000E-01  8.50000000E-01  8.50000000E-01
  8.50000000E-01  8.00000000E-01  8.50000000E-01  8.50000000E-01  8.50000000E-01
  8.00000000E-01  8.50000000E-01  8.50000000E-01  8.50000000E-01  8.00000000E-01
  8.50000000E-01  8.50000000E-01  8.50000000E-01  8.00000000E-01  8.50000000E-01
  8.50000000E-01  8.50000000E-01  8.00000000E-01  8.50000000E-01  8.50000000E-01
  8.50000000E-01  8.00000000E-01  8.50000000E-01  8.50000000E-01  8.50000000E-01
  8.00000000E-01  8.50000000E-01  8.50000000E-01  8.50000000E-01  8.00000000E-01
  8.50000000E-01  8.50000000E-01  8.50000000E-01  8.00000000E-01  8.50000000E-01
  8.50000000E-01  8.50000000E-01  8.00000000E-01  8.50000000E-01  8.50000000E-01
  8.50000000E-01  8.00000000E-01  8.50000000E-01  8.50000000E-01  8.50000000E-01
  8.00000000E-01  8.50000000E-01  8.50000000E-01  8.50000000E-01  8.00000000E-01
  8.50000000E-01  8.50000000E-01  8.50000000E-01  8.00000000E-01  8.50000000E-01
  8.50000000E-01  8.50000000E-01  8.00000000E-01  8.50000000E-01  8.50000000E-01
  8.50000000E-01  8.00000000E-01  8.50000000E-01  8.50000000E-01  8.50000000E-01
  8.00000000E-01  8.50000000E-01  8.50000000E-01  8.50000000E-01  8.00000000E-01
  8.50000000E-01  8.50000000E-01  8.50000000E-01  8.00000000E-01  8.50000000E-01
  8.50000000E-01  8.50000000E-01  8.00000000E-01  8.50000000E-01  8.50000000E-01
  8.50000000E-01  8.00000000E-01  8.50000000E-01  8.50000000E-01  8.50000000E-01
  8.00000000E-01  8.50000000E-01  8.50000000E-01  8.50000000E-01  8.00000000E-01
  8.50000000E-01  8.50000000E-01  8.50000000E-01  8.00000000E-01  8.50000000E-01
  8.50000000E-01  8.50000000E-01  8.00000000E-01  8.50000000E-01  8.50000000E-01
  8.50000000E-01  8.00000000E-01  8.50000000E-01  8.50000000E-01  8.50000000E-01
  8.00000000E-01  8.50000000E-01  8.50000000E-01  8.50000000E-01  8.00000000E-01
  8.50000000E-01  8.50000000E-01  8.50000000E-01  8.00000000E-01  8.50000000E-01
  8.50000000E-01  8.50000000E-01  8.00000000E-01  8.50000000E-01  8.50000000E-01
  8.50000000E-01  8.00000000E-01  8.50000000E-01  8.50000000E-01  8.50000000E-01
  8.00000000E-01  8.50000000E-01  8.50000000E-01  8.50000000E-01  8.00000000E-01
  8.50000000E-01  8.50000000E-01  8.50000000E-01  8.00000000E-01  8.50000000E-01
  8.50000000E-01  8.50000000E-01  8.00000000E-01  8.50000000E-01  8.50000000E-01
  8.50000000E-01  8.00000000E-01  8.50000000E-01  8.50000000E-01  8.50000000E-01
  8.00000000E-01  8.50000000E-01  8.50000000E-01  8.50000000E-01  8.00000000E-01
  8.50000000E-01  8.50000000E-01  8.50000000E-01  8.00000000E-01  8.50000000E-01
  8.50000000E-01  8.50000000E-01  8.00000000E-01  8.50000000E-01  8.50000000E-01
  8.50000000E-01  8.00000000E-01  8.50000000E-01  8.50000000E-01  8.50000000E-01
  8.00000000E-01  8.50000000E-01  8.50000000E-01  8.50000000E-01  8.00000000E-01
  8.50000000E-01  8.50000000E-01  8.50000000E-01  8.00000000E-01  8.50000000E-01
  8.50000000E-01  8.50000000E-01  8.00000000E-01  8.50000000E-01  8.50000000E-01
  8.50000000E-01  8.00000000E-01  8.50000000E-01  8.50000000E-01  8.50000000E-01
  8.00000000E-01  8.50000000E-01  8.50000000E-01  8.50000000E-01  8.00000000E-01
  8.50000000E-01  8.50000000E-01  8.50000000E-01  8.00000000E-01  8.50000000E-01
  8.50000000E-01  8.50000000E-01  8.00000000E-01  8.50000000E-01  8.50000000E-01
  8.50000000E-01  8.00000000E-01  8.50000000E-01  8.50000000E-01  8.50000000E-01
  8.00000000E-01  8.50000000E-01  8.50000000E-01  8.50000000E-01  8.00000000E-01
  8.50000000E-01  8.50000000E-01  8.50000000E-01  8.00000000E-01  8.50000000E-01
  8.50000000E-01  8.50000000E-01  8.00000000E-01  8.50000000E-01  8.50000000E-01
  8.50000000E-01  8.00000000E-01  8.50000000E-01  8.50000000E-01  8.50000000E-01
  8.00000000E-01  8.50000000E-01  8.50000000E-01  8.50000000E-01  8.00000000E-01
  8.50000000E-01  8.50000000E-01  8.50000000E-01  8.00000000E-01  8.50000000E-01
  8.50000000E-01  8.50000000E-01  8.00000000E-01  8.50000000E-01  8.50000000E-01
  8.50000000E-01  8.00000000E-01  8.50000000E-01  8.50000000E-01  8.50000000E-01
  8.00000000E-01  8.50000000E-01  8.50000000E-01  8.50000000E-01  8.00000000E-01
  8.50000000E-01  8.50000000E-01  8.50000000E-01  8.00000000E-01  8.50000000E-01
  8.50000000E-01  8.50000000E-01  8.00000000E-01  8.50000000E-01  8.50000000E-01
  8.50000000E-01  8.00000000E-01  8.50000000E-01  8.50000000E-01  8.50000000E-01
  8.00000000E-01  8.50000000E-01  8.50000000E-01  8.50000000E-01  8.00000000E-01
  8.50000000E-01  8.50000000E-01  8.50000000E-01  8.00000000E-01  8.50000000E-01
  8.50000000E-01  8.50000000E-01  8.00000000E-01  8.50000000E-01  8.50000000E-01
  8.50000000E-01  8.00000000E-01  8.50000000E-01  8.50000000E-01  8.50000000E-01
  8.00000000E-01  8.50000000E-01  8.50000000E-01  8.50000000E-01  8.00000000E-01
  8.50000000E-01  8.50000000E-01  8.50000000E-01  8.00000000E-01  8.50000000E-01
  8.50000000E-01  8.50000000E-01  8.00000000E-01  8.50000000E-01  8.50000000E-01
  8.50000000E-01  8.00000000E-01  8.50000000E-01  8.50000000E-01  8.50000000E-01
  8.00000000E-01  8.50000000E-01  8.50000000E-01  8.50000000E-01  8.00000000E-01
  8.50000000E-01  8.50000000E-01  8.50000000E-01  8.00000000E-01  8.50000000E-01
  8.50000000E-01  8.50000000E-01  8.00000000E-01  8.50000000E-01  8.50000000E-01
  8.50000000E-01  8.00000000E-01  8.50000000E-01  8.50000000E-01  8.50000000E-01
  8.00000000E-01  8.50000000E-01  8.50000000E-01  8.50000000E-01  8.00000000E-01
  8.50000000E-01  8.50000000E-01  8.50000000E-01  8.00000000E-01  8.50000000E-01
  8.50000000E-01  8.50000000E-01  8.00000000E-01  8.50000000E-01  8.50000000E-01
  8.50000000E-01  8.00000000E-01  8.50000000E-01  8.50000000E-01  8.50000000E-01
  8.00000000E-01  8.50000000E-01  8.50000000E-01  8.50000000E-01  8.00000000E-01
  8.50000000E-01  8.50000000E-01  8.50000000E-01  8.00000000E-01  8.50000000E-01
  8.50000000E-01  8.50000000E-01  8.00000000E-01  8.50000000E-01  8.50000000E-01
  8.50000000E-01  8.00000000E-01  8.50000000E-01  8.50000000E-01  8.50000000E-01
  8.00000000E-01  8.50000000E-01  8.50000000E-01  8.50000000E-01  8.00000000E-01
  8.50000000E-01  8.50000000E-01  8.50000000E-01  8.00000000E-01  8.50000000E-01
  8.50000000E-01  8.50000000E-01  8.00000000E-01  8.50000000E-01  8.50000000E-01
  8.50000000E-01  8.00000000E-01  8.50000000E-01  8.50000000E-01  8.50000000E-01
  8.00000000E-01  8.50000000E-01  8.50000000E-01  8.50000000E-01  8.00000000E-01
  8.50000000E-01  8.50000000E-01  8.50000000E-01  8.00000000E-01  8.50000000E-01
  8.50000000E-01  8.50000000E-01  8.00000000E-01  8.50000000E-01  8.50000000E-01
  8.50000000E-01  8.00000000E-01  8.50000000E-01  8.50000000E-01  8.50000000E-01
  8.00000000E-01  8.50000000E-01  8.50000000E-01  8.50000000E-01  8.00000000E-01
  8.50000000E-01  8.50000000E-01  8.50000000E-01  8.00000000E-01  8.50000000E-01
  8.50000000E-01  8.50000000E-01  8.00000000E-01  8.50000000E-01  8.50000000E-01
  8.50000000E-01  8.00000000E-01  8.50000000E-01  8.50000000E-01  8.50000000E-01
  8.00000000E-01  8.50000000E-01  8.50000000E-01  8.50000000E-01  8.00000000E-01
  8.50000000E-01  8.50000000E-01  8.50000000E-01  8.00000000E-01  8.50000000E-01
  8.50000000E-01  8.50000000E-01  8.00000000E-01  8.50000000E-01  8.50000000E-01
  8.50000000E-01  8.00000000E-01  8.50000000E-01  8.50000000E-01  8.50000000E-01
  8.00000000E-01  8.50000000E-01  8.50000000E-01  8.50000000E-01  8.00000000E-01
  8.50000000E-01  8.50000000E-01  8.50000000E-01  8.00000000E-01  8.50000000E-01
  8.50000000E-01  8.50000000E-01  8.00000000E-01  8.50000000E-01  8.50000000E-01
  8.50000000E-01  8.00000000E-01  8.50000000E-01  8.50000000E-01  8.50000000E-01
  8.00000000E-01  8.50000000E-01  8.50000000E-01  8.50000000E-01  8.00000000E-01
  8.50000000E-01  8.50000000E-01  8.50000000E-01  8.00000000E-01  8.50000000E-01
  8.50000000E-01  8.50000000E-01  8.00000000E-01  8.50000000E-01  8.50000000E-01
  8.50000000E-01  8.00000000E-01  8.50000000E-01  8.50000000E-01  8.50000000E-01
  8.00000000E-01  8.50000000E-01  8.50000000E-01  8.50000000E-01  8.00000000E-01
  8.50000000E-01  8.50000000E-01  8.50000000E-01  8.00000000E-01  8.50000000E-01
  8.50000000E-01  8.50000000E-01  8.00000000E-01  8.50000000E-01  8.50000000E-01
  8.50000000E-01  8.00000000E-01  8.50000000E-01  8.50000000E-01  8.50000000E-01
  8.00000000E-01  8.50000000E-01  8.50000000E-01  8.50000000E-01  8.00000000E-01
  8.50000000E-01  8.50000000E-01  8.50000000E-01  8.00000000E-01  8.50000000E-01
  8.50000000E-01  8.50000000E-01  8.00000000E-01  8.50000000E-01  8.50000000E-01
  8.50000000E-01  8.00000000E-01  8.50000000E-01  8.50000000E-01  8.50000000E-01
  8.00000000E-01  8.50000000E-01  8.50000000E-01  8.50000000E-01  8.00000000E-01
  8.50000000E-01  8.50000000E-01  8.50000000E-01  8.00000000E-01  8.50000000E-01
  8.50000000E-01  8.50000000E-01  8.00000000E-01  8.50000000E-01  8.50000000E-01
  8.50000000E-01  8.00000000E-01  8.50000000E-01  8.50000000E-01  8.50000000E-01
  8.00000000E-01  8.50000000E-01  8.50000000E-01  8.50000000E-01  8.00000000E-01
  8.50000000E-01  8.50000000E-01  8.50000000E-01  8.00000000E-01  8.50000000E-01
  8.50000000E-01  8.50000000E-01  8.00000000E-01  8.50000000E-01  8.50000000E-01
  8.50000000E-01  8.00000000E-01  8.50000000E-01  8.50000000E-01  8.50000000E-01
  8.00000000E-01  8.50000000E-01  8.50000000E-01  8.50000000E-01  8.00000000E-01
  8.50000000E-01  8.50000000E-01  8.50000000E-01  8.00000000E-01  8.50000000E-01
  8.50000000E-01  8.50000000E-01  8.00000000E-01  8.50000000E-01  8.50000000E-01
  8.50000000E-01  8.00000000E-01  8.50000000E-01  8.50000000E-01  8.50000000E-01
  8.00000000E-01  8.50000000E-01  8.50000000E-01  8.50000000E-01  8.00000000E-01
  8.50000000E-01  8.50000000E-01  8.50000000E-01  8.00000000E-01  8.50000000E-01
  8.50000000E-01  8.50000000E-01  8.00000000E-01  8.50000000E-01  8.50000000E-01
  8.50000000E-01  8.00000000E-01  8.50000000E-01  8.50000000E-01  8.50000000E-01
  8.00000000E-01  8.50000000E-01  8.50000000E-01  8.50000000E-01  8.00000000E-01
  8.50000000E-01  8.50000000E-01  8.50000000E-01  8.00000000E-01  8.50000000E-01
  8.50000000E-01  8.50000000E-01  8.00000000E-01  8.50000000E-01  8.50000000E-01
  8.50000000E-01  8.00000000E-01  8.50000000E-01  8.50000000E-01  8.50000000E-01
  8.00000000E-01  8.50000000E-01  8.50000000E-01  8.50000000E-01  8.00000000E-01
  8.50000000E-01  8.50000000E-01  8.50000000E-01  8.00000000E-01  8.50000000E-01
  8.50000000E-01  8.50000000E-01  8.00000000E-01  8.50000000E-01  8.50000000E-01
  8.50000000E-01  8.00000000E-01  8.50000000E-01  8.50000000E-01  8.50000000E-01
  8.00000000E-01  8.50000000E-01  8.50000000E-01  8.50000000E-01  8.00000000E-01
  8.50000000E-01  8.50000000E-01  8.50000000E-01  8.00000000E-01  8.50000000E-01
  8.50000000E-01  8.50000000E-01  8.00000000E-01  8.50000000E-01  8.50000000E-01
  8.50000000E-01  8.00000000E-01  8.50000000E-01  8.50000000E-01  8.50000000E-01
  8.00000000E-01  8.50000000E-01  8.50000000E-01  8.50000000E-01  8.00000000E-01
  8.50000000E-01  8.50000000E-01  8.50000000E-01  8.00000000E-01  8.50000000E-01
  8.50000000E-01  8.50000000E-01  8.00000000E-01  8.50000000E-01  8.50000000E-01
  8.50000000E-01  8.00000000E-01  8.50000000E-01  8.50000000E-01  8.50000000E-01
  8.00000000E-01  8.50000000E-01  8.50000000E-01  8.50000000E-01  8.00000000E-01
  8.50000000E-01  8.50000000E-01  8.50000000E-01  8.00000000E-01  8.50000000E-01
  8.50000000E-01  8.50000000E-01  8.00000000E-01  8.50000000E-01  8.50000000E-01
  8.50000000E-01  8.00000000E-01  8.50000000E-01  8.50000000E-01  8.50000000E-01
  8.00000000E-01  8.50000000E-01  8.50000000E-01  8.50000000E-01  8.00000000E-01
  8.50000000E-01  8.50000000E-01  8.50000000E-01  8.00000000E-01  8.50000000E-01
  8.50000000E-01  8.50000000E-01  8.00000000E-01  8.50000000E-01  8.50000000E-01
  8.50000000E-01  8.00000000E-01  8.50000000E-01  8.50000000E-01  8.50000000E-01
  8.00000000E-01  8.50000000E-01  8.50000000E-01  8.50000000E-01  8.00000000E-01
  8.50000000E-01  8.50000000E-01  8.50000000E-01  8.00000000E-01  8.50000000E-01
  8.50000000E-01  8.50000000E-01  8.00000000E-01  8.50000000E-01  8.50000000E-01
  8.50000000E-01  8.00000000E-01  8.50000000E-01  8.50000000E-01  8.50000000E-01
  8.00000000E-01  8.50000000E-01  8.50000000E-01  8.50000000E-01  8.00000000E-01
  8.50000000E-01  8.50000000E-01  8.50000000E-01  8.00000000E-01  8.50000000E-01
  8.50000000E-01  8.50000000E-01  8.00000000E-01  8.50000000E-01  8.50000000E-01
  8.50000000E-01  8.00000000E-01  8.50000000E-01  8.50000000E-01  8.50000000E-01
  8.00000000E-01  8.50000000E-01  8.50000000E-01  8.50000000E-01  8.00000000E-01
  8.50000000E-01  8.50000000E-01  8.50000000E-01  8.00000000E-01  8.50000000E-01
  8.50000000E-01  8.50000000E-01  8.00000000E-01  8.50000000E-01  8.50000000E-01
  8.50000000E-01  8.00000000E-01  8.50000000E-01  8.50000000E-01  8.50000000E-01
  8.00000000E-01  8.50000000E-01  8.50000000E-01  8.50000000E-01  8.00000000E-01
  8.50000000E-01  8.50000000E-01  8.50000000E-01  8.00000000E-01  8.50000000E-01
  8.50000000E-01  8.50000000E-01  8.00000000E-01  8.50000000E-01  8.50000000E-01
  8.50000000E-01  8.00000000E-01  8.50000000E-01  8.50000000E-01  8.50000000E-01
  8.00000000E-01  8.50000000E-01  8.50000000E-01  8.50000000E-01  8.00000000E-01
  8.50000000E-01  8.50000000E-01  8.50000000E-01  8.00000000E-01  8.50000000E-01
  8.50000000E-01  8.50000000E-01  8.00000000E-01  8.50000000E-01  8.50000000E-01
  8.50000000E-01  8.00000000E-01  8.50000000E-01  8.50000000E-01  8.50000000E-01
  8.00000000E-01  8.50000000E-01  8.50000000E-01  8.50000000E-01  8.00000000E-01
  8.50000000E-01  8.50000000E-01  8.50000000E-01  8.00000000E-01  8.50000000E-01
  8.50000000E-01  8.50000000E-01  8.00000000E-01  8.50000000E-01  8.50000000E-01
  8.50000000E-01  8.00000000E-01  8.50000000E-01  8.50000000E-01  8.50000000E-01
  8.00000000E-01  8.50000000E-01  8.50000000E-01  8.50000000E-01  8.00000000E-01
  8.50000000E-01  8.50000000E-01  8.50000000E-01  8.00000000E-01  8.50000000E-01
  8.50000000E-01  8.50000000E-01  8.00000000E-01  8.50000000E-01  8.50000000E-01
  8.50000000E-01  8.00000000E-01  8.50000000E-01  8.50000000E-01  8.50000000E-01
  8.00000000E-01  8.50000000E-01  8.50000000E-01  8.50000000E-01  8.00000000E-01
  8.50000000E-01  8.50000000E-01  8.50000000E-01  8.00000000E-01  8.50000000E-01
  8.50000000E-01  8.50000000E-01  8.00000000E-01  8.50000000E-01  8.50000000E-01
  8.50000000E-01  8.00000000E-01  8.50000000E-01  8.50000000E-01  8.50000000E-01
  8.00000000E-01  8.50000000E-01  8.50000000E-01  8.50000000E-01  8.00000000E-01
  8.50000000E-01  8.50000000E-01  8.50000000E-01  8.00000000E-01  8.50000000E-01
  8.50000000E-01  8.50000000E-01  8.00000000E-01  8.50000000E-01  8.50000000E-01
  8.50000000E-01  8.00000000E-01  8.50000000E-01  8.50000000E-01  8.50000000E-01
  8.00000000E-01  8.50000000E-01  8.50000000E-01  8.50000000E-01  8.00000000E-01
  8.50000000E-01  8.50000000E-01  8.50000000E-01  8.00000000E-01  8.50000000E-01
  8.50000000E-01  8.50000000E-01  8.00000000E-01  8.50000000E-01  8.50000000E-01
  8.50000000E-01  8.00000000E-01  8.50000000E-01  8.50000000E-01  8.50000000E-01
  8.00000000E-01  8.50000000E-01  8.50000000E-01  8.50000000E-01  8.00000000E-01
  8.50000000E-01  8.50000000E-01  8.50000000E-01  8.00000000E-01  8.50000000E-01
  8.50000000E-01  8.50000000E-01  8.00000000E-01  8.50000000E-01  8.50000000E-01
  8.50000000E-01  8.00000000E-01  8.50000000E-01  8.50000000E-01  8.50000000E-01
  8.00000000E-01  8.50000000E-01  8.50000000E-01  8.50000000E-01  8.00000000E-01
  8.50000000E-01  8.50000000E-01  8.50000000E-01  8.00000000E-01  8.50000000E-01
  8.50000000E-01  8.50000000E-01  8.00000000E-01  8.50000000E-01  8.50000000E-01
  8.50000000E-01  8.00000000E-01  8.50000000E-01  8.50000000E-01  8.50000000E-01
  8.00000000E-01  8.50000000E-01  8.50000000E-01  8.50000000E-01  8.00000000E-01
  8.50000000E-01  8.50000000E-01  8.50000000E-01  8.00000000E-01  8.50000000E-01
  8.50000000E-01  8.50000000E-01  8.00000000E-01  8.50000000E-01  8.50000000E-01
  8.50000000E-01  8.00000000E-01  8.50000000E-01  8.50000000E-01  8.50000000E-01
  8.00000000E-01  8.50000000E-01  8.50000000E-01  8.50000000E-01  8.00000000E-01
  8.50000000E-01  8.50000000E-01  8.50000000E-01  8.00000000E-01  8.50000000E-01
  8.50000000E-01  8.50000000E-01  8.00000000E-01  8.50000000E-01  8.50000000E-01
  8.50000000E-01  8.00000000E-01  8.50000000E-01  8.50000000E-01  8.50000000E-01
  8.00000000E-01  8.50000000E-01  8.50000000E-01  8.50000000E-01  8.00000000E-01
  8.50000000E-01  8.50000000E-01  8.50000000E-01  8.00000000E-01  8.50000000E-01
  8.50000000E-01  8.50000000E-01  8.00000000E-01  8.50000000E-01  8.50000000E-01
  8.50000000E-01  8.00000000E-01  8.50000000E-01  8.50000000E-01  8.50000000E-01
  8.00000000E-01  8.50000000E-01  8.50000000E-01  8.50000000E-01  8.00000000E-01
  8.50000000E-01  8.50000000E-01  8.50000000E-01  8.00000000E-01  8.50000000E-01
  8.50000000E-01  8.50000000E-01  8.00000000E-01  8.50000000E-01  8.50000000E-01
  8.50000000E-01  8.00000000E-01  8.50000000E-01  8.50000000E-01  8.50000000E-01
  8.00000000E-01  8.50000000E-01  8.50000000E-01  8.50000000E-01  8.00000000E-01
  8.50000000E-01  8.50000000E-01  8.50000000E-01  8.00000000E-01  8.50000000E-01
  8.50000000E-01  8.50000000E-01  8.00000000E-01  8.50000000E-01  8.50000000E-01
  8.50000000E-01  8.00000000E-01  8.50000000E-01  8.50000000E-01  8.50000000E-01
  8.00000000E-01  8.50000000E-01  8.50000000E-01  8.50000000E-01  8.00000000E-01
  8.50000000E-01  8.50000000E-01  8.50000000E-01  8.00000000E-01  8.50000000E-01
  8.50000000E-01  8.50000000E-01  8.00000000E-01  8.50000000E-01  8.50000000E-01
  8.50000000E-01  8.00000000E-01  8.50000000E-01  8.50000000E-01  8.50000000E-01
  8.00000000E-01  8.50000000E-01  8.50000000E-01  8.50000000E-01  8.00000000E-01
  8.50000000E-01  8.50000000E-01  8.50000000E-01  8.00000000E-01  8.50000000E-01
  8.50000000E-01  8.50000000E-01  8.00000000E-01  8.50000000E-01  8.50000000E-01
  8.50000000E-01  8.00000000E-01  8.50000000E-01  8.50000000E-01  8.50000000E-01
  8.00000000E-01  8.50000000E-01  8.50000000E-01  8.50000000E-01  8.00000000E-01
  8.50000000E-01  8.50000000E-01  8.50000000E-01  8.00000000E-01  8.50000000E-01
  8.50000000E-01  8.50000000E-01  8.00000000E-01  8.50000000E-01  8.50000000E-01
  8.50000000E-01  8.00000000E-01  8.50000000E-01  8.50000000E-01  8.50000000E-01
  8.00000000E-01  8.50000000E-01  8.50000000E-01  8.50000000E-01  8.00000000E-01
  8.50000000E-01  8.50000000E-01  8.50000000E-01  8.00000000E-01  8.50000000E-01
  8.50000000E-01  8.50000000E-01  8.00000000E-01  8.50000000E-01  8.50000000E-01
  8.50000000E-01  8.00000000E-01  8.50000000E-01  8.50000000E-01  8.50000000E-01
  8.00000000E-01  8.50000000E-01  8.50000000E-01  8.50000000E-01  8.00000000E-01
  8.50000000E-01  8.50000000E-01  8.50000000E-01  8.00000000E-01  8.50000000E-01
  8.50000000E-01  8.50000000E-01  8.00000000E-01  8.50000000E-01  8.50000000E-01
  8.50000000E-01  8.00000000E-01  8.50000000E-01  8.50000000E-01  8.50000000E-01
  8.00000000E-01  8.50000000E-01  8.50000000E-01  8.50000000E-01  8.00000000E-01
  8.50000000E-01  8.50000000E-01  8.50000000E-01  8.00000000E-01  8.50000000E-01
  8.50000000E-01  8.50000000E-01  8.00000000E-01  8.50000000E-01  8.50000000E-01
  8.50000000E-01  8.00000000E-01  8.50000000E-01  8.50000000E-01  8.50000000E-01
  8.00000000E-01  8.50000000E-01  8.50000000E-01  8.50000000E-01  8.00000000E-01
  8.50000000E-01  8.50000000E-01  8.50000000E-01  8.00000000E-01  8.50000000E-01
  8.50000000E-01  8.50000000E-01  8.00000000E-01  8.50000000E-01  8.50000000E-01
  8.50000000E-01  8.00000000E-01  8.50000000E-01  8.50000000E-01  8.50000000E-01
  8.00000000E-01  8.50000000E-01  8.50000000E-01  8.50000000E-01  8.00000000E-01
  8.50000000E-01  8.50000000E-01  8.50000000E-01  8.00000000E-01  8.50000000E-01
  8.50000000E-01  8.50000000E-01  8.00000000E-01  8.50000000E-01  8.50000000E-01
  8.50000000E-01  8.00000000E-01  8.50000000E-01  8.50000000E-01  8.50000000E-01
  8.00000000E-01  8.50000000E-01  8.50000000E-01  8.50000000E-01  8.00000000E-01
  8.50000000E-01  8.50000000E-01  8.50000000E-01  8.00000000E-01  8.50000000E-01
  8.50000000E-01  8.50000000E-01  8.00000000E-01  8.50000000E-01  8.50000000E-01
  8.50000000E-01  8.00000000E-01  8.50000000E-01  8.50000000E-01  8.50000000E-01
  8.00000000E-01  8.50000000E-01  8.50000000E-01  8.50000000E-01  8.00000000E-01
  8.50000000E-01  8.50000000E-01  8.50000000E-01  8.00000000E-01  8.50000000E-01
  8.50000000E-01  8.50000000E-01  8.00000000E-01  8.50000000E-01  8.50000000E-01
  8.50000000E-01  8.00000000E-01  8.50000000E-01  8.50000000E-01  8.50000000E-01
  8.00000000E-01  8.50000000E-01  8.50000000E-01  8.50000000E-01  8.00000000E-01
  8.50000000E-01  8.50000000E-01  8.50000000E-01  8.00000000E-01  8.50000000E-01
  8.50000000E-01  8.50000000E-01  8.00000000E-01  8.50000000E-01  8.50000000E-01
  8.50000000E-01  8.00000000E-01  8.50000000E-01  8.50000000E-01  8.50000000E-01
  8.00000000E-01  8.50000000E-01  8.50000000E-01  8.50000000E-01  8.00000000E-01
  8.50000000E-01  8.50000000E-01  8.50000000E-01  8.00000000E-01  8.50000000E-01
  8.50000000E-01  8.50000000E-01  8.00000000E-01  8.50000000E-01  8.50000000E-01
  8.50000000E-01  8.00000000E-01  8.50000000E-01  8.50000000E-01  8.50000000E-01
  8.00000000E-01  8.50000000E-01  8.50000000E-01  8.50000000E-01  8.00000000E-01
  8.50000000E-01  8.50000000E-01  8.50000000E-01  8.00000000E-01  8.50000000E-01
  8.50000000E-01  8.50000000E-01  8.00000000E-01  8.50000000E-01  8.50000000E-01
  8.50000000E-01  8.00000000E-01  8.50000000E-01  8.50000000E-01  8.50000000E-01
  8.00000000E-01  8.50000000E-01  8.50000000E-01  8.50000000E-01  8.00000000E-01
  8.50000000E-01  8.50000000E-01  8.50000000E-01  8.00000000E-01  8.50000000E-01
  8.50000000E-01  8.50000000E-01  8.00000000E-01  8.50000000E-01  8.50000000E-01
  8.50000000E-01  8.00000000E-01  8.50000000E-01  8.50000000E-01  8.50000000E-01
  8.00000000E-01  8.50000000E-01  8.50000000E-01  8.50000000E-01  8.00000000E-01
  8.50000000E-01  8.50000000E-01  8.50000000E-01  8.00000000E-01  8.50000000E-01
  8.50000000E-01  8.50000000E-01  8.00000000E-01  8.50000000E-01  8.50000000E-01
  8.50000000E-01  8.00000000E-01  8.50000000E-01  8.50000000E-01  8.50000000E-01
  8.00000000E-01  8.50000000E-01  8.50000000E-01  8.50000000E-01  8.00000000E-01
  8.50000000E-01  8.50000000E-01  8.50000000E-01  8.00000000E-01  8.50000000E-01
  8.50000000E-01  8.50000000E-01  8.00000000E-01  8.50000000E-01  8.50000000E-01
  8.50000000E-01  8.00000000E-01  8.50000000E-01  8.50000000E-01  8.50000000E-01
  8.00000000E-01  8.50000000E-01  8.50000000E-01  8.50000000E-01  8.00000000E-01
  8.50000000E-01  8.50000000E-01  8.50000000E-01  8.00000000E-01  8.50000000E-01
  8.50000000E-01  8.50000000E-01  8.00000000E-01  8.50000000E-01  8.50000000E-01
  8.50000000E-01  8.00000000E-01  8.50000000E-01  8.50000000E-01  8.50000000E-01
  8.00000000E-01  8.50000000E-01  8.50000000E-01  8.50000000E-01  8.00000000E-01
  8.50000000E-01  8.50000000E-01  8.50000000E-01  8.00000000E-01  8.50000000E-01
  8.50000000E-01  8.50000000E-01  8.00000000E-01  8.50000000E-01  8.50000000E-01
  8.50000000E-01  8.00000000E-01  8.50000000E-01  8.50000000E-01  8.50000000E-01
  8.00000000E-01  8.50000000E-01  8.50000000E-01  8.50000000E-01  8.00000000E-01
  8.50000000E-01  8.50000000E-01  8.50000000E-01  8.00000000E-01  8.50000000E-01
  8.50000000E-01  8.50000000E-01  8.00000000E-01  8.50000000E-01  8.50000000E-01
  8.50000000E-01  8.00000000E-01  8.50000000E-01  8.50000000E-01  8.50000000E-01
  8.00000000E-01  8.50000000E-01  8.50000000E-01  8.50000000E-01  8.00000000E-01
  8.50000000E-01  8.50000000E-01  8.50000000E-01  8.00000000E-01  8.50000000E-01
  8.50000000E-01  8.50000000E-01  8.00000000E-01  8.50000000E-01  8.50000000E-01
  8.50000000E-01  8.00000000E-01  8.50000000E-01  8.50000000E-01  8.50000000E-01
  8.00000000E-01  8.50000000E-01  8.50000000E-01  8.50000000E-01  8.00000000E-01
  8.50000000E-01  8.50000000E-01  8.50000000E-01  8.00000000E-01  8.50000000E-01
  8.50000000E-01  8.50000000E-01  8.00000000E-01  8.50000000E-01  8.50000000E-01
  8.50000000E-01  8.00000000E-01  8.50000000E-01  8.50000000E-01  8.50000000E-01
  8.00000000E-01  8.50000000E-01  8.50000000E-01  8.50000000E-01  8.00000000E-01
  8.50000000E-01  8.50000000E-01  8.50000000E-01  8.00000000E-01  8.50000000E-01
  8.50000000E-01  8.50000000E-01  8.00000000E-01  8.50000000E-01  8.50000000E-01
  8.50000000E-01  8.00000000E-01  8.50000000E-01  8.50000000E-01  8.50000000E-01
  8.00000000E-01  8.50000000E-01  8.50000000E-01  8.50000000E-01  8.00000000E-01
  8.50000000E-01  8.50000000E-01  8.50000000E-01  8.00000000E-01  8.50000000E-01
  8.50000000E-01  8.50000000E-01  8.00000000E-01  8.50000000E-01  8.50000000E-01
  8.50000000E-01  8.00000000E-01  8.50000000E-01  8.50000000E-01  8.50000000E-01
  8.00000000E-01  8.50000000E-01  8.50000000E-01  8.50000000E-01  8.00000000E-01
  8.50000000E-01  8.50000000E-01  8.50000000E-01  8.00000000E-01  8.50000000E-01
  8.50000000E-01  8.50000000E-01  8.00000000E-01  8.50000000E-01  8.50000000E-01
  8.50000000E-01  8.00000000E-01  8.50000000E-01  8.50000000E-01  8.50000000E-01
  8.00000000E-01  8.50000000E-01  8.50000000E-01  8.50000000E-01  8.00000000E-01
  8.50000000E-01  8.50000000E-01  8.50000000E-01  8.00000000E-01  8.50000000E-01
  8.50000000E-01  8.50000000E-01  8.00000000E-01  8.50000000E-01  8.50000000E-01
  8.50000000E-01  8.00000000E-01  8.50000000E-01  8.50000000E-01  8.50000000E-01
  8.00000000E-01  8.50000000E-01  8.50000000E-01  8.50000000E-01  8.00000000E-01
  8.50000000E-01  8.50000000E-01  8.50000000E-01  8.00000000E-01  8.50000000E-01
  8.50000000E-01  8.50000000E-01  8.00000000E-01  8.50000000E-01  8.50000000E-01
  8.50000000E-01  8.00000000E-01  8.50000000E-01  8.50000000E-01  8.50000000E-01
  8.00000000E-01  8.50000000E-01  8.50000000E-01  8.50000000E-01  8.00000000E-01
  8.50000000E-01  8.50000000E-01  8.50000000E-01  8.00000000E-01  8.50000000E-01
  8.50000000E-01  8.50000000E-01  8.00000000E-01  8.50000000E-01  8.50000000E-01
  8.50000000E-01  8.00000000E-01  8.50000000E-01  8.50000000E-01  8.50000000E-01
  8.00000000E-01  8.50000000E-01  8.50000000E-01  8.50000000E-01  8.00000000E-01
  8.50000000E-01  8.50000000E-01  8.50000000E-01  8.00000000E-01  8.50000000E-01
  8.50000000E-01  8.50000000E-01  8.00000000E-01  8.50000000E-01  8.50000000E-01
  8.50000000E-01  8.00000000E-01  8.50000000E-01  8.50000000E-01  8.50000000E-01
  8.00000000E-01  8.50000000E-01  8.50000000E-01  8.50000000E-01  8.00000000E-01
  8.50000000E-01  8.50000000E-01  8.50000000E-01  8.00000000E-01  8.50000000E-01
  8.50000000E-01  8.50000000E-01  8.00000000E-01  8.50000000E-01  8.50000000E-01
  8.50000000E-01  8.00000000E-01  8.50000000E-01  8.50000000E-01  8.50000000E-01
  8.00000000E-01  8.50000000E-01  8.50000000E-01  8.50000000E-01  8.00000000E-01
  8.50000000E-01  8.50000000E-01  8.50000000E-01  8.00000000E-01  8.50000000E-01
  8.50000000E-01  8.50000000E-01  8.00000000E-01  8.50000000E-01  8.50000000E-01
  8.50000000E-01  8.00000000E-01  8.50000000E-01  8.50000000E-01  8.50000000E-01
  8.00000000E-01  8.50000000E-01  8.50000000E-01  8.50000000E-01  8.00000000E-01
  8.50000000E-01  8.50000000E-01  8.50000000E-01  8.00000000E-01  8.50000000E-01
  8.50000000E-01  8.50000000E-01  8.00000000E-01  8.50000000E-01  8.50000000E-01
  8.50000000E-01  8.00000000E-01  8.50000000E-01  8.50000000E-01  8.50000000E-01
  8.00000000E-01  8.50000000E-01  8.50000000E-01  8.50000000E-01  8.00000000E-01
  8.50000000E-01  8.50000000E-01  8.50000000E-01  8.00000000E-01  8.50000000E-01
  8.50000000E-01  8.50000000E-01  8.00000000E-01  8.50000000E-01  8.50000000E-01
  8.50000000E-01  8.00000000E-01  8.50000000E-01  8.50000000E-01  8.50000000E-01
  8.00000000E-01  8.50000000E-01  8.50000000E-01  8.50000000E-01  8.00000000E-01
  8.50000000E-01  8.50000000E-01  8.50000000E-01  8.00000000E-01  8.50000000E-01
  8.50000000E-01  8.50000000E-01  8.00000000E-01  8.50000000E-01  8.50000000E-01
  8.50000000E-01  8.00000000E-01  8.50000000E-01  8.50000000E-01  8.50000000E-01
  8.00000000E-01  8.50000000E-01  8.50000000E-01  8.50000000E-01  8.00000000E-01
  8.50000000E-01  8.50000000E-01  8.50000000E-01  8.00000000E-01  8.50000000E-01
  8.50000000E-01  8.50000000E-01  8.00000000E-01  8.50000000E-01  8.50000000E-01
  8.50000000E-01  8.00000000E-01  8.50000000E-01  8.50000000E-01  8.50000000E-01
  8.00000000E-01  8.50000000E-01  8.50000000E-01  8.50000000E-01  8.00000000E-01
  8.50000000E-01  8.50000000E-01  8.50000000E-01  8.00000000E-01  8.50000000E-01
  8.50000000E-01  8.50000000E-01  8.00000000E-01  8.50000000E-01  8.50000000E-01
  8.50000000E-01  8.00000000E-01  8.50000000E-01  8.50000000E-01  8.50000000E-01
  8.00000000E-01  8.50000000E-01  8.50000000E-01  8.50000000E-01  8.00000000E-01
  8.50000000E-01  8.50000000E-01  8.50000000E-01  8.00000000E-01  8.50000000E-01
  8.50000000E-01  8.50000000E-01  8.00000000E-01  8.50000000E-01  8.50000000E-01
  8.50000000E-01  8.00000000E-01  8.50000000E-01  8.50000000E-01  8.50000000E-01
  8.00000000E-01  8.50000000E-01  8.50000000E-01  8.50000000E-01  8.00000000E-01
  8.50000000E-01  8.50000000E-01  8.50000000E-01  8.00000000E-01  8.50000000E-01
  8.50000000E-01  8.50000000E-01  8.00000000E-01  8.50000000E-01  8.50000000E-01
  8.50000000E-01  8.00000000E-01  8.50000000E-01  8.50000000E-01  8.50000000E-01
  8.00000000E-01  8.50000000E-01  8.50000000E-01  8.50000000E-01  8.00000000E-01
  8.50000000E-01  8.50000000E-01  8.50000000E-01  8.00000000E-01  8.50000000E-01
  8.50000000E-01  8.50000000E-01  8.00000000E-01  8.50000000E-01  8.50000000E-01
  8.50000000E-01  8.00000000E-01  8.50000000E-01  8.50000000E-01  8.50000000E-01
  8.00000000E-01  8.50000000E-01  8.50000000E-01  8.50000000E-01  8.00000000E-01
  8.50000000E-01  8.50000000E-01  8.50000000E-01  8.00000000E-01  8.50000000E-01
  8.50000000E-01  8.50000000E-01  8.00000000E-01  8.50000000E-01  8.50000000E-01
  8.50000000E-01  8.00000000E-01  8.50000000E-01  8.50000000E-01  8.50000000E-01
  8.00000000E-01  8.50000000E-01  8.50000000E-01  8.50000000E-01  8.00000000E-01
  8.50000000E-01  8.50000000E-01  8.50000000E-01  8.00000000E-01  8.50000000E-01
  8.50000000E-01  8.50000000E-01  8.00000000E-01  8.50000000E-01  8.50000000E-01
  8.50000000E-01  8.00000000E-01  8.50000000E-01  8.50000000E-01  8.50000000E-01
  8.00000000E-01  8.50000000E-01  8.50000000E-01  8.50000000E-01  8.00000000E-01
  8.50000000E-01  8.50000000E-01  8.50000000E-01  8.00000000E-01  8.50000000E-01
  8.50000000E-01  8.50000000E-01  8.00000000E-01  8.50000000E-01  8.50000000E-01
  8.50000000E-01  8.00000000E-01  8.50000000E-01  8.50000000E-01  8.50000000E-01
  8.00000000E-01  8.50000000E-01  8.50000000E-01  8.50000000E-01  8.00000000E-01
  8.50000000E-01  8.50000000E-01  8.50000000E-01  8.00000000E-01  8.50000000E-01
  8.50000000E-01  8.50000000E-01  8.00000000E-01  8.50000000E-01  8.50000000E-01
  8.50000000E-01  8.00000000E-01  8.50000000E-01  8.50000000E-01  8.50000000E-01
  8.00000000E-01  8.50000000E-01  8.50000000E-01  8.50000000E-01  8.00000000E-01
  8.50000000E-01  8.50000000E-01  8.50000000E-01  8.00000000E-01  8.50000000E-01
  8.50000000E-01  8.50000000E-01  8.00000000E-01  8.50000000E-01  8.50000000E-01
  8.50000000E-01  8.00000000E-01  8.50000000E-01  8.50000000E-01  8.50000000E-01
  8.00000000E-01  8.50000000E-01  8.50000000E-01  8.50000000E-01  8.00000000E-01
  8.50000000E-01  8.50000000E-01  8.50000000E-01  8.00000000E-01  8.50000000E-01
  8.50000000E-01  8.50000000E-01  8.00000000E-01  8.50000000E-01  8.50000000E-01
  8.50000000E-01  8.00000000E-01  8.50000000E-01  8.50000000E-01  8.50000000E-01
  8.00000000E-01  8.50000000E-01  8.50000000E-01  8.50000000E-01  8.00000000E-01
  8.50000000E-01  8.50000000E-01  8.50000000E-01  8.00000000E-01  8.50000000E-01
  8.50000000E-01  8.50000000E-01  8.00000000E-01  8.50000000E-01  8.50000000E-01
  8.50000000E-01  8.00000000E-01  8.50000000E-01  8.50000000E-01  8.50000000E-01
  8.00000000E-01  8.50000000E-01  8.50000000E-01  8.50000000E-01  8.00000000E-01
  8.50000000E-01  8.50000000E-01  8.50000000E-01  8.00000000E-01  8.50000000E-01
  8.50000000E-01  8.50000000E-01  8.00000000E-01  8.50000000E-01  8.50000000E-01
  8.50000000E-01  8.00000000E-01  8.50000000E-01  8.50000000E-01  8.50000000E-01
  8.00000000E-01  8.50000000E-01  8.50000000E-01  8.50000000E-01  8.00000000E-01
  8.50000000E-01  8.50000000E-01  8.50000000E-01  8.00000000E-01  8.50000000E-01
  8.50000000E-01  8.50000000E-01  8.00000000E-01  8.50000000E-01  8.50000000E-01
  8.50000000E-01  8.00000000E-01  8.50000000E-01  8.50000000E-01  8.50000000E-01
  8.00000000E-01  8.50000000E-01  8.50000000E-01  8.50000000E-01  8.00000000E-01
  8.50000000E-01  8.50000000E-01  8.50000000E-01  8.00000000E-01  8.50000000E-01
  8.50000000E-01  8.50000000E-01  8.00000000E-01  8.50000000E-01  8.50000000E-01
  8.50000000E-01  8.00000000E-01  8.50000000E-01  8.50000000E-01  8.50000000E-01
  8.00000000E-01  8.50000000E-01  8.50000000E-01  8.50000000E-01  8.00000000E-01
  8.50000000E-01  8.50000000E-01  8.50000000E-01  8.00000000E-01  8.50000000E-01
  8.50000000E-01  8.50000000E-01  8.00000000E-01  8.50000000E-01  8.50000000E-01
  8.50000000E-01  8.00000000E-01  8.50000000E-01  8.50000000E-01  8.50000000E-01
  8.00000000E-01  8.50000000E-01  8.50000000E-01  8.50000000E-01  8.00000000E-01
  8.50000000E-01  8.50000000E-01  8.50000000E-01  8.00000000E-01  8.50000000E-01
  8.50000000E-01  8.50000000E-01  8.00000000E-01  8.50000000E-01  8.50000000E-01
  8.50000000E-01  8.00000000E-01  8.50000000E-01  8.50000000E-01  8.50000000E-01
  8.00000000E-01  8.50000000E-01  8.50000000E-01  8.50000000E-01  8.00000000E-01
  8.50000000E-01  8.50000000E-01  8.50000000E-01  8.00000000E-01  8.50000000E-01
  8.50000000E-01  8.50000000E-01  8.00000000E-01  8.50000000E-01  8.50000000E-01
  8.50000000E-01  8.00000000E-01  8.50000000E-01  8.50000000E-01  8.50000000E-01
  8.00000000E-01  8.50000000E-01  8.50000000E-01  8.50000000E-01  8.00000000E-01
  8.50000000E-01  8.50000000E-01  8.50000000E-01  8.00000000E-01  8.50000000E-01
  8.50000000E-01  8.50000000E-01  8.00000000E-01  8.50000000E-01  8.50000000E-01
  8.50000000E-01  8.00000000E-01  8.50000000E-01  8.50000000E-01  8.50000000E-01
  8.00000000E-01  8.50000000E-01  8.50000000E-01  8.50000000E-01  8.00000000E-01
  8.50000000E-01  8.50000000E-01  8.50000000E-01  8.00000000E-01  8.50000000E-01
  8.50000000E-01  8.50000000E-01  8.00000000E-01  8.50000000E-01  8.50000000E-01
  8.50000000E-01  8.00000000E-01  8.50000000E-01  8.50000000E-01  8.50000000E-01
  8.00000000E-01  8.50000000E-01  8.50000000E-01  8.50000000E-01  8.00000000E-01
  8.50000000E-01  8.50000000E-01  8.50000000E-01  8.00000000E-01  8.50000000E-01
  8.50000000E-01  8.50000000E-01  8.00000000E-01  8.50000000E-01  8.50000000E-01
  8.50000000E-01  8.00000000E-01  8.50000000E-01  8.50000000E-01  8.50000000E-01
  8.00000000E-01  8.50000000E-01  8.50000000E-01  8.50000000E-01  8.00000000E-01
  8.50000000E-01  8.50000000E-01  8.50000000E-01  8.00000000E-01  8.50000000E-01
  8.50000000E-01  8.50000000E-01  8.00000000E-01  8.50000000E-01  8.50000000E-01
  8.50000000E-01  8.00000000E-01  8.50000000E-01  8.50000000E-01  8.50000000E-01
  8.00000000E-01  8.50000000E-01  8.50000000E-01  8.50000000E-01  8.00000000E-01
  8.50000000E-01  8.50000000E-01  8.50000000E-01  8.00000000E-01  8.50000000E-01
  8.50000000E-01  8.50000000E-01  8.00000000E-01  8.50000000E-01  8.50000000E-01
  8.50000000E-01  8.00000000E-01  8.50000000E-01  8.50000000E-01  8.50000000E-01
  8.00000000E-01  8.50000000E-01  8.50000000E-01  8.50000000E-01  8.00000000E-01
  8.50000000E-01  8.50000000E-01  8.50000000E-01  8.00000000E-01  8.50000000E-01
  8.50000000E-01  8.50000000E-01  8.00000000E-01  8.50000000E-01  8.50000000E-01
  8.50000000E-01  8.00000000E-01  8.50000000E-01  8.50000000E-01  8.50000000E-01
  8.00000000E-01  8.50000000E-01  8.50000000E-01  8.50000000E-01  8.00000000E-01
  8.50000000E-01  8.50000000E-01  8.50000000E-01  8.00000000E-01  8.50000000E-01
  8.50000000E-01  8.50000000E-01  8.00000000E-01  8.50000000E-01  8.50000000E-01
  8.50000000E-01  8.00000000E-01  8.50000000E-01  8.50000000E-01  8.50000000E-01
  8.00000000E-01  8.50000000E-01  8.50000000E-01  8.50000000E-01  8.00000000E-01
  8.50000000E-01  8.50000000E-01  8.50000000E-01  8.00000000E-01  8.50000000E-01
  8.50000000E-01  8.50000000E-01  8.00000000E-01  8.50000000E-01  8.50000000E-01
  8.50000000E-01  8.00000000E-01  8.50000000E-01  8.50000000E-01  8.50000000E-01
  8.00000000E-01  8.50000000E-01  8.50000000E-01  8.50000000E-01  8.00000000E-01
  8.50000000E-01  8.50000000E-01  8.50000000E-01  8.00000000E-01  8.50000000E-01
  8.50000000E-01  8.50000000E-01  8.00000000E-01  8.50000000E-01  8.50000000E-01
  8.50000000E-01  8.00000000E-01  8.50000000E-01  8.50000000E-01  8.50000000E-01
  8.00000000E-01  8.50000000E-01  8.50000000E-01  8.50000000E-01  8.00000000E-01
  8.50000000E-01  8.50000000E-01  8.50000000E-01  8.00000000E-01  8.50000000E-01
  8.50000000E-01  8.50000000E-01  8.00000000E-01  8.50000000E-01  8.50000000E-01
  8.50000000E-01  8.00000000E-01  8.50000000E-01  8.50000000E-01  8.50000000E-01
  8.00000000E-01  8.50000000E-01  8.50000000E-01  8.50000000E-01  8.00000000E-01
  8.50000000E-01  8.50000000E-01  8.50000000E-01  8.00000000E-01  8.50000000E-01
  8.50000000E-01  8.50000000E-01  8.00000000E-01  8.50000000E-01  8.50000000E-01
  8.50000000E-01  8.00000000E-01  8.50000000E-01  8.50000000E-01  8.50000000E-01
  8.00000000E-01  8.50000000E-01  8.50000000E-01  8.50000000E-01  8.00000000E-01
  8.50000000E-01  8.50000000E-01  8.50000000E-01  8.00000000E-01  8.50000000E-01
  8.50000000E-01  8.50000000E-01  8.00000000E-01  8.50000000E-01  8.50000000E-01
  8.50000000E-01  8.00000000E-01  8.50000000E-01  8.50000000E-01  8.50000000E-01
  8.00000000E-01  8.50000000E-01  8.50000000E-01  8.50000000E-01  8.00000000E-01
  8.50000000E-01  8.50000000E-01  8.50000000E-01  8.00000000E-01  8.50000000E-01
  8.50000000E-01  8.50000000E-01  8.00000000E-01  8.50000000E-01  8.50000000E-01
  8.50000000E-01  8.00000000E-01  8.50000000E-01  8.50000000E-01  8.50000000E-01
  8.00000000E-01  8.50000000E-01  8.50000000E-01  8.50000000E-01  8.00000000E-01
  8.50000000E-01  8.50000000E-01  8.50000000E-01  8.00000000E-01  8.50000000E-01
  8.50000000E-01  8.50000000E-01  8.00000000E-01  8.50000000E-01  8.50000000E-01
  8.50000000E-01  8.00000000E-01  8.50000000E-01  8.50000000E-01  8.50000000E-01
  8.00000000E-01  8.50000000E-01  8.50000000E-01  8.50000000E-01  8.00000000E-01
  8.50000000E-01  8.50000000E-01  8.50000000E-01  8.00000000E-01  8.50000000E-01
  8.50000000E-01  8.50000000E-01  8.00000000E-01  8.50000000E-01  8.50000000E-01
  8.50000000E-01  8.00000000E-01  8.50000000E-01  8.50000000E-01  8.50000000E-01
  8.00000000E-01  8.50000000E-01  8.50000000E-01  8.50000000E-01  8.00000000E-01
  8.50000000E-01  8.50000000E-01  8.50000000E-01  8.00000000E-01  8.50000000E-01
  8.50000000E-01  8.50000000E-01  8.00000000E-01  8.50000000E-01  8.50000000E-01
  8.50000000E-01  8.00000000E-01  8.50000000E-01  8.50000000E-01  8.50000000E-01
  8.00000000E-01  8.50000000E-01  8.50000000E-01  8.50000000E-01  8.00000000E-01
  8.50000000E-01  8.50000000E-01  8.50000000E-01  8.00000000E-01  8.50000000E-01
  8.50000000E-01  8.50000000E-01  8.00000000E-01  8.50000000E-01  8.50000000E-01
  8.50000000E-01  8.00000000E-01  8.50000000E-01  8.50000000E-01  8.50000000E-01
  8.00000000E-01  8.50000000E-01  8.50000000E-01  8.50000000E-01  8.00000000E-01
  8.50000000E-01  8.50000000E-01  8.50000000E-01  8.00000000E-01  8.50000000E-01
  8.50000000E-01  8.50000000E-01  8.00000000E-01  8.50000000E-01  8.50000000E-01
  8.50000000E-01  8.00000000E-01  8.50000000E-01  8.50000000E-01  8.50000000E-01
  8.00000000E-01  8.50000000E-01  8.50000000E-01  8.50000000E-01  8.00000000E-01
  8.50000000E-01  8.50000000E-01  8.50000000E-01  8.00000000E-01  8.50000000E-01
  8.50000000E-01  8.50000000E-01  8.00000000E-01  8.50000000E-01  8.50000000E-01
  8.50000000E-01  8.00000000E-01  8.50000000E-01  8.50000000E-01  8.50000000E-01
  8.00000000E-01  8.50000000E-01  8.50000000E-01  8.50000000E-01  8.00000000E-01
  8.50000000E-01  8.50000000E-01  8.50000000E-01  8.00000000E-01  8.50000000E-01
  8.50000000E-01  8.50000000E-01  8.00000000E-01  8.50000000E-01  8.50000000E-01
  8.50000000E-01  8.00000000E-01  8.50000000E-01  8.50000000E-01  8.50000000E-01
  8.00000000E-01  8.50000000E-01  8.50000000E-01  8.50000000E-01  8.00000000E-01
  8.50000000E-01  8.50000000E-01  8.50000000E-01  8.00000000E-01  8.50000000E-01
  8.50000000E-01  8.50000000E-01  8.00000000E-01  8.50000000E-01  8.50000000E-01
  8.50000000E-01  8.00000000E-01  8.50000000E-01  8.50000000E-01  8.50000000E-01
  8.00000000E-01  8.50000000E-01  8.50000000E-01  8.50000000E-01  8.00000000E-01
  8.50000000E-01  8.50000000E-01  8.50000000E-01  8.00000000E-01  8.50000000E-01
  8.50000000E-01  8.50000000E-01  8.00000000E-01  8.50000000E-01  8.50000000E-01
  8.50000000E-01  8.00000000E-01  8.50000000E-01  8.50000000E-01  8.50000000E-01
  8.00000000E-01  8.50000000E-01  8.50000000E-01  8.50000000E-01  8.00000000E-01
  8.50000000E-01  8.50000000E-01  8.50000000E-01  8.00000000E-01  8.50000000E-01
  8.50000000E-01  8.50000000E-01  8.00000000E-01  8.50000000E-01  8.50000000E-01
  8.50000000E-01  8.00000000E-01  8.50000000E-01  8.50000000E-01  8.50000000E-01
  8.00000000E-01  8.50000000E-01  8.50000000E-01  8.50000000E-01  8.00000000E-01
  8.50000000E-01  8.50000000E-01  8.50000000E-01  8.00000000E-01  8.50000000E-01
  8.50000000E-01  8.50000000E-01  8.00000000E-01  8.50000000E-01  8.50000000E-01
  8.50000000E-01  8.00000000E-01  8.50000000E-01  8.50000000E-01  8.50000000E-01
  8.00000000E-01  8.50000000E-01  8.50000000E-01  8.50000000E-01  8.00000000E-01
  8.50000000E-01  8.50000000E-01  8.50000000E-01  8.00000000E-01  8.50000000E-01
  8.50000000E-01  8.50000000E-01  8.00000000E-01  8.50000000E-01  8.50000000E-01
  8.50000000E-01  8.00000000E-01  8.50000000E-01  8.50000000E-01  8.50000000E-01
  8.00000000E-01  8.50000000E-01  8.50000000E-01  8.50000000E-01  8.00000000E-01
  8.50000000E-01  8.50000000E-01  8.50000000E-01  8.00000000E-01  8.50000000E-01
  8.50000000E-01  8.50000000E-01  8.00000000E-01  8.50000000E-01  8.50000000E-01
  8.50000000E-01  8.00000000E-01  8.50000000E-01  8.50000000E-01  8.50000000E-01
  8.00000000E-01  8.50000000E-01  8.50000000E-01  8.50000000E-01  8.00000000E-01
  8.50000000E-01  8.50000000E-01  8.50000000E-01  8.00000000E-01  8.50000000E-01
  8.50000000E-01  8.50000000E-01  8.00000000E-01  8.50000000E-01  8.50000000E-01
  8.50000000E-01  8.00000000E-01  8.50000000E-01  8.50000000E-01  8.50000000E-01
  8.00000000E-01  8.50000000E-01  8.50000000E-01  8.50000000E-01  8.00000000E-01
  8.50000000E-01  8.50000000E-01  8.50000000E-01  8.00000000E-01  8.50000000E-01
  8.50000000E-01  8.50000000E-01  8.00000000E-01  8.50000000E-01  8.50000000E-01
  8.50000000E-01  8.00000000E-01  8.50000000E-01  8.50000000E-01  8.50000000E-01
  8.00000000E-01  8.50000000E-01  8.50000000E-01  8.50000000E-01  8.00000000E-01
  8.50000000E-01  8.50000000E-01  8.50000000E-01  8.00000000E-01  8.50000000E-01
  8.50000000E-01  8.50000000E-01  8.00000000E-01  8.50000000E-01  8.50000000E-01
  8.50000000E-01  8.00000000E-01  8.50000000E-01  8.50000000E-01  8.50000000E-01
  8.00000000E-01  8.50000000E-01  8.50000000E-01  8.50000000E-01  8.00000000E-01
  8.50000000E-01  8.50000000E-01  8.50000000E-01  8.00000000E-01  8.50000000E-01
  8.50000000E-01  8.50000000E-01  8.00000000E-01  8.50000000E-01  8.50000000E-01
  8.50000000E-01  8.00000000E-01  8.50000000E-01  8.50000000E-01  8.50000000E-01
  8.00000000E-01  8.50000000E-01  8.50000000E-01  8.50000000E-01  8.00000000E-01
  8.50000000E-01  8.50000000E-01  8.50000000E-01  8.00000000E-01  8.50000000E-01
  8.50000000E-01  8.50000000E-01  8.00000000E-01  8.50000000E-01  8.50000000E-01
  8.50000000E-01  8.00000000E-01  8.50000000E-01  8.50000000E-01  8.50000000E-01
  8.00000000E-01  8.50000000E-01  8.50000000E-01  8.50000000E-01  8.00000000E-01
  8.50000000E-01  8.50000000E-01  8.50000000E-01  8.00000000E-01  8.50000000E-01
  8.50000000E-01  8.50000000E-01  8.00000000E-01  8.50000000E-01  8.50000000E-01
  8.50000000E-01  8.00000000E-01  8.50000000E-01  8.50000000E-01  8.50000000E-01
  8.00000000E-01  8.50000000E-01  8.50000000E-01  8.50000000E-01  8.00000000E-01
  8.50000000E-01  8.50000000E-01  8.50000000E-01  8.00000000E-01  8.50000000E-01
  8.50000000E-01  8.50000000E-01  8.00000000E-01  8.50000000E-01  8.50000000E-01
  8.50000000E-01  8.00000000E-01  8.50000000E-01  8.50000000E-01  8.50000000E-01
  8.00000000E-01  8.50000000E-01  8.50000000E-01  8.50000000E-01  8.00000000E-01
  8.50000000E-01  8.50000000E-01  8.50000000E-01  8.00000000E-01  8.50000000E-01
  8.50000000E-01  8.50000000E-01  8.00000000E-01  8.50000000E-01  8.50000000E-01
  8.50000000E-01  8.00000000E-01  8.50000000E-01  8.50000000E-01  8.50000000E-01
  8.00000000E-01  8.50000000E-01  8.50000000E-01  8.50000000E-01  8.00000000E-01
  8.50000000E-01  8.50000000E-01  8.50000000E-01  8.00000000E-01  8.50000000E-01
  8.50000000E-01  8.50000000E-01  8.00000000E-01  8.50000000E-01  8.50000000E-01
  8.50000000E-01  8.00000000E-01  8.50000000E-01  8.50000000E-01  8.50000000E-01
  8.00000000E-01  8.50000000E-01  8.50000000E-01  8.50000000E-01  8.00000000E-01
  8.50000000E-01  8.50000000E-01  8.50000000E-01  8.00000000E-01  8.50000000E-01
  8.50000000E-01  8.50000000E-01  8.00000000E-01  8.50000000E-01  8.50000000E-01
  8.50000000E-01  8.00000000E-01  8.50000000E-01  8.50000000E-01  8.50000000E-01
  8.00000000E-01  8.50000000E-01  8.50000000E-01  8.50000000E-01  8.00000000E-01
  8.50000000E-01  8.50000000E-01  8.50000000E-01  8.00000000E-01  8.50000000E-01
  8.50000000E-01  8.50000000E-01  8.00000000E-01  8.50000000E-01  8.50000000E-01
  8.50000000E-01  8.00000000E-01  8.50000000E-01  8.50000000E-01  8.50000000E-01
  8.00000000E-01  8.50000000E-01  8.50000000E-01  8.50000000E-01  8.00000000E-01
  8.50000000E-01  8.50000000E-01  8.50000000E-01  8.00000000E-01  8.50000000E-01
  8.50000000E-01  8.50000000E-01  8.00000000E-01  8.50000000E-01  8.50000000E-01
  8.50000000E-01  8.00000000E-01  8.50000000E-01  8.50000000E-01  8.50000000E-01
  8.00000000E-01  8.50000000E-01  8.50000000E-01  8.50000000E-01  8.00000000E-01
  8.50000000E-01  8.50000000E-01  8.50000000E-01  8.00000000E-01  8.50000000E-01
  8.50000000E-01  8.50000000E-01  8.00000000E-01  8.50000000E-01  8.50000000E-01
  8.50000000E-01  8.00000000E-01  8.50000000E-01  8.50000000E-01  8.50000000E-01
  8.00000000E-01  8.50000000E-01  8.50000000E-01  8.50000000E-01  8.00000000E-01
  8.50000000E-01  8.50000000E-01  8.50000000E-01  8.00000000E-01  8.50000000E-01
  8.50000000E-01  8.50000000E-01  8.00000000E-01  8.50000000E-01  8.50000000E-01
  8.50000000E-01  8.00000000E-01  8.50000000E-01  8.50000000E-01  8.50000000E-01
  8.00000000E-01  8.50000000E-01  8.50000000E-01  8.50000000E-01  8.00000000E-01
  8.50000000E-01  8.50000000E-01  8.50000000E-01  8.00000000E-01  8.50000000E-01
  8.50000000E-01  8.50000000E-01  8.00000000E-01  8.50000000E-01  8.50000000E-01
  8.50000000E-01  8.00000000E-01  8.50000000E-01  8.50000000E-01  8.50000000E-01
  8.00000000E-01  8.50000000E-01  8.50000000E-01  8.50000000E-01  8.00000000E-01
  8.50000000E-01  8.50000000E-01  8.50000000E-01  8.00000000E-01  8.50000000E-01
  8.50000000E-01  8.50000000E-01  8.00000000E-01  8.50000000E-01  8.50000000E-01
  8.50000000E-01  8.00000000E-01  8.50000000E-01  8.50000000E-01  8.50000000E-01
  8.00000000E-01  8.50000000E-01  8.50000000E-01  8.50000000E-01  8.00000000E-01
  8.50000000E-01  8.50000000E-01  8.50000000E-01  8.00000000E-01  8.50000000E-01
  8.50000000E-01  8.50000000E-01  8.00000000E-01  8.50000000E-01  8.50000000E-01
  8.50000000E-01  8.00000000E-01  8.50000000E-01  8.50000000E-01  8.50000000E-01
  8.00000000E-01  8.50000000E-01  8.50000000E-01  8.50000000E-01  8.00000000E-01
  8.50000000E-01  8.50000000E-01  8.50000000E-01  8.00000000E-01  8.50000000E-01
  8.50000000E-01  8.50000000E-01  8.00000000E-01  8.50000000E-01  8.50000000E-01
  8.50000000E-01  8.00000000E-01  8.50000000E-01  8.50000000E-01  8.50000000E-01
  8.00000000E-01  8.50000000E-01  8.50000000E-01  8.50000000E-01  8.00000000E-01
  8.50000000E-01  8.50000000E-01  8.50000000E-01  8.00000000E-01  8.50000000E-01
  8.50000000E-01  8.50000000E-01  8.00000000E-01  8.50000000E-01  8.50000000E-01
  8.50000000E-01  8.00000000E-01  8.50000000E-01  8.50000000E-01  8.50000000E-01
  8.00000000E-01  8.50000000E-01  8.50000000E-01  8.50000000E-01  8.00000000E-01
  8.50000000E-01  8.50000000E-01  8.50000000E-01  8.00000000E-01  8.50000000E-01
  8.50000000E-01  8.50000000E-01  8.00000000E-01  8.50000000E-01  8.50000000E-01
  8.50000000E-01  8.00000000E-01  8.50000000E-01  8.50000000E-01  8.50000000E-01
  8.00000000E-01  8.50000000E-01  8.50000000E-01  8.50000000E-01  8.00000000E-01
  8.50000000E-01  8.50000000E-01  8.50000000E-01  8.00000000E-01  8.50000000E-01
  8.50000000E-01  8.50000000E-01  8.00000000E-01  8.50000000E-01  8.50000000E-01
  8.50000000E-01  8.00000000E-01  8.50000000E-01  8.50000000E-01  8.50000000E-01
  8.00000000E-01  8.50000000E-01  8.50000000E-01  8.50000000E-01  8.00000000E-01
  8.50000000E-01  8.50000000E-01  8.50000000E-01  8.00000000E-01  8.50000000E-01
  8.50000000E-01  8.50000000E-01  8.00000000E-01  8.50000000E-01  8.50000000E-01
  8.50000000E-01  8.00000000E-01  8.50000000E-01  8.50000000E-01  8.50000000E-01
  8.00000000E-01  8.50000000E-01  8.50000000E-01  8.50000000E-01  8.00000000E-01
  8.50000000E-01  8.50000000E-01  8.50000000E-01  8.00000000E-01  8.50000000E-01
  8.50000000E-01  8.50000000E-01  8.00000000E-01  8.50000000E-01  8.50000000E-01
  8.50000000E-01  8.00000000E-01  8.50000000E-01  8.50000000E-01  8.50000000E-01
  8.00000000E-01  8.50000000E-01  8.50000000E-01  8.50000000E-01  8.00000000E-01
  8.50000000E-01  8.50000000E-01  8.50000000E-01  8.00000000E-01  8.50000000E-01
  8.50000000E-01  8.50000000E-01  8.00000000E-01  8.50000000E-01  8.50000000E-01
  8.50000000E-01  8.00000000E-01  8.50000000E-01  8.50000000E-01  8.50000000E-01
  8.00000000E-01  8.50000000E-01  8.50000000E-01  8.50000000E-01  8.00000000E-01
  8.50000000E-01  8.50000000E-01  8.50000000E-01  8.00000000E-01  8.50000000E-01
  8.50000000E-01  8.50000000E-01  8.00000000E-01  8.50000000E-01  8.50000000E-01
  8.50000000E-01  8.00000000E-01  8.50000000E-01  8.50000000E-01  8.50000000E-01
  8.00000000E-01  8.50000000E-01  8.50000000E-01  8.50000000E-01  8.00000000E-01
  8.50000000E-01  8.50000000E-01  8.50000000E-01  8.00000000E-01  8.50000000E-01
  8.50000000E-01  8.50000000E-01  8.00000000E-01  8.50000000E-01  8.50000000E-01
  8.50000000E-01  8.00000000E-01  8.50000000E-01  8.50000000E-01  8.50000000E-01
  8.00000000E-01  8.50000000E-01  8.50000000E-01  8.50000000E-01  8.00000000E-01
  8.50000000E-01  8.50000000E-01  8.50000000E-01  8.00000000E-01  8.50000000E-01
  8.50000000E-01  8.50000000E-01  8.00000000E-01  8.50000000E-01  8.50000000E-01
  8.50000000E-01  8.00000000E-01  8.50000000E-01  8.50000000E-01  8.50000000E-01
  8.00000000E-01  8.50000000E-01  8.50000000E-01  8.50000000E-01  8.00000000E-01
  8.50000000E-01  8.50000000E-01  8.50000000E-01  8.00000000E-01  8.50000000E-01
  8.50000000E-01  8.50000000E-01  8.00000000E-01  8.50000000E-01  8.50000000E-01
  8.50000000E-01  8.00000000E-01  8.50000000E-01  8.50000000E-01  8.50000000E-01
  8.00000000E-01  8.50000000E-01  8.50000000E-01  8.50000000E-01  8.00000000E-01
  8.50000000E-01  8.50000000E-01  8.50000000E-01  8.00000000E-01  8.50000000E-01
  8.50000000E-01  8.50000000E-01  8.00000000E-01  8.50000000E-01  8.50000000E-01
  8.50000000E-01  8.00000000E-01  8.50000000E-01  8.50000000E-01  8.50000000E-01
  8.00000000E-01  8.50000000E-01  8.50000000E-01  8.50000000E-01  8.00000000E-01
  8.50000000E-01  8.50000000E-01  8.50000000E-01  8.00000000E-01  8.50000000E-01
  8.50000000E-01  8.50000000E-01  8.00000000E-01  8.50000000E-01  8.50000000E-01
  8.50000000E-01  8.00000000E-01  8.50000000E-01  8.50000000E-01  8.50000000E-01
  8.00000000E-01  8.50000000E-01  8.50000000E-01  8.50000000E-01  8.00000000E-01
  8.50000000E-01  8.50000000E-01  8.50000000E-01  8.00000000E-01  8.50000000E-01
  8.50000000E-01  8.50000000E-01  8.00000000E-01  8.50000000E-01  8.50000000E-01
  8.50000000E-01  8.00000000E-01  8.50000000E-01  8.50000000E-01  8.50000000E-01
  8.00000000E-01  8.50000000E-01  8.50000000E-01  8.50000000E-01  8.00000000E-01
  8.50000000E-01  8.50000000E-01  8.50000000E-01  8.00000000E-01  8.50000000E-01
  8.50000000E-01  8.50000000E-01  8.00000000E-01  8.50000000E-01  8.50000000E-01
  8.50000000E-01  8.00000000E-01  8.50000000E-01  8.50000000E-01  8.50000000E-01
  8.00000000E-01  8.50000000E-01  8.50000000E-01  8.50000000E-01  8.00000000E-01
  8.50000000E-01  8.50000000E-01  8.50000000E-01  8.00000000E-01  8.50000000E-01
  8.50000000E-01  8.50000000E-01  8.00000000E-01  8.50000000E-01  8.50000000E-01
  8.50000000E-01  8.00000000E-01  8.50000000E-01  8.50000000E-01  8.50000000E-01
  8.00000000E-01  8.50000000E-01  8.50000000E-01  8.50000000E-01  8.00000000E-01
  8.50000000E-01  8.50000000E-01  8.50000000E-01  8.00000000E-01  8.50000000E-01
  8.50000000E-01  8.50000000E-01  8.00000000E-01  8.50000000E-01  8.50000000E-01
  8.50000000E-01  8.00000000E-01  8.50000000E-01  8.50000000E-01  8.50000000E-01
  8.00000000E-01  8.50000000E-01  8.50000000E-01  8.50000000E-01  8.00000000E-01
  8.50000000E-01  8.50000000E-01  8.50000000E-01  8.00000000E-01  8.50000000E-01
  8.50000000E-01  8.50000000E-01  8.00000000E-01  8.50000000E-01  8.50000000E-01
  8.50000000E-01  8.00000000E-01  8.50000000E-01  8.50000000E-01  8.50000000E-01
  8.00000000E-01  8.50000000E-01  8.50000000E-01  8.50000000E-01  8.00000000E-01
  8.50000000E-01  8.50000000E-01  8.50000000E-01  8.00000000E-01  8.50000000E-01
  8.50000000E-01  8.50000000E-01  8.00000000E-01  8.50000000E-01  8.50000000E-01
  8.50000000E-01  8.00000000E-01  8.50000000E-01  8.50000000E-01  8.50000000E-01
  8.00000000E-01  8.50000000E-01  8.50000000E-01  8.50000000E-01  8.00000000E-01
  8.50000000E-01  8.50000000E-01  8.50000000E-01  8.00000000E-01  8.50000000E-01
  8.50000000E-01  8.50000000E-01  8.00000000E-01  8.50000000E-01  8.50000000E-01
  8.50000000E-01  8.00000000E-01  8.50000000E-01  8.50000000E-01  8.50000000E-01
  8.00000000E-01  8.50000000E-01  8.50000000E-01  8.50000000E-01  8.00000000E-01
  8.50000000E-01  8.50000000E-01  8.50000000E-01  8.00000000E-01  8.50000000E-01
  8.50000000E-01  8.50000000E-01  8.00000000E-01  8.50000000E-01  8.50000000E-01
  8.50000000E-01  8.00000000E-01  8.50000000E-01  8.50000000E-01  8.50000000E-01
  8.00000000E-01  8.50000000E-01  8.50000000E-01  8.50000000E-01  8.00000000E-01
  8.50000000E-01  8.50000000E-01  8.50000000E-01  8.00000000E-01  8.50000000E-01
  8.50000000E-01  8.50000000E-01  8.00000000E-01  8.50000000E-01  8.50000000E-01
  8.50000000E-01  8.00000000E-01  8.50000000E-01  8.50000000E-01  8.50000000E-01
  8.00000000E-01  8.50000000E-01  8.50000000E-01  8.50000000E-01  8.00000000E-01
  8.50000000E-01  8.50000000E-01  8.50000000E-01  8.00000000E-01  8.50000000E-01
  8.50000000E-01  8.50000000E-01  8.00000000E-01  8.50000000E-01  8.50000000E-01
  8.50000000E-01  8.00000000E-01  8.50000000E-01  8.50000000E-01  8.50000000E-01
  8.00000000E-01  8.50000000E-01  8.50000000E-01  8.50000000E-01  8.00000000E-01
  8.50000000E-01  8.50000000E-01  8.50000000E-01  8.00000000E-01  8.50000000E-01
  8.50000000E-01  8.50000000E-01  8.00000000E-01  8.50000000E-01  8.50000000E-01
  8.50000000E-01  8.00000000E-01  8.50000000E-01  8.50000000E-01  8.50000000E-01
  8.00000000E-01  8.50000000E-01  8.50000000E-01  8.50000000E-01  8.00000000E-01
  8.50000000E-01  8.50000000E-01  8.50000000E-01  8.00000000E-01  8.50000000E-01
  8.50000000E-01  8.50000000E-01  8.00000000E-01  8.50000000E-01  8.50000000E-01
  8.50000000E-01  8.00000000E-01  8.50000000E-01  8.50000000E-01  8.50000000E-01
  8.00000000E-01  8.50000000E-01  8.50000000E-01  8.50000000E-01  8.00000000E-01
  8.50000000E-01  8.50000000E-01  8.50000000E-01  8.00000000E-01  8.50000000E-01
  8.50000000E-01  8.50000000E-01  8.00000000E-01  8.50000000E-01  8.50000000E-01
  8.50000000E-01  8.00000000E-01  8.50000000E-01  8.50000000E-01  8.50000000E-01
  8.00000000E-01  8.50000000E-01  8.50000000E-01  8.50000000E-01  8.00000000E-01
  8.50000000E-01  8.50000000E-01  8.50000000E-01  8.00000000E-01  8.50000000E-01
  8.50000000E-01  8.50000000E-01  8.00000000E-01  8.50000000E-01  8.50000000E-01
  8.50000000E-01  8.00000000E-01  8.50000000E-01  8.50000000E-01  8.50000000E-01
  8.00000000E-01  8.50000000E-01  8.50000000E-01  8.50000000E-01  8.00000000E-01
  8.50000000E-01  8.50000000E-01  8.50000000E-01  8.00000000E-01  8.50000000E-01
  8.50000000E-01  8.50000000E-01  8.00000000E-01  8.50000000E-01  8.50000000E-01
  8.50000000E-01  8.00000000E-01  8.50000000E-01  8.50000000E-01  8.50000000E-01
  8.00000000E-01  8.50000000E-01  8.50000000E-01  8.50000000E-01  8.00000000E-01
  8.50000000E-01  8.50000000E-01  8.50000000E-01  8.00000000E-01  8.50000000E-01
  8.50000000E-01  8.50000000E-01  8.00000000E-01  8.50000000E-01  8.50000000E-01
  8.50000000E-01  8.00000000E-01  8.50000000E-01  8.50000000E-01  8.50000000E-01
  8.00000000E-01  8.50000000E-01  8.50000000E-01  8.50000000E-01  8.00000000E-01
  8.50000000E-01  8.50000000E-01  8.50000000E-01  8.00000000E-01  8.50000000E-01
  8.50000000E-01  8.50000000E-01  8.00000000E-01  8.50000000E-01  8.50000000E-01
  8.50000000E-01  8.00000000E-01  8.50000000E-01  8.50000000E-01  8.50000000E-01
  8.00000000E-01  8.50000000E-01  8.50000000E-01  8.50000000E-01  8.00000000E-01
  8.50000000E-01  8.50000000E-01  8.50000000E-01  8.00000000E-01  8.50000000E-01
  8.50000000E-01  8.50000000E-01  8.00000000E-01  8.50000000E-01  8.50000000E-01
  8.50000000E-01  8.00000000E-01  8.50000000E-01  8.50000000E-01  8.50000000E-01
  8.00000000E-01  8.50000000E-01  8.50000000E-01  8.50000000E-01  8.00000000E-01
  8.50000000E-01  8.50000000E-01  8.50000000E-01  8.00000000E-01  8.50000000E-01
  8.50000000E-01  8.50000000E-01  8.00000000E-01  8.50000000E-01  8.50000000E-01
  8.50000000E-01  8.00000000E-01  8.50000000E-01  8.50000000E-01  8.50000000E-01
  8.00000000E-01  8.50000000E-01  8.50000000E-01  8.50000000E-01  8.00000000E-01
  8.50000000E-01  8.50000000E-01  8.50000000E-01  8.00000000E-01  8.50000000E-01
  8.50000000E-01  8.50000000E-01  8.00000000E-01  8.50000000E-01  8.50000000E-01
  8.50000000E-01  8.00000000E-01  8.50000000E-01  8.50000000E-01  8.50000000E-01
  8.00000000E-01  8.50000000E-01  8.50000000E-01  8.50000000E-01  8.00000000E-01
  8.50000000E-01  8.50000000E-01  8.50000000E-01  8.00000000E-01  8.50000000E-01
  8.50000000E-01  8.50000000E-01  8.00000000E-01  8.50000000E-01  8.50000000E-01
  8.50000000E-01  8.00000000E-01  8.50000000E-01  8.50000000E-01  8.50000000E-01
  8.00000000E-01  8.50000000E-01  8.50000000E-01  8.50000000E-01  8.00000000E-01
  8.50000000E-01  8.50000000E-01  8.50000000E-01  8.00000000E-01  8.50000000E-01
  8.50000000E-01  8.50000000E-01  8.00000000E-01  8.50000000E-01  8.50000000E-01
  8.50000000E-01  8.00000000E-01  8.50000000E-01  8.50000000E-01  8.50000000E-01
  8.00000000E-01  8.50000000E-01  8.50000000E-01  8.50000000E-01  8.00000000E-01
  8.50000000E-01  8.50000000E-01  8.50000000E-01  8.00000000E-01  8.50000000E-01
  8.50000000E-01  8.50000000E-01  8.00000000E-01  8.50000000E-01  8.50000000E-01
  8.50000000E-01  8.00000000E-01  8.50000000E-01  8.50000000E-01  8.50000000E-01
  8.00000000E-01  8.50000000E-01  8.50000000E-01  8.50000000E-01  8.00000000E-01
  8.50000000E-01  8.50000000E-01  8.50000000E-01  8.00000000E-01  8.50000000E-01
  8.50000000E-01  8.50000000E-01  8.00000000E-01  8.50000000E-01  8.50000000E-01
  8.50000000E-01  8.00000000E-01  8.50000000E-01  8.50000000E-01  8.50000000E-01
  8.00000000E-01  8.50000000E-01  8.50000000E-01  8.50000000E-01  8.00000000E-01
  8.50000000E-01  8.50000000E-01  8.50000000E-01  8.00000000E-01  8.50000000E-01
  8.50000000E-01  8.50000000E-01  8.00000000E-01  8.50000000E-01  8.50000000E-01
  8.50000000E-01  8.00000000E-01  8.50000000E-01  8.50000000E-01  8.50000000E-01
  8.00000000E-01  8.50000000E-01  8.50000000E-01  8.50000000E-01  8.00000000E-01
  8.50000000E-01  8.50000000E-01  8.50000000E-01  8.00000000E-01  8.50000000E-01
  8.50000000E-01  8.50000000E-01  8.00000000E-01  8.50000000E-01  8.50000000E-01
  8.50000000E-01  8.00000000E-01  8.50000000E-01  8.50000000E-01  8.50000000E-01
  8.00000000E-01  8.50000000E-01  8.50000000E-01  8.50000000E-01  8.00000000E-01
  8.50000000E-01  8.50000000E-01  8.50000000E-01  8.00000000E-01  8.50000000E-01
  8.50000000E-01  8.50000000E-01  8.00000000E-01  8.50000000E-01  8.50000000E-01
  8.50000000E-01  8.00000000E-01  8.50000000E-01  8.50000000E-01  8.50000000E-01
  8.00000000E-01  8.50000000E-01  8.50000000E-01  8.50000000E-01  8.00000000E-01
  8.50000000E-01  8.50000000E-01  8.50000000E-01  8.00000000E-01  8.50000000E-01
  8.50000000E-01  8.50000000E-01  8.00000000E-01  8.50000000E-01  8.50000000E-01
  8.50000000E-01  8.00000000E-01  8.50000000E-01  8.50000000E-01  8.50000000E-01
  8.00000000E-01  8.50000000E-01  8.50000000E-01  8.50000000E-01  8.00000000E-01
  8.50000000E-01  8.50000000E-01  8.50000000E-01  8.00000000E-01  8.50000000E-01
  8.50000000E-01  8.50000000E-01  8.00000000E-01  8.50000000E-01  8.50000000E-01
  8.50000000E-01  8.00000000E-01  8.50000000E-01  8.50000000E-01  8.50000000E-01
  8.00000000E-01  8.50000000E-01  8.50000000E-01  8.50000000E-01  8.00000000E-01
  8.50000000E-01  8.50000000E-01  8.50000000E-01  8.00000000E-01  8.50000000E-01
  8.50000000E-01  8.50000000E-01  8.00000000E-01  8.50000000E-01  8.50000000E-01
  8.50000000E-01  8.00000000E-01  8.50000000E-01  8.50000000E-01  8.50000000E-01
  8.00000000E-01  8.50000000E-01  8.50000000E-01  8.50000000E-01  8.00000000E-01
  8.50000000E-01  8.50000000E-01  8.50000000E-01  8.00000000E-01  8.50000000E-01
  8.50000000E-01  8.50000000E-01  8.00000000E-01  8.50000000E-01  8.50000000E-01
  8.50000000E-01  8.00000000E-01  8.50000000E-01  8.50000000E-01  8.50000000E-01
  8.00000000E-01  8.50000000E-01  8.50000000E-01  8.50000000E-01  8.00000000E-01
  8.50000000E-01  8.50000000E-01  8.50000000E-01  8.00000000E-01  8.50000000E-01
  8.50000000E-01  8.50000000E-01  8.00000000E-01  8.50000000E-01  8.50000000E-01
  8.50000000E-01  8.00000000E-01  8.50000000E-01  8.50000000E-01  8.50000000E-01
  8.00000000E-01  8.50000000E-01  8.50000000E-01  8.50000000E-01  8.00000000E-01
  8.50000000E-01  8.50000000E-01  8.50000000E-01  8.00000000E-01  8.50000000E-01
  8.50000000E-01  8.50000000E-01  8.00000000E-01  8.50000000E-01  8.50000000E-01
  8.50000000E-01  8.00000000E-01  8.50000000E-01  8.50000000E-01  8.50000000E-01
  8.00000000E-01  8.50000000E-01  8.50000000E-01  8.50000000E-01  8.00000000E-01
  8.50000000E-01  8.50000000E-01  8.50000000E-01  8.00000000E-01  8.50000000E-01
  8.50000000E-01  8.50000000E-01  8.00000000E-01  8.50000000E-01  8.50000000E-01
  8.50000000E-01  8.00000000E-01  8.50000000E-01  8.50000000E-01  8.50000000E-01
  8.00000000E-01  8.50000000E-01  8.50000000E-01  8.50000000E-01  8.00000000E-01
  8.50000000E-01  8.50000000E-01  8.50000000E-01  8.00000000E-01  8.50000000E-01
  8.50000000E-01  8.50000000E-01  8.00000000E-01  8.50000000E-01  8.50000000E-01
  8.50000000E-01  8.00000000E-01  8.50000000E-01  8.50000000E-01  8.50000000E-01
  8.00000000E-01  8.50000000E-01  8.50000000E-01  8.50000000E-01  8.00000000E-01
  8.50000000E-01  8.50000000E-01  8.50000000E-01  8.00000000E-01  8.50000000E-01
  8.50000000E-01  8.50000000E-01  8.00000000E-01  8.50000000E-01  8.50000000E-01
  8.50000000E-01  8.00000000E-01  8.50000000E-01  8.50000000E-01  8.50000000E-01
  8.00000000E-01  8.50000000E-01  8.50000000E-01  8.50000000E-01  8.00000000E-01
  8.50000000E-01  8.50000000E-01  8.50000000E-01  8.00000000E-01  8.50000000E-01
  8.50000000E-01  8.50000000E-01  8.00000000E-01  8.50000000E-01  8.50000000E-01
  8.50000000E-01  8.00000000E-01  8.50000000E-01  8.50000000E-01  8.50000000E-01
  8.00000000E-01  8.50000000E-01  8.50000000E-01  8.50000000E-01  8.00000000E-01
  8.50000000E-01  8.50000000E-01  8.50000000E-01  8.00000000E-01  8.50000000E-01
  8.50000000E-01  8.50000000E-01  8.00000000E-01  8.50000000E-01  8.50000000E-01
  8.50000000E-01  8.00000000E-01  8.50000000E-01  8.50000000E-01  8.50000000E-01
  8.00000000E-01  8.50000000E-01  8.50000000E-01  8.50000000E-01  8.00000000E-01
  8.50000000E-01  8.50000000E-01  8.50000000E-01  8.00000000E-01  8.50000000E-01
  8.50000000E-01  8.50000000E-01  8.00000000E-01  8.50000000E-01  8.50000000E-01
  8.50000000E-01  8.00000000E-01  8.50000000E-01  8.50000000E-01  8.50000000E-01
  8.00000000E-01  8.50000000E-01  8.50000000E-01  8.50000000E-01  8.00000000E-01
  8.50000000E-01  8.50000000E-01  8.50000000E-01  8.00000000E-01  8.50000000E-01
  8.50000000E-01  8.50000000E-01  8.00000000E-01  8.50000000E-01  8.50000000E-01
  8.50000000E-01  8.00000000E-01  8.50000000E-01  8.50000000E-01  8.50000000E-01
  8.00000000E-01  8.50000000E-01  8.50000000E-01  8.50000000E-01  8.00000000E-01
  8.50000000E-01  8.50000000E-01  8.50000000E-01  8.00000000E-01  8.50000000E-01
  8.50000000E-01  8.50000000E-01  8.00000000E-01  8.50000000E-01  8.50000000E-01
  8.50000000E-01  8.00000000E-01  8.50000000E-01  8.50000000E-01  8.50000000E-01
  8.00000000E-01  8.50000000E-01  8.50000000E-01  8.50000000E-01  8.00000000E-01
  8.50000000E-01  8.50000000E-01  8.50000000E-01  8.00000000E-01  8.50000000E-01
  8.50000000E-01  8.50000000E-01  8.00000000E-01  8.50000000E-01  8.50000000E-01
  8.50000000E-01  8.00000000E-01  8.50000000E-01  8.50000000E-01  8.50000000E-01
  8.00000000E-01  8.50000000E-01  8.50000000E-01  8.50000000E-01  8.00000000E-01
  8.50000000E-01  8.50000000E-01  8.50000000E-01  8.00000000E-01  8.50000000E-01
  8.50000000E-01  8.50000000E-01  8.00000000E-01  8.50000000E-01  8.50000000E-01
  8.50000000E-01  8.00000000E-01  8.50000000E-01  8.50000000E-01  8.50000000E-01
  8.00000000E-01  8.50000000E-01  8.50000000E-01  8.50000000E-01  8.00000000E-01
  8.50000000E-01  8.50000000E-01  8.50000000E-01  8.00000000E-01  8.50000000E-01
  8.50000000E-01  8.50000000E-01  8.00000000E-01  8.50000000E-01  8.50000000E-01
  8.50000000E-01  8.00000000E-01  8.50000000E-01  8.50000000E-01  8.50000000E-01
  8.00000000E-01  8.50000000E-01  8.50000000E-01  8.50000000E-01  8.00000000E-01
  8.50000000E-01  8.50000000E-01  8.50000000E-01  8.00000000E-01  8.50000000E-01
  8.50000000E-01  8.50000000E-01  8.00000000E-01  8.50000000E-01  8.50000000E-01
  8.50000000E-01  8.00000000E-01  8.50000000E-01  8.50000000E-01  8.50000000E-01
  8.00000000E-01  8.50000000E-01  8.50000000E-01  8.50000000E-01  8.00000000E-01
  8.50000000E-01  8.50000000E-01  8.50000000E-01  8.00000000E-01  8.50000000E-01
  8.50000000E-01  8.50000000E-01  8.00000000E-01  8.50000000E-01  8.50000000E-01
  8.50000000E-01  8.00000000E-01  8.50000000E-01  8.50000000E-01  8.50000000E-01
  8.00000000E-01  8.50000000E-01  8.50000000E-01  8.50000000E-01  8.00000000E-01
  8.50000000E-01  8.50000000E-01  8.50000000E-01  8.00000000E-01  8.50000000E-01
  8.50000000E-01  8.50000000E-01  8.00000000E-01  8.50000000E-01  8.50000000E-01
  8.50000000E-01  8.00000000E-01  8.50000000E-01  8.50000000E-01  8.50000000E-01
  8.00000000E-01  8.50000000E-01  8.50000000E-01  8.50000000E-01  8.00000000E-01
  8.50000000E-01  8.50000000E-01  8.50000000E-01  8.00000000E-01  8.50000000E-01
  8.50000000E-01  8.50000000E-01  8.00000000E-01  8.50000000E-01  8.50000000E-01
  8.50000000E-01  8.00000000E-01  8.50000000E-01  8.50000000E-01  8.50000000E-01
  8.00000000E-01  8.50000000E-01  8.50000000E-01  8.50000000E-01  8.00000000E-01
  8.50000000E-01  8.50000000E-01  8.50000000E-01  8.00000000E-01  8.50000000E-01
  8.50000000E-01  8.50000000E-01  8.00000000E-01  8.50000000E-01  8.50000000E-01
  8.50000000E-01  8.00000000E-01  8.50000000E-01  8.50000000E-01  8.50000000E-01
  8.00000000E-01  8.50000000E-01  8.50000000E-01  8.50000000E-01  8.00000000E-01
  8.50000000E-01  8.50000000E-01  8.50000000E-01  8.00000000E-01  8.50000000E-01
  8.50000000E-01  8.50000000E-01  8.00000000E-01  8.50000000E-01  8.50000000E-01
  8.50000000E-01  8.00000000E-01  8.50000000E-01  8.50000000E-01  8.50000000E-01
  8.00000000E-01  8.50000000E-01  8.50000000E-01  8.50000000E-01  8.00000000E-01
  8.50000000E-01  8.50000000E-01  8.50000000E-01  8.00000000E-01  8.50000000E-01
  8.50000000E-01  8.50000000E-01  8.00000000E-01  8.50000000E-01  8.50000000E-01
  8.50000000E-01  8.00000000E-01  8.50000000E-01  8.50000000E-01  8.50000000E-01
  8.00000000E-01  8.50000000E-01  8.50000000E-01  8.50000000E-01  8.00000000E-01
  8.50000000E-01  8.50000000E-01  8.50000000E-01  8.00000000E-01  8.50000000E-01
  8.50000000E-01  8.50000000E-01  8.00000000E-01  8.50000000E-01  8.50000000E-01
  8.50000000E-01  8.00000000E-01  8.50000000E-01  8.50000000E-01  8.50000000E-01
  8.00000000E-01  8.50000000E-01  8.50000000E-01  8.50000000E-01  8.00000000E-01
  8.50000000E-01  8.50000000E-01  8.50000000E-01  8.00000000E-01  8.50000000E-01
  8.50000000E-01  8.50000000E-01  8.00000000E-01  8.50000000E-01  8.50000000E-01
  8.50000000E-01  8.00000000E-01  8.50000000E-01  8.50000000E-01  8.50000000E-01
  8.00000000E-01  8.50000000E-01  8.50000000E-01  8.50000000E-01  8.00000000E-01
  8.50000000E-01  8.50000000E-01  8.50000000E-01  8.00000000E-01  8.50000000E-01
  8.50000000E-01  8.50000000E-01  8.00000000E-01  8.50000000E-01  8.50000000E-01
  8.50000000E-01  8.00000000E-01  8.50000000E-01  8.50000000E-01  8.50000000E-01
  8.00000000E-01  8.50000000E-01  8.50000000E-01  8.50000000E-01  8.00000000E-01
  8.50000000E-01  8.50000000E-01  8.50000000E-01  8.00000000E-01  8.50000000E-01
  8.50000000E-01  8.50000000E-01  8.00000000E-01  8.50000000E-01  8.50000000E-01
  8.50000000E-01  8.00000000E-01  8.50000000E-01  8.50000000E-01  8.50000000E-01
  8.00000000E-01  8.50000000E-01  8.50000000E-01  8.50000000E-01  8.00000000E-01
  8.50000000E-01  8.50000000E-01  8.50000000E-01  8.00000000E-01  8.50000000E-01
  8.50000000E-01  8.50000000E-01  8.00000000E-01  8.50000000E-01  8.50000000E-01
  8.50000000E-01  8.00000000E-01  8.50000000E-01  8.50000000E-01  8.50000000E-01
  8.00000000E-01  8.50000000E-01  8.50000000E-01  8.50000000E-01  8.00000000E-01
  8.50000000E-01  8.50000000E-01  8.50000000E-01  8.00000000E-01  8.50000000E-01
  8.50000000E-01  8.50000000E-01  8.00000000E-01  8.50000000E-01  8.50000000E-01
  8.50000000E-01  8.00000000E-01  8.50000000E-01  8.50000000E-01  8.50000000E-01
  8.00000000E-01  8.50000000E-01  8.50000000E-01  8.50000000E-01  8.00000000E-01
  8.50000000E-01  8.50000000E-01  8.50000000E-01  8.00000000E-01  8.50000000E-01
  8.50000000E-01  8.50000000E-01  8.00000000E-01  8.50000000E-01  8.50000000E-01
  8.50000000E-01  8.00000000E-01  8.50000000E-01  8.50000000E-01  8.50000000E-01
  8.00000000E-01  8.50000000E-01  8.50000000E-01  8.50000000E-01  8.00000000E-01
  8.50000000E-01  8.50000000E-01  8.50000000E-01  8.00000000E-01  8.50000000E-01
  8.50000000E-01  8.50000000E-01  8.00000000E-01  8.50000000E-01  8.50000000E-01
  8.50000000E-01  8.00000000E-01  8.50000000E-01  8.50000000E-01  8.50000000E-01
  8.00000000E-01  8.50000000E-01  8.50000000E-01  8.50000000E-01  8.00000000E-01
  8.50000000E-01  8.50000000E-01  8.50000000E-01  8.00000000E-01  8.50000000E-01
  8.50000000E-01  8.50000000E-01  8.00000000E-01  8.50000000E-01  8.50000000E-01
  8.50000000E-01  8.00000000E-01  8.50000000E-01  8.50000000E-01  8.50000000E-01
  8.00000000E-01  8.50000000E-01  8.50000000E-01  8.50000000E-01  8.00000000E-01
  8.50000000E-01  8.50000000E-01  8.50000000E-01  8.00000000E-01  8.50000000E-01
  8.50000000E-01  8.50000000E-01  8.00000000E-01  8.50000000E-01  8.50000000E-01
  8.50000000E-01  8.00000000E-01  8.50000000E-01  8.50000000E-01  8.50000000E-01
  8.00000000E-01  8.50000000E-01  8.50000000E-01  8.50000000E-01  8.00000000E-01
  8.50000000E-01  8.50000000E-01  8.50000000E-01  8.00000000E-01  8.50000000E-01
  8.50000000E-01  8.50000000E-01  8.00000000E-01  8.50000000E-01  8.50000000E-01
  8.50000000E-01  8.00000000E-01  8.50000000E-01  8.50000000E-01  8.50000000E-01
  8.00000000E-01  8.50000000E-01  8.50000000E-01  8.50000000E-01  8.00000000E-01
  8.50000000E-01  8.50000000E-01  8.50000000E-01  8.00000000E-01  8.50000000E-01
  8.50000000E-01  8.50000000E-01  8.00000000E-01  8.50000000E-01  8.50000000E-01
  8.50000000E-01  8.00000000E-01  8.50000000E-01  8.50000000E-01  8.50000000E-01
  8.00000000E-01  8.50000000E-01  8.50000000E-01  8.50000000E-01  8.00000000E-01
  8.50000000E-01  8.50000000E-01  8.50000000E-01  8.00000000E-01  8.50000000E-01
  8.50000000E-01  8.50000000E-01  8.00000000E-01  8.50000000E-01  8.50000000E-01
  8.50000000E-01  8.00000000E-01  8.50000000E-01  8.50000000E-01  8.50000000E-01
  8.00000000E-01  8.50000000E-01  8.50000000E-01  8.50000000E-01  8.00000000E-01
  8.50000000E-01  8.50000000E-01  8.50000000E-01  8.00000000E-01  8.50000000E-01
  8.50000000E-01  8.50000000E-01  8.00000000E-01  8.50000000E-01  8.50000000E-01
  8.50000000E-01  8.00000000E-01  8.50000000E-01  8.50000000E-01  8.50000000E-01
  8.00000000E-01  8.50000000E-01  8.50000000E-01  8.50000000E-01  8.00000000E-01
  8.50000000E-01  8.50000000E-01  8.50000000E-01  8.00000000E-01  8.50000000E-01
  8.50000000E-01  8.50000000E-01  8.00000000E-01  8.50000000E-01  8.50000000E-01
  8.50000000E-01  8.00000000E-01  8.50000000E-01  8.50000000E-01  8.50000000E-01
  8.00000000E-01  8.50000000E-01  8.50000000E-01  8.50000000E-01  8.00000000E-01
  8.50000000E-01  8.50000000E-01  8.50000000E-01  8.00000000E-01  8.50000000E-01
  8.50000000E-01  8.50000000E-01  8.00000000E-01  8.50000000E-01  8.50000000E-01
  8.50000000E-01  8.00000000E-01  8.50000000E-01  8.50000000E-01  8.50000000E-01
  8.00000000E-01  8.50000000E-01  8.50000000E-01  8.50000000E-01  8.00000000E-01
  8.50000000E-01  8.50000000E-01  8.50000000E-01  8.00000000E-01  8.50000000E-01
  8.50000000E-01  8.50000000E-01  8.00000000E-01  8.50000000E-01  8.50000000E-01
  8.50000000E-01  8.00000000E-01  8.50000000E-01  8.50000000E-01  8.50000000E-01
  8.00000000E-01  8.50000000E-01  8.50000000E-01  8.50000000E-01  8.00000000E-01
  8.50000000E-01  8.50000000E-01  8.50000000E-01  8.00000000E-01  8.50000000E-01
  8.50000000E-01  8.50000000E-01  8.00000000E-01  8.50000000E-01  8.50000000E-01
  8.50000000E-01  8.00000000E-01  8.50000000E-01  8.50000000E-01  8.50000000E-01
  8.00000000E-01  8.50000000E-01  8.50000000E-01  8.50000000E-01  8.00000000E-01
  8.50000000E-01  8.50000000E-01  8.50000000E-01  8.00000000E-01  8.50000000E-01
  8.50000000E-01  8.50000000E-01  8.00000000E-01  8.50000000E-01  8.50000000E-01
  8.50000000E-01  8.00000000E-01  8.50000000E-01  8.50000000E-01  8.50000000E-01
  8.00000000E-01  8.50000000E-01  8.50000000E-01  8.50000000E-01  8.00000000E-01
  8.50000000E-01  8.50000000E-01  8.50000000E-01  8.00000000E-01  8.50000000E-01
  8.50000000E-01  8.50000000E-01  8.00000000E-01  8.50000000E-01  8.50000000E-01
  8.50000000E-01  8.00000000E-01  8.50000000E-01  8.50000000E-01  8.50000000E-01
  8.00000000E-01  8.50000000E-01  8.50000000E-01  8.50000000E-01  8.00000000E-01
  8.50000000E-01  8.50000000E-01  8.50000000E-01  8.00000000E-01  8.50000000E-01
  8.50000000E-01  8.50000000E-01  8.00000000E-01  8.50000000E-01  8.50000000E-01
  8.50000000E-01  8.00000000E-01  8.50000000E-01  8.50000000E-01  8.50000000E-01
  8.00000000E-01  8.50000000E-01  8.50000000E-01  8.50000000E-01  8.00000000E-01
  8.50000000E-01  8.50000000E-01  8.50000000E-01  8.00000000E-01  8.50000000E-01
  8.50000000E-01  8.50000000E-01  8.00000000E-01  8.50000000E-01  8.50000000E-01
  8.50000000E-01  8.00000000E-01  8.50000000E-01  8.50000000E-01  8.50000000E-01
  8.00000000E-01  8.50000000E-01  8.50000000E-01  8.50000000E-01  8.00000000E-01
  8.50000000E-01  8.50000000E-01  8.50000000E-01  8.00000000E-01  8.50000000E-01
  8.50000000E-01  8.50000000E-01  8.00000000E-01  8.50000000E-01  8.50000000E-01
  8.50000000E-01  8.00000000E-01  8.50000000E-01  8.50000000E-01  8.50000000E-01
  8.00000000E-01  8.50000000E-01  8.50000000E-01  8.50000000E-01  8.00000000E-01
  8.50000000E-01  8.50000000E-01  8.50000000E-01  8.00000000E-01  8.50000000E-01
  8.50000000E-01  8.50000000E-01  8.00000000E-01  8.50000000E-01  8.50000000E-01
  8.50000000E-01  8.00000000E-01  8.50000000E-01  8.50000000E-01  8.50000000E-01
  8.00000000E-01  8.50000000E-01  8.50000000E-01  8.50000000E-01  8.00000000E-01
  8.50000000E-01  8.50000000E-01  8.50000000E-01  8.00000000E-01  8.50000000E-01
  8.50000000E-01  8.50000000E-01  8.00000000E-01  8.50000000E-01  8.50000000E-01
  8.50000000E-01  8.00000000E-01  8.50000000E-01  8.50000000E-01  8.50000000E-01
  8.00000000E-01  8.50000000E-01  8.50000000E-01  8.50000000E-01  8.00000000E-01
  8.50000000E-01  8.50000000E-01  8.50000000E-01  8.00000000E-01  8.50000000E-01
  8.50000000E-01  8.50000000E-01  8.00000000E-01  8.50000000E-01  8.50000000E-01
  8.50000000E-01  8.00000000E-01  8.50000000E-01  8.50000000E-01  8.50000000E-01
  8.00000000E-01  8.50000000E-01  8.50000000E-01  8.50000000E-01  8.00000000E-01
  8.50000000E-01  8.50000000E-01  8.50000000E-01  8.00000000E-01  8.50000000E-01
  8.50000000E-01  8.50000000E-01  8.00000000E-01  8.50000000E-01  8.50000000E-01
  8.50000000E-01  8.00000000E-01  8.50000000E-01  8.50000000E-01  8.50000000E-01
  8.00000000E-01  8.50000000E-01  8.50000000E-01  8.50000000E-01  8.00000000E-01
  8.50000000E-01  8.50000000E-01  8.50000000E-01  8.00000000E-01  8.50000000E-01
  8.50000000E-01  8.50000000E-01  8.00000000E-01  8.50000000E-01  8.50000000E-01
  8.50000000E-01  8.00000000E-01  8.50000000E-01  8.50000000E-01  8.50000000E-01
  8.00000000E-01  8.50000000E-01  8.50000000E-01  8.50000000E-01  8.00000000E-01
  8.50000000E-01  8.50000000E-01  8.50000000E-01  8.00000000E-01  8.50000000E-01
  8.50000000E-01  8.50000000E-01  8.00000000E-01  8.50000000E-01  8.50000000E-01
  8.50000000E-01  8.00000000E-01  8.50000000E-01  8.50000000E-01  8.50000000E-01
  8.00000000E-01  8.50000000E-01  8.50000000E-01  8.50000000E-01  8.00000000E-01
  8.50000000E-01  8.50000000E-01  8.50000000E-01  8.00000000E-01  8.50000000E-01
  8.50000000E-01  8.50000000E-01  8.00000000E-01  8.50000000E-01  8.50000000E-01
  8.50000000E-01  8.00000000E-01  8.50000000E-01  8.50000000E-01  8.50000000E-01
  8.00000000E-01  8.50000000E-01  8.50000000E-01  8.50000000E-01  8.00000000E-01
  8.50000000E-01  8.50000000E-01  8.50000000E-01  8.00000000E-01  8.50000000E-01
  8.50000000E-01  8.50000000E-01  8.00000000E-01  8.50000000E-01  8.50000000E-01
  8.50000000E-01  8.00000000E-01  8.50000000E-01  8.50000000E-01  8.50000000E-01
  8.00000000E-01  8.50000000E-01  8.50000000E-01  8.50000000E-01  8.00000000E-01
  8.50000000E-01  8.50000000E-01  8.50000000E-01  8.00000000E-01  8.50000000E-01
  8.50000000E-01  8.50000000E-01  8.00000000E-01  8.50000000E-01  8.50000000E-01
  8.50000000E-01  8.00000000E-01  8.50000000E-01  8.50000000E-01  8.50000000E-01
  8.00000000E-01  8.50000000E-01  8.50000000E-01  8.50000000E-01  8.00000000E-01
  8.50000000E-01  8.50000000E-01  8.50000000E-01  8.00000000E-01  8.50000000E-01
  8.50000000E-01  8.50000000E-01  8.00000000E-01  8.50000000E-01  8.50000000E-01
  8.50000000E-01  8.00000000E-01  8.50000000E-01  8.50000000E-01  8.50000000E-01
  8.00000000E-01  8.50000000E-01  8.50000000E-01  8.50000000E-01  8.00000000E-01
  8.50000000E-01  8.50000000E-01  8.50000000E-01  8.00000000E-01  8.50000000E-01
  8.50000000E-01  8.50000000E-01  8.00000000E-01  8.50000000E-01  8.50000000E-01
  8.50000000E-01  8.00000000E-01  8.50000000E-01  8.50000000E-01  8.50000000E-01
  8.00000000E-01  8.50000000E-01  8.50000000E-01  8.50000000E-01  8.00000000E-01
  8.50000000E-01  8.50000000E-01  8.50000000E-01  8.00000000E-01  8.50000000E-01
  8.50000000E-01  8.50000000E-01  8.00000000E-01  8.50000000E-01  8.50000000E-01
  8.50000000E-01  8.00000000E-01  8.50000000E-01  8.50000000E-01  8.50000000E-01
  8.00000000E-01  8.50000000E-01  8.50000000E-01  8.50000000E-01  8.00000000E-01
  8.50000000E-01  8.50000000E-01  8.50000000E-01  8.00000000E-01  8.50000000E-01
  8.50000000E-01  8.50000000E-01  8.00000000E-01  8.50000000E-01  8.50000000E-01
  8.50000000E-01  8.00000000E-01  8.50000000E-01  8.50000000E-01  8.50000000E-01
  8.00000000E-01  8.50000000E-01  8.50000000E-01  8.50000000E-01  8.00000000E-01
  8.50000000E-01  8.50000000E-01  8.50000000E-01  8.00000000E-01  8.50000000E-01
  8.50000000E-01  8.50000000E-01  8.00000000E-01  8.50000000E-01  8.50000000E-01
  8.50000000E-01  8.00000000E-01  8.50000000E-01  8.50000000E-01  8.50000000E-01
  8.00000000E-01  8.50000000E-01  8.50000000E-01  8.50000000E-01  8.00000000E-01
  8.50000000E-01  8.50000000E-01  8.50000000E-01  8.00000000E-01  8.50000000E-01
  8.50000000E-01  8.50000000E-01  8.00000000E-01  8.50000000E-01  8.50000000E-01
  8.50000000E-01  8.00000000E-01  8.50000000E-01  8.50000000E-01  8.50000000E-01
  8.00000000E-01  8.50000000E-01  8.50000000E-01  8.50000000E-01  8.00000000E-01
  8.50000000E-01  8.50000000E-01  8.50000000E-01  8.00000000E-01  8.50000000E-01
  8.50000000E-01  8.50000000E-01  8.00000000E-01  8.50000000E-01  8.50000000E-01
  8.50000000E-01  8.00000000E-01  8.50000000E-01  8.50000000E-01  8.50000000E-01
  8.00000000E-01  8.50000000E-01  8.50000000E-01  8.50000000E-01  8.00000000E-01
  8.50000000E-01  8.50000000E-01  8.50000000E-01  8.00000000E-01  8.50000000E-01
  8.50000000E-01  8.50000000E-01  8.00000000E-01  8.50000000E-01  8.50000000E-01
  8.50000000E-01  8.00000000E-01  8.50000000E-01  8.50000000E-01  8.50000000E-01
  8.00000000E-01  8.50000000E-01  8.50000000E-01  8.50000000E-01  8.00000000E-01
  8.50000000E-01  8.50000000E-01  8.50000000E-01  8.00000000E-01  8.50000000E-01
  8.50000000E-01  8.50000000E-01  8.00000000E-01  8.50000000E-01  8.50000000E-01
  8.50000000E-01  8.00000000E-01  8.50000000E-01  8.50000000E-01  8.50000000E-01
  8.00000000E-01  8.50000000E-01  8.50000000E-01  8.50000000E-01  8.00000000E-01
  8.50000000E-01  8.50000000E-01  8.50000000E-01  8.00000000E-01  8.50000000E-01
  8.50000000E-01  8.50000000E-01  8.00000000E-01  8.50000000E-01  8.50000000E-01
  8.50000000E-01  8.00000000E-01  8.50000000E-01  8.50000000E-01  8.50000000E-01
  8.00000000E-01  8.50000000E-01  8.50000000E-01  8.50000000E-01  8.00000000E-01
  8.50000000E-01  8.50000000E-01  8.50000000E-01  8.00000000E-01  8.50000000E-01
  8.50000000E-01  8.50000000E-01  8.00000000E-01  8.50000000E-01  8.50000000E-01
  8.50000000E-01  8.00000000E-01  8.50000000E-01  8.50000000E-01  8.50000000E-01
  8.00000000E-01  8.50000000E-01  8.50000000E-01  8.50000000E-01  8.00000000E-01
  8.50000000E-01  8.50000000E-01  8.50000000E-01  8.00000000E-01  8.50000000E-01
  8.50000000E-01  8.50000000E-01  8.00000000E-01  8.50000000E-01  8.50000000E-01
  8.50000000E-01  8.00000000E-01  8.50000000E-01  8.50000000E-01  8.50000000E-01
  8.00000000E-01  8.50000000E-01  8.50000000E-01  8.50000000E-01  8.00000000E-01
  8.50000000E-01  8.50000000E-01  8.50000000E-01  8.00000000E-01  8.50000000E-01
  8.50000000E-01  8.50000000E-01  8.00000000E-01  8.50000000E-01  8.50000000E-01
  8.50000000E-01  8.00000000E-01  8.50000000E-01  8.50000000E-01  8.50000000E-01
  8.00000000E-01  8.50000000E-01  8.50000000E-01  8.50000000E-01  8.00000000E-01
  8.50000000E-01  8.50000000E-01  8.50000000E-01  8.00000000E-01  8.50000000E-01
  8.50000000E-01  8.50000000E-01  8.00000000E-01  8.50000000E-01  8.50000000E-01
  8.50000000E-01  8.00000000E-01  8.50000000E-01  8.50000000E-01  8.50000000E-01
  8.00000000E-01  8.50000000E-01  8.50000000E-01  8.50000000E-01  8.00000000E-01
  8.50000000E-01  8.50000000E-01  8.50000000E-01  8.00000000E-01  8.50000000E-01
  8.50000000E-01  8.50000000E-01  8.00000000E-01  8.50000000E-01  8.50000000E-01
  8.50000000E-01  8.00000000E-01  8.50000000E-01  8.50000000E-01  8.50000000E-01
  8.00000000E-01  8.50000000E-01  8.50000000E-01  8.50000000E-01  8.00000000E-01
  8.50000000E-01  8.50000000E-01  8.50000000E-01  8.00000000E-01  8.50000000E-01
  8.50000000E-01  8.50000000E-01  8.00000000E-01  8.50000000E-01  8.50000000E-01
  8.50000000E-01  8.00000000E-01  8.50000000E-01  8.50000000E-01  8.50000000E-01
  8.00000000E-01  8.50000000E-01  8.50000000E-01  8.50000000E-01  8.00000000E-01
  8.50000000E-01  8.50000000E-01  8.50000000E-01  8.00000000E-01  8.50000000E-01
  8.50000000E-01  8.50000000E-01  8.00000000E-01  8.50000000E-01  8.50000000E-01
  8.50000000E-01  8.00000000E-01  8.50000000E-01  8.50000000E-01  8.50000000E-01
  8.00000000E-01  8.50000000E-01  8.50000000E-01  8.50000000E-01  8.00000000E-01
  8.50000000E-01  8.50000000E-01  8.50000000E-01  8.00000000E-01  8.50000000E-01
  8.50000000E-01  8.50000000E-01  8.00000000E-01  8.50000000E-01  8.50000000E-01
  8.50000000E-01  8.00000000E-01  8.50000000E-01  8.50000000E-01  8.50000000E-01
  8.00000000E-01  8.50000000E-01  8.50000000E-01  8.50000000E-01  8.00000000E-01
  8.50000000E-01  8.50000000E-01  8.50000000E-01  8.00000000E-01  8.50000000E-01
  8.50000000E-01  8.50000000E-01  8.00000000E-01  8.50000000E-01  8.50000000E-01
  8.50000000E-01  8.00000000E-01  8.50000000E-01  8.50000000E-01  8.50000000E-01
  8.00000000E-01  8.50000000E-01  8.50000000E-01  8.50000000E-01  8.00000000E-01
  8.50000000E-01  8.50000000E-01  8.50000000E-01  8.00000000E-01  8.50000000E-01
  8.50000000E-01  8.50000000E-01  8.00000000E-01  8.50000000E-01  8.50000000E-01
  8.50000000E-01  8.00000000E-01  8.50000000E-01  8.50000000E-01  8.50000000E-01
  8.00000000E-01  8.50000000E-01  8.50000000E-01  8.50000000E-01  8.00000000E-01
  8.50000000E-01  8.50000000E-01  8.50000000E-01  8.00000000E-01  8.50000000E-01
  8.50000000E-01  8.50000000E-01  8.00000000E-01  8.50000000E-01  8.50000000E-01
  8.50000000E-01  8.00000000E-01  8.50000000E-01  8.50000000E-01  8.50000000E-01
  8.00000000E-01  8.50000000E-01  8.50000000E-01  8.50000000E-01  8.00000000E-01
  8.50000000E-01  8.50000000E-01  8.50000000E-01  8.00000000E-01  8.50000000E-01
  8.50000000E-01  8.50000000E-01  8.00000000E-01  8.50000000E-01  8.50000000E-01
  8.50000000E-01  8.00000000E-01  8.50000000E-01  8.50000000E-01  8.50000000E-01
  8.00000000E-01  8.50000000E-01  8.50000000E-01  8.50000000E-01  8.00000000E-01
  8.50000000E-01  8.50000000E-01  8.50000000E-01  8.00000000E-01  8.50000000E-01
  8.50000000E-01  8.50000000E-01  8.00000000E-01  8.50000000E-01  8.50000000E-01
  8.50000000E-01  8.00000000E-01  8.50000000E-01  8.50000000E-01  8.50000000E-01
  8.00000000E-01  8.50000000E-01  8.50000000E-01  8.50000000E-01  8.00000000E-01
  8.50000000E-01  8.50000000E-01  8.50000000E-01  8.00000000E-01  8.50000000E-01
  8.50000000E-01  8.50000000E-01  8.00000000E-01  8.50000000E-01  8.50000000E-01
  8.50000000E-01  8.00000000E-01  8.50000000E-01  8.50000000E-01  8.50000000E-01
  8.00000000E-01  8.50000000E-01  8.50000000E-01  8.50000000E-01  8.00000000E-01
  8.50000000E-01  8.50000000E-01  8.50000000E-01  8.00000000E-01  8.50000000E-01
  8.50000000E-01  8.50000000E-01  8.00000000E-01  8.50000000E-01  8.50000000E-01
  8.50000000E-01  8.00000000E-01  8.50000000E-01  8.50000000E-01  8.50000000E-01
  8.00000000E-01  8.50000000E-01  8.50000000E-01  8.50000000E-01  8.00000000E-01
  8.50000000E-01  8.50000000E-01  8.50000000E-01  8.00000000E-01  8.50000000E-01
  8.50000000E-01  8.50000000E-01  8.00000000E-01  8.50000000E-01  8.50000000E-01
  8.50000000E-01  8.00000000E-01  8.50000000E-01  8.50000000E-01  8.50000000E-01
  8.00000000E-01  8.50000000E-01  8.50000000E-01  8.50000000E-01  8.00000000E-01
  8.50000000E-01  8.50000000E-01  8.50000000E-01  8.00000000E-01  8.50000000E-01
  8.50000000E-01  8.50000000E-01  8.00000000E-01  8.50000000E-01  8.50000000E-01
  8.50000000E-01  8.00000000E-01  8.50000000E-01  8.50000000E-01  8.50000000E-01
  8.00000000E-01  8.50000000E-01  8.50000000E-01  8.50000000E-01  8.00000000E-01
  8.50000000E-01  8.50000000E-01  8.50000000E-01  8.00000000E-01  8.50000000E-01
  8.50000000E-01  8.50000000E-01  8.00000000E-01  8.50000000E-01  8.50000000E-01
  8.50000000E-01  8.00000000E-01  8.50000000E-01  8.50000000E-01  8.50000000E-01
  8.00000000E-01  8.50000000E-01  8.50000000E-01  8.50000000E-01  8.00000000E-01
  8.50000000E-01  8.50000000E-01  8.50000000E-01  8.00000000E-01  8.50000000E-01
  8.50000000E-01  8.50000000E-01  8.00000000E-01  8.50000000E-01  8.50000000E-01
  8.50000000E-01  8.00000000E-01  8.50000000E-01  8.50000000E-01  8.50000000E-01
  8.00000000E-01  8.50000000E-01  8.50000000E-01  8.50000000E-01  8.00000000E-01
  8.50000000E-01  8.50000000E-01  8.50000000E-01  8.00000000E-01  8.50000000E-01
  8.50000000E-01  8.50000000E-01  8.00000000E-01  8.50000000E-01  8.50000000E-01
  8.50000000E-01  8.00000000E-01  8.50000000E-01  8.50000000E-01  8.50000000E-01
  8.00000000E-01  8.50000000E-01  8.50000000E-01  8.50000000E-01  8.00000000E-01
  8.50000000E-01  8.50000000E-01  8.50000000E-01  8.00000000E-01  8.50000000E-01
  8.50000000E-01  8.50000000E-01  8.00000000E-01  8.50000000E-01  8.50000000E-01
  8.50000000E-01  8.00000000E-01  8.50000000E-01  8.50000000E-01  8.50000000E-01
  8.00000000E-01  8.50000000E-01  8.50000000E-01  8.50000000E-01  8.00000000E-01
  8.50000000E-01  8.50000000E-01  8.50000000E-01  8.00000000E-01  8.50000000E-01
  8.50000000E-01  8.50000000E-01  8.00000000E-01  8.50000000E-01  8.50000000E-01
  8.50000000E-01  8.00000000E-01  8.50000000E-01  8.50000000E-01  8.50000000E-01
  8.00000000E-01  8.50000000E-01  8.50000000E-01  8.50000000E-01  8.00000000E-01
  8.50000000E-01  8.50000000E-01  8.50000000E-01  8.00000000E-01  8.50000000E-01
  8.50000000E-01  8.50000000E-01  8.00000000E-01  8.50000000E-01  8.50000000E-01
  8.50000000E-01  8.00000000E-01  8.50000000E-01  8.50000000E-01  8.50000000E-01
  8.00000000E-01  8.50000000E-01  8.50000000E-01  8.50000000E-01  8.00000000E-01
  8.50000000E-01  8.50000000E-01  8.50000000E-01  8.00000000E-01  8.50000000E-01
  8.50000000E-01  8.50000000E-01  8.00000000E-01  8.50000000E-01  8.50000000E-01
  8.50000000E-01  8.00000000E-01  8.50000000E-01  8.50000000E-01  8.50000000E-01
  8.00000000E-01  8.50000000E-01  8.50000000E-01  8.50000000E-01  8.00000000E-01
  8.50000000E-01  8.50000000E-01  8.50000000E-01  8.00000000E-01  8.50000000E-01
  8.50000000E-01  8.50000000E-01  8.00000000E-01  8.50000000E-01  8.50000000E-01
  8.50000000E-01  8.00000000E-01  8.50000000E-01  8.50000000E-01  8.50000000E-01
  8.00000000E-01  8.50000000E-01  8.50000000E-01  8.50000000E-01  8.00000000E-01
  8.50000000E-01  8.50000000E-01  8.50000000E-01  8.00000000E-01  8.50000000E-01
  8.50000000E-01  8.50000000E-01  8.00000000E-01  8.50000000E-01  8.50000000E-01
  8.50000000E-01  8.00000000E-01  8.50000000E-01  8.50000000E-01  8.50000000E-01
  8.00000000E-01  8.50000000E-01  8.50000000E-01  8.50000000E-01  8.00000000E-01
  8.50000000E-01  8.50000000E-01  8.50000000E-01  8.00000000E-01  8.50000000E-01
  8.50000000E-01  8.50000000E-01  8.00000000E-01  8.50000000E-01  8.50000000E-01
  8.50000000E-01  8.00000000E-01  8.50000000E-01  8.50000000E-01  8.50000000E-01
  8.00000000E-01  8.50000000E-01  8.50000000E-01  8.50000000E-01  8.00000000E-01
  8.50000000E-01  8.50000000E-01  8.50000000E-01  8.00000000E-01  8.50000000E-01
  8.50000000E-01  8.50000000E-01  8.00000000E-01  8.50000000E-01  8.50000000E-01
  8.50000000E-01  8.00000000E-01  8.50000000E-01  8.50000000E-01  8.50000000E-01
  8.00000000E-01  8.50000000E-01  8.50000000E-01  8.50000000E-01  8.00000000E-01
  8.50000000E-01  8.50000000E-01  8.50000000E-01  8.00000000E-01  8.50000000E-01
  8.50000000E-01  8.50000000E-01  8.00000000E-01  8.50000000E-01  8.50000000E-01
  8.50000000E-01  8.00000000E-01  8.50000000E-01  8.50000000E-01  8.50000000E-01
  8.00000000E-01  8.50000000E-01  8.50000000E-01  8.50000000E-01  8.00000000E-01
  8.50000000E-01  8.50000000E-01  8.50000000E-01  8.00000000E-01  8.50000000E-01
  8.50000000E-01  8.50000000E-01  8.00000000E-01  8.50000000E-01  8.50000000E-01
  8.50000000E-01  8.00000000E-01  8.50000000E-01  8.50000000E-01  8.50000000E-01
  8.00000000E-01  8.50000000E-01  8.50000000E-01  8.50000000E-01  8.00000000E-01
  8.50000000E-01  8.50000000E-01  8.50000000E-01  8.00000000E-01  8.50000000E-01
  8.50000000E-01  8.50000000E-01  8.00000000E-01  8.50000000E-01  8.50000000E-01
  8.50000000E-01  8.00000000E-01  8.50000000E-01  8.50000000E-01  8.50000000E-01
  8.00000000E-01  8.50000000E-01  8.50000000E-01  8.50000000E-01  8.00000000E-01
  8.50000000E-01  8.50000000E-01  8.50000000E-01  8.00000000E-01  8.50000000E-01
  8.50000000E-01  8.50000000E-01  8.00000000E-01  8.50000000E-01  8.50000000E-01
  8.50000000E-01  8.00000000E-01  8.50000000E-01  8.50000000E-01  8.50000000E-01
  8.00000000E-01  8.50000000E-01  8.50000000E-01  8.50000000E-01  8.00000000E-01
  8.50000000E-01  8.50000000E-01  8.50000000E-01  8.00000000E-01  8.50000000E-01
  8.50000000E-01  8.50000000E-01  8.00000000E-01  8.50000000E-01  8.50000000E-01
  8.50000000E-01  8.00000000E-01  8.50000000E-01  8.50000000E-01  8.50000000E-01
  8.00000000E-01  8.50000000E-01  8.50000000E-01  8.50000000E-01  8.00000000E-01
  8.50000000E-01  8.50000000E-01  8.50000000E-01  8.00000000E-01  8.50000000E-01
  8.50000000E-01  8.50000000E-01  8.00000000E-01  8.50000000E-01  8.50000000E-01
  8.50000000E-01  8.00000000E-01  8.50000000E-01  8.50000000E-01  8.50000000E-01
  8.00000000E-01  8.50000000E-01  8.50000000E-01  8.50000000E-01  8.00000000E-01
  8.50000000E-01  8.50000000E-01  8.50000000E-01  8.00000000E-01  8.50000000E-01
  8.50000000E-01  8.50000000E-01  8.00000000E-01  8.50000000E-01  8.50000000E-01
  8.50000000E-01  8.00000000E-01  8.50000000E-01  8.50000000E-01  8.50000000E-01
  8.00000000E-01  8.50000000E-01  8.50000000E-01  8.50000000E-01  8.00000000E-01
  8.50000000E-01  8.50000000E-01  8.50000000E-01  8.00000000E-01  8.50000000E-01
  8.50000000E-01  8.50000000E-01  8.00000000E-01  8.50000000E-01  8.50000000E-01
  8.50000000E-01  8.00000000E-01  8.50000000E-01  8.50000000E-01  8.50000000E-01
  8.00000000E-01  8.50000000E-01  8.50000000E-01  8.50000000E-01  8.00000000E-01
  8.50000000E-01  8.50000000E-01  8.50000000E-01  8.00000000E-01  8.50000000E-01
  8.50000000E-01  8.50000000E-01  8.00000000E-01  8.50000000E-01  8.50000000E-01
  8.50000000E-01  8.00000000E-01  8.50000000E-01  8.50000000E-01  8.50000000E-01
  8.00000000E-01  8.50000000E-01  8.50000000E-01  8.50000000E-01  8.00000000E-01
  8.50000000E-01  8.50000000E-01  8.50000000E-01  8.00000000E-01  8.50000000E-01
  8.50000000E-01  8.50000000E-01  8.00000000E-01  8.50000000E-01  8.50000000E-01
  8.50000000E-01  8.00000000E-01  8.50000000E-01  8.50000000E-01  8.50000000E-01
  8.00000000E-01  8.50000000E-01  8.50000000E-01  8.50000000E-01  8.00000000E-01
  8.50000000E-01  8.50000000E-01  8.50000000E-01  8.00000000E-01  8.50000000E-01
  8.50000000E-01  8.50000000E-01  8.00000000E-01  8.50000000E-01  8.50000000E-01
  8.50000000E-01  8.00000000E-01  8.50000000E-01  8.50000000E-01  8.50000000E-01
  8.00000000E-01  8.50000000E-01  8.50000000E-01  8.50000000E-01  8.00000000E-01
  8.50000000E-01  8.50000000E-01  8.50000000E-01  8.00000000E-01  8.50000000E-01
  8.50000000E-01  8.50000000E-01  8.00000000E-01  8.50000000E-01  8.50000000E-01
  8.50000000E-01  8.00000000E-01  8.50000000E-01  8.50000000E-01  8.50000000E-01
  8.00000000E-01  8.50000000E-01  8.50000000E-01  8.50000000E-01  8.00000000E-01
  8.50000000E-01  8.50000000E-01  8.50000000E-01  8.00000000E-01  8.50000000E-01
  8.50000000E-01  8.50000000E-01  8.00000000E-01  8.50000000E-01  8.50000000E-01
  8.50000000E-01  8.00000000E-01  8.50000000E-01  8.50000000E-01  8.50000000E-01
  8.00000000E-01  8.50000000E-01  8.50000000E-01  8.50000000E-01  8.00000000E-01
  8.50000000E-01  8.50000000E-01  8.50000000E-01  8.00000000E-01  8.50000000E-01
  8.50000000E-01  8.50000000E-01  8.00000000E-01  8.50000000E-01  8.50000000E-01
  8.50000000E-01  8.00000000E-01  8.50000000E-01  8.50000000E-01  8.50000000E-01
  8.00000000E-01  8.50000000E-01  8.50000000E-01  8.50000000E-01  8.00000000E-01
  8.50000000E-01  8.50000000E-01  8.50000000E-01  8.00000000E-01  8.50000000E-01
  8.50000000E-01  8.50000000E-01  8.00000000E-01  8.50000000E-01  8.50000000E-01
  8.50000000E-01  8.00000000E-01  8.50000000E-01  8.50000000E-01  8.50000000E-01
  8.00000000E-01  8.50000000E-01  8.50000000E-01  8.50000000E-01  8.00000000E-01
  8.50000000E-01  8.50000000E-01  8.50000000E-01  8.00000000E-01  8.50000000E-01
  8.50000000E-01  8.50000000E-01  8.00000000E-01  8.50000000E-01  8.50000000E-01
  8.50000000E-01  8.00000000E-01  8.50000000E-01  8.50000000E-01  8.50000000E-01
  8.00000000E-01  8.50000000E-01  8.50000000E-01  8.50000000E-01  8.00000000E-01
  8.50000000E-01  8.50000000E-01  8.50000000E-01  8.00000000E-01  8.50000000E-01
  8.50000000E-01  8.50000000E-01  8.00000000E-01  8.50000000E-01  8.50000000E-01
  8.50000000E-01  8.00000000E-01  8.50000000E-01  8.50000000E-01  8.50000000E-01
  8.00000000E-01  8.50000000E-01  8.50000000E-01  8.50000000E-01  8.00000000E-01
  8.50000000E-01  8.50000000E-01  8.50000000E-01  8.00000000E-01  8.50000000E-01
  8.50000000E-01  8.50000000E-01  8.00000000E-01  8.50000000E-01  8.50000000E-01
  8.50000000E-01  8.00000000E-01  8.50000000E-01  8.50000000E-01  8.50000000E-01
  8.00000000E-01  8.50000000E-01  8.50000000E-01  8.50000000E-01  8.00000000E-01
  8.50000000E-01  8.50000000E-01  8.50000000E-01  8.00000000E-01  8.50000000E-01
  8.50000000E-01  8.50000000E-01  8.00000000E-01  8.50000000E-01  8.50000000E-01
  8.50000000E-01  8.00000000E-01  8.50000000E-01  8.50000000E-01  8.50000000E-01
  8.00000000E-01  8.50000000E-01  8.50000000E-01  8.50000000E-01  8.00000000E-01
  8.50000000E-01  8.50000000E-01  8.50000000E-01  8.00000000E-01  8.50000000E-01
  8.50000000E-01  8.50000000E-01  8.00000000E-01  8.50000000E-01  8.50000000E-01
  8.50000000E-01  8.00000000E-01  8.50000000E-01  8.50000000E-01  8.50000000E-01
  8.00000000E-01  8.50000000E-01  8.50000000E-01  8.50000000E-01  8.00000000E-01
  8.50000000E-01  8.50000000E-01  8.50000000E-01  8.00000000E-01  8.50000000E-01
  8.50000000E-01  8.50000000E-01  8.00000000E-01  8.50000000E-01  8.50000000E-01
  8.50000000E-01  8.00000000E-01  8.50000000E-01  8.50000000E-01  8.50000000E-01
  8.00000000E-01  8.50000000E-01  8.50000000E-01  8.50000000E-01  8.00000000E-01
  8.50000000E-01  8.50000000E-01  8.50000000E-01  8.00000000E-01  8.50000000E-01
  8.50000000E-01  8.50000000E-01  8.00000000E-01  8.50000000E-01  8.50000000E-01
  8.50000000E-01  8.00000000E-01  8.50000000E-01  8.50000000E-01  8.50000000E-01
  8.00000000E-01  8.50000000E-01  8.50000000E-01  8.50000000E-01  8.00000000E-01
  8.50000000E-01  8.50000000E-01  8.50000000E-01  8.00000000E-01  8.50000000E-01
  8.50000000E-01  8.50000000E-01  8.00000000E-01  8.50000000E-01  8.50000000E-01
  8.50000000E-01  8.00000000E-01  8.50000000E-01  8.50000000E-01  8.50000000E-01
  8.00000000E-01  8.50000000E-01  8.50000000E-01  8.50000000E-01  8.00000000E-01
  8.50000000E-01  8.50000000E-01  8.50000000E-01  8.00000000E-01  8.50000000E-01
  8.50000000E-01  8.50000000E-01  8.00000000E-01  8.50000000E-01  8.50000000E-01
  8.50000000E-01  8.00000000E-01  8.50000000E-01  8.50000000E-01  8.50000000E-01
  8.00000000E-01  8.50000000E-01  8.50000000E-01  8.50000000E-01  8.00000000E-01
  8.50000000E-01  8.50000000E-01  8.50000000E-01  8.00000000E-01  8.50000000E-01
  8.50000000E-01  8.50000000E-01  8.00000000E-01  8.50000000E-01  8.50000000E-01
  8.50000000E-01  8.00000000E-01  8.50000000E-01  8.50000000E-01  8.50000000E-01
  8.00000000E-01  8.50000000E-01  8.50000000E-01  8.50000000E-01  8.00000000E-01
  8.50000000E-01  8.50000000E-01  8.50000000E-01  8.00000000E-01  8.50000000E-01
  8.50000000E-01  8.50000000E-01  8.00000000E-01  8.50000000E-01  8.50000000E-01
  8.50000000E-01  8.00000000E-01  8.50000000E-01  8.50000000E-01  8.50000000E-01
  8.00000000E-01  8.50000000E-01  8.50000000E-01  8.50000000E-01  8.00000000E-01
  8.50000000E-01  8.50000000E-01  8.50000000E-01  8.00000000E-01  8.50000000E-01
  8.50000000E-01  8.50000000E-01  8.00000000E-01  8.50000000E-01  8.50000000E-01
  8.50000000E-01  8.00000000E-01  8.50000000E-01  8.50000000E-01  8.50000000E-01
  8.00000000E-01  8.50000000E-01  8.50000000E-01  8.50000000E-01  8.00000000E-01
  8.50000000E-01  8.50000000E-01  8.50000000E-01  8.00000000E-01  8.50000000E-01
  8.50000000E-01  8.50000000E-01  8.00000000E-01  8.50000000E-01  8.50000000E-01
  8.50000000E-01  8.00000000E-01  8.50000000E-01  8.50000000E-01  8.50000000E-01
  8.00000000E-01  8.50000000E-01  8.50000000E-01  8.50000000E-01  8.00000000E-01
  8.50000000E-01  8.50000000E-01  8.50000000E-01  8.00000000E-01  8.50000000E-01
  8.50000000E-01  8.50000000E-01  8.00000000E-01  8.50000000E-01  8.50000000E-01
  8.50000000E-01  8.00000000E-01  8.50000000E-01  8.50000000E-01  8.50000000E-01
  8.00000000E-01  8.50000000E-01  8.50000000E-01  8.50000000E-01  8.00000000E-01
  8.50000000E-01  8.50000000E-01  8.50000000E-01  8.00000000E-01  8.50000000E-01
  8.50000000E-01  8.50000000E-01  8.00000000E-01  8.50000000E-01  8.50000000E-01
  8.50000000E-01  8.00000000E-01  8.50000000E-01  8.50000000E-01  8.50000000E-01
  8.00000000E-01  8.50000000E-01  8.50000000E-01  8.50000000E-01  8.00000000E-01
  8.50000000E-01  8.50000000E-01  8.50000000E-01  8.00000000E-01  8.50000000E-01
  8.50000000E-01  8.50000000E-01  8.00000000E-01  8.50000000E-01  8.50000000E-01
  8.50000000E-01  8.00000000E-01  8.50000000E-01  8.50000000E-01  8.50000000E-01
  8.00000000E-01  8.50000000E-01  8.50000000E-01  8.50000000E-01  8.00000000E-01
  8.50000000E-01  8.50000000E-01  8.50000000E-01  8.00000000E-01  8.50000000E-01
  8.50000000E-01  8.50000000E-01  8.00000000E-01  8.50000000E-01  8.50000000E-01
  8.50000000E-01  8.00000000E-01  8.50000000E-01  8.50000000E-01  8.50000000E-01
  8.00000000E-01  8.50000000E-01  8.50000000E-01  8.50000000E-01  8.00000000E-01
  8.50000000E-01  8.50000000E-01  8.50000000E-01  8.00000000E-01  8.50000000E-01
  8.50000000E-01  8.50000000E-01  8.00000000E-01  8.50000000E-01  8.50000000E-01
  8.50000000E-01  8.00000000E-01  8.50000000E-01  8.50000000E-01  8.50000000E-01
  8.00000000E-01  8.50000000E-01  8.50000000E-01  8.50000000E-01  8.00000000E-01
  8.50000000E-01  8.50000000E-01  8.50000000E-01  8.00000000E-01  8.50000000E-01
  8.50000000E-01  8.50000000E-01  8.00000000E-01  8.50000000E-01  8.50000000E-01
  8.50000000E-01  8.00000000E-01  8.50000000E-01  8.50000000E-01  8.50000000E-01
  8.00000000E-01  8.50000000E-01  8.50000000E-01  8.50000000E-01  8.00000000E-01
  8.50000000E-01  8.50000000E-01  8.50000000E-01  8.00000000E-01  8.50000000E-01
  8.50000000E-01  8.50000000E-01  8.00000000E-01  8.50000000E-01  8.50000000E-01
  8.50000000E-01  8.00000000E-01  8.50000000E-01  8.50000000E-01  8.50000000E-01
  8.00000000E-01  8.50000000E-01  8.50000000E-01  8.50000000E-01  8.00000000E-01
  8.50000000E-01  8.50000000E-01  8.50000000E-01  8.00000000E-01  8.50000000E-01
  8.50000000E-01  8.50000000E-01  8.00000000E-01  8.50000000E-01  8.50000000E-01
  8.50000000E-01  8.00000000E-01  8.50000000E-01  8.50000000E-01  8.50000000E-01
  8.00000000E-01  8.50000000E-01  8.50000000E-01  8.50000000E-01  8.00000000E-01
  8.50000000E-01  8.50000000E-01  8.50000000E-01  8.00000000E-01  8.50000000E-01
  8.50000000E-01  8.50000000E-01  8.00000000E-01  8.50000000E-01  8.50000000E-01
  8.50000000E-01  8.00000000E-01  8.50000000E-01  8.50000000E-01  8.50000000E-01
  8.00000000E-01  8.50000000E-01  8.50000000E-01  8.50000000E-01  8.00000000E-01
  8.50000000E-01  8.50000000E-01  8.50000000E-01  8.00000000E-01  8.50000000E-01
  8.50000000E-01  8.50000000E-01  8.00000000E-01  8.50000000E-01  8.50000000E-01
  8.50000000E-01  8.00000000E-01  8.50000000E-01  8.50000000E-01  8.50000000E-01
  8.00000000E-01  8.50000000E-01  8.50000000E-01  8.50000000E-01  8.00000000E-01
  8.50000000E-01  8.50000000E-01  8.50000000E-01  8.00000000E-01  8.50000000E-01
  8.50000000E-01  8.50000000E-01  8.00000000E-01  8.50000000E-01  8.50000000E-01
  8.50000000E-01  8.00000000E-01  8.50000000E-01  8.50000000E-01  8.50000000E-01
  8.00000000E-01  8.50000000E-01  8.50000000E-01  8.50000000E-01  8.00000000E-01
  8.50000000E-01  8.50000000E-01  8.50000000E-01  8.00000000E-01  8.50000000E-01
  8.50000000E-01  8.50000000E-01  8.00000000E-01  8.50000000E-01  8.50000000E-01
  8.50000000E-01  8.00000000E-01  8.50000000E-01  8.50000000E-01  8.50000000E-01
  8.00000000E-01  8.50000000E-01  8.50000000E-01  8.50000000E-01  8.00000000E-01
  8.50000000E-01  8.50000000E-01  8.50000000E-01  8.00000000E-01  8.50000000E-01
  8.50000000E-01  8.50000000E-01  8.00000000E-01  8.50000000E-01  8.50000000E-01
  8.50000000E-01  8.00000000E-01  8.50000000E-01  8.50000000E-01  8.50000000E-01
  8.00000000E-01  8.50000000E-01  8.50000000E-01  8.50000000E-01  8.00000000E-01
  8.50000000E-01  8.50000000E-01  8.50000000E-01  8.00000000E-01  8.50000000E-01
  8.50000000E-01  8.50000000E-01  8.00000000E-01  8.50000000E-01  8.50000000E-01
  8.50000000E-01  8.00000000E-01  8.50000000E-01  8.50000000E-01  8.50000000E-01
  8.00000000E-01  8.50000000E-01  8.50000000E-01  8.50000000E-01  8.00000000E-01
  8.50000000E-01  8.50000000E-01  8.50000000E-01  8.00000000E-01  8.50000000E-01
  8.50000000E-01  8.50000000E-01  8.00000000E-01  8.50000000E-01  8.50000000E-01
  8.50000000E-01  8.00000000E-01  8.50000000E-01  8.50000000E-01  8.50000000E-01
  8.00000000E-01  8.50000000E-01  8.50000000E-01  8.50000000E-01  8.00000000E-01
  8.50000000E-01  8.50000000E-01  8.50000000E-01  8.00000000E-01  8.50000000E-01
  8.50000000E-01  8.50000000E-01  8.00000000E-01  8.50000000E-01  8.50000000E-01
  8.50000000E-01  8.00000000E-01  8.50000000E-01  8.50000000E-01  8.50000000E-01
  8.00000000E-01  8.50000000E-01  8.50000000E-01  8.50000000E-01  8.00000000E-01
  8.50000000E-01  8.50000000E-01  8.50000000E-01  8.00000000E-01  8.50000000E-01
  8.50000000E-01  8.50000000E-01  8.00000000E-01  8.50000000E-01  8.50000000E-01
  8.50000000E-01  8.00000000E-01  8.50000000E-01  8.50000000E-01  8.50000000E-01
  8.00000000E-01  8.50000000E-01  8.50000000E-01  8.50000000E-01  8.00000000E-01
  8.50000000E-01  8.50000000E-01  8.50000000E-01  8.00000000E-01  8.50000000E-01
  8.50000000E-01  8.50000000E-01  8.00000000E-01  8.50000000E-01  8.50000000E-01
  8.50000000E-01  8.00000000E-01  8.50000000E-01  8.50000000E-01  8.50000000E-01
  8.00000000E-01  8.50000000E-01  8.50000000E-01  8.50000000E-01  8.00000000E-01
  8.50000000E-01  8.50000000E-01  8.50000000E-01  8.00000000E-01  8.50000000E-01
  8.50000000E-01  8.50000000E-01  8.00000000E-01  8.50000000E-01  8.50000000E-01
  8.50000000E-01  8.00000000E-01  8.50000000E-01  8.50000000E-01  8.50000000E-01
  8.00000000E-01  8.50000000E-01  8.50000000E-01  8.50000000E-01  8.00000000E-01
  8.50000000E-01  8.50000000E-01  8.50000000E-01  8.00000000E-01  8.50000000E-01
  8.50000000E-01  8.50000000E-01  8.00000000E-01  8.50000000E-01  8.50000000E-01
  8.50000000E-01  8.00000000E-01  8.50000000E-01  8.50000000E-01  8.50000000E-01
  8.00000000E-01  8.50000000E-01  8.50000000E-01  8.50000000E-01  8.00000000E-01
  8.50000000E-01  8.50000000E-01  8.50000000E-01  8.00000000E-01  8.50000000E-01
  8.50000000E-01  8.50000000E-01  8.00000000E-01  8.50000000E-01  8.50000000E-01
  8.50000000E-01  8.00000000E-01  8.50000000E-01  8.50000000E-01  8.50000000E-01
  8.00000000E-01  8.50000000E-01  8.50000000E-01  8.50000000E-01  8.00000000E-01
  8.50000000E-01  8.50000000E-01  8.50000000E-01  8.00000000E-01  8.50000000E-01
  8.50000000E-01  8.50000000E-01  8.00000000E-01  8.50000000E-01  8.50000000E-01
  8.50000000E-01  8.00000000E-01  8.50000000E-01  8.50000000E-01  8.50000000E-01
  8.00000000E-01  8.50000000E-01  8.50000000E-01  8.50000000E-01  8.00000000E-01
  8.50000000E-01  8.50000000E-01  8.50000000E-01  8.00000000E-01  8.50000000E-01
  8.50000000E-01  8.50000000E-01  8.00000000E-01  8.50000000E-01  8.50000000E-01
  8.50000000E-01  8.00000000E-01  8.50000000E-01  8.50000000E-01  8.50000000E-01
  8.00000000E-01  8.50000000E-01  8.50000000E-01  8.50000000E-01  8.00000000E-01
  8.50000000E-01  8.50000000E-01  8.50000000E-01  8.00000000E-01  8.50000000E-01
  8.50000000E-01  8.50000000E-01  8.00000000E-01  8.50000000E-01  8.50000000E-01
  8.50000000E-01  8.00000000E-01  8.50000000E-01  8.50000000E-01  8.50000000E-01
  8.00000000E-01  8.50000000E-01  8.50000000E-01  8.50000000E-01  8.00000000E-01
  8.50000000E-01  8.50000000E-01  8.50000000E-01  8.00000000E-01  8.50000000E-01
  8.50000000E-01  8.50000000E-01  8.00000000E-01  8.50000000E-01  8.50000000E-01
  8.50000000E-01  8.00000000E-01  8.50000000E-01  8.50000000E-01  8.50000000E-01
  8.00000000E-01  8.50000000E-01  8.50000000E-01  8.50000000E-01  8.00000000E-01
  8.50000000E-01  8.50000000E-01  8.50000000E-01  8.00000000E-01  8.50000000E-01
  8.50000000E-01  8.50000000E-01  8.00000000E-01  8.50000000E-01  8.50000000E-01
  8.50000000E-01  8.00000000E-01  8.50000000E-01  8.50000000E-01  8.50000000E-01
  8.00000000E-01  8.50000000E-01  8.50000000E-01  8.50000000E-01  8.00000000E-01
  8.50000000E-01  8.50000000E-01  8.50000000E-01  8.00000000E-01  8.50000000E-01
  8.50000000E-01  8.50000000E-01  8.00000000E-01  8.50000000E-01  8.50000000E-01
  8.50000000E-01  8.00000000E-01  8.50000000E-01  8.50000000E-01  8.50000000E-01
  8.00000000E-01  8.50000000E-01  8.50000000E-01  8.50000000E-01  8.00000000E-01
  8.50000000E-01  8.50000000E-01  8.50000000E-01  8.00000000E-01  8.50000000E-01
  8.50000000E-01  8.50000000E-01  8.00000000E-01  8.50000000E-01  8.50000000E-01
  8.50000000E-01  8.00000000E-01  8.50000000E-01  8.50000000E-01  8.50000000E-01
  8.00000000E-01  8.50000000E-01  8.50000000E-01  8.50000000E-01  8.00000000E-01
  8.50000000E-01  8.50000000E-01  8.50000000E-01  8.00000000E-01  8.50000000E-01
  8.50000000E-01  8.50000000E-01  8.00000000E-01  8.50000000E-01  8.50000000E-01
  8.50000000E-01  8.00000000E-01  8.50000000E-01  8.50000000E-01  8.50000000E-01
  8.00000000E-01  8.50000000E-01  8.50000000E-01  8.50000000E-01  8.00000000E-01
  8.50000000E-01  8.50000000E-01  8.50000000E-01  8.00000000E-01  8.50000000E-01
  8.50000000E-01  8.50000000E-01  8.00000000E-01  8.50000000E-01  8.50000000E-01
  8.50000000E-01  8.00000000E-01  8.50000000E-01  8.50000000E-01  8.50000000E-01
  8.00000000E-01  8.50000000E-01  8.50000000E-01  8.50000000E-01  8.00000000E-01
  8.50000000E-01  8.50000000E-01  8.50000000E-01  8.00000000E-01  8.50000000E-01
  8.50000000E-01  8.50000000E-01  8.00000000E-01  8.50000000E-01  8.50000000E-01
  8.50000000E-01  8.00000000E-01  8.50000000E-01  8.50000000E-01  8.50000000E-01
  8.00000000E-01  8.50000000E-01  8.50000000E-01  8.50000000E-01  8.00000000E-01
  8.50000000E-01  8.50000000E-01  8.50000000E-01  8.00000000E-01  8.50000000E-01
  8.50000000E-01  8.50000000E-01  8.00000000E-01  8.50000000E-01  8.50000000E-01
  8.50000000E-01  8.00000000E-01  8.50000000E-01  8.50000000E-01  8.50000000E-01
  8.00000000E-01  8.50000000E-01  8.50000000E-01  8.50000000E-01  8.00000000E-01
  8.50000000E-01  8.50000000E-01  8.50000000E-01  8.00000000E-01  8.50000000E-01
  8.50000000E-01  8.50000000E-01  8.00000000E-01  8.50000000E-01  8.50000000E-01
  8.50000000E-01  8.00000000E-01  8.50000000E-01  8.50000000E-01  8.50000000E-01
  8.00000000E-01  8.50000000E-01  8.50000000E-01  8.50000000E-01  8.00000000E-01
  8.50000000E-01  8.50000000E-01  8.50000000E-01  8.00000000E-01  8.50000000E-01
  8.50000000E-01  8.50000000E-01  8.00000000E-01  8.50000000E-01  8.50000000E-01
  8.50000000E-01  8.00000000E-01  8.50000000E-01  8.50000000E-01  8.50000000E-01
  8.00000000E-01  8.50000000E-01  8.50000000E-01  8.50000000E-01  8.00000000E-01
  8.50000000E-01  8.50000000E-01  8.50000000E-01  8.00000000E-01  8.50000000E-01
  8.50000000E-01  8.50000000E-01  8.00000000E-01  8.50000000E-01  8.50000000E-01
  8.50000000E-01  8.00000000E-01  8.50000000E-01  8.50000000E-01  8.50000000E-01
  8.00000000E-01  8.50000000E-01  8.50000000E-01  8.50000000E-01  8.00000000E-01
  8.50000000E-01  8.50000000E-01  8.50000000E-01  8.00000000E-01  8.50000000E-01
  8.50000000E-01  8.50000000E-01  8.00000000E-01  8.50000000E-01  8.50000000E-01
  8.50000000E-01  8.00000000E-01  8.50000000E-01  8.50000000E-01  8.50000000E-01
  8.00000000E-01  8.50000000E-01  8.50000000E-01  8.50000000E-01  8.00000000E-01
  8.50000000E-01  8.50000000E-01  8.50000000E-01  8.00000000E-01  8.50000000E-01
  8.50000000E-01  8.50000000E-01  8.00000000E-01  8.50000000E-01  8.50000000E-01
  8.50000000E-01  8.00000000E-01  8.50000000E-01  8.50000000E-01  8.50000000E-01
  8.00000000E-01  8.50000000E-01  8.50000000E-01  8.50000000E-01  8.00000000E-01
  8.50000000E-01  8.50000000E-01  8.50000000E-01  8.00000000E-01  8.50000000E-01
  8.50000000E-01  8.50000000E-01  8.00000000E-01  8.50000000E-01  8.50000000E-01
  8.50000000E-01  8.00000000E-01  8.50000000E-01  8.50000000E-01  8.50000000E-01
  8.00000000E-01  8.50000000E-01  8.50000000E-01  8.50000000E-01  8.00000000E-01
  8.50000000E-01  8.50000000E-01  8.50000000E-01  8.00000000E-01  8.50000000E-01
  8.50000000E-01  8.50000000E-01  8.00000000E-01  8.50000000E-01  8.50000000E-01
  8.50000000E-01  8.00000000E-01  8.50000000E-01  8.50000000E-01  8.50000000E-01
  8.00000000E-01  8.50000000E-01  8.50000000E-01  8.50000000E-01  8.00000000E-01
  8.50000000E-01  8.50000000E-01  8.50000000E-01  8.00000000E-01  8.50000000E-01
  8.50000000E-01  8.50000000E-01  8.00000000E-01  8.50000000E-01  8.50000000E-01
  8.50000000E-01  8.00000000E-01  8.50000000E-01  8.50000000E-01  8.50000000E-01
  8.00000000E-01  8.50000000E-01  8.50000000E-01  8.50000000E-01  8.00000000E-01
  8.50000000E-01  8.50000000E-01  8.50000000E-01  8.00000000E-01  8.50000000E-01
  8.50000000E-01  8.50000000E-01  8.00000000E-01  8.50000000E-01  8.50000000E-01
  8.50000000E-01  8.00000000E-01  8.50000000E-01  8.50000000E-01  8.50000000E-01
  8.00000000E-01  8.50000000E-01  8.50000000E-01  8.50000000E-01  8.00000000E-01
  8.50000000E-01  8.50000000E-01  8.50000000E-01  8.00000000E-01  8.50000000E-01
  8.50000000E-01  8.50000000E-01  8.00000000E-01  8.50000000E-01  8.50000000E-01
  8.50000000E-01  8.00000000E-01  8.50000000E-01  8.50000000E-01  8.50000000E-01
  8.00000000E-01  8.50000000E-01  8.50000000E-01  8.50000000E-01  8.00000000E-01
  8.50000000E-01  8.50000000E-01  8.50000000E-01  8.00000000E-01  8.50000000E-01
  8.50000000E-01  8.50000000E-01  8.00000000E-01  8.50000000E-01  8.50000000E-01
  8.50000000E-01  8.00000000E-01  8.50000000E-01  8.50000000E-01  8.50000000E-01
  8.00000000E-01  8.50000000E-01  8.50000000E-01  8.50000000E-01  8.00000000E-01
  8.50000000E-01  8.50000000E-01  8.50000000E-01  8.00000000E-01  8.50000000E-01
  8.50000000E-01  8.50000000E-01  8.00000000E-01  8.50000000E-01  8.50000000E-01
  8.50000000E-01  8.00000000E-01  8.50000000E-01  8.50000000E-01  8.50000000E-01
  8.00000000E-01  8.50000000E-01  8.50000000E-01  8.50000000E-01  8.00000000E-01
  8.50000000E-01  8.50000000E-01  8.50000000E-01  8.00000000E-01  8.50000000E-01
  8.50000000E-01  8.50000000E-01  8.00000000E-01  8.50000000E-01  8.50000000E-01
  8.50000000E-01  8.00000000E-01  8.50000000E-01  8.50000000E-01  8.50000000E-01
  8.00000000E-01  8.50000000E-01  8.50000000E-01  8.50000000E-01  8.00000000E-01
  8.50000000E-01  8.50000000E-01  8.50000000E-01  8.00000000E-01  8.50000000E-01
  8.50000000E-01  8.50000000E-01  8.00000000E-01  8.50000000E-01  8.50000000E-01
  8.50000000E-01  8.00000000E-01  8.50000000E-01  8.50000000E-01  8.50000000E-01
  8.00000000E-01  8.50000000E-01  8.50000000E-01  8.50000000E-01  8.00000000E-01
  8.50000000E-01  8.50000000E-01  8.50000000E-01  8.00000000E-01  8.50000000E-01
  8.50000000E-01  8.50000000E-01  8.00000000E-01  8.50000000E-01  8.50000000E-01
  8.50000000E-01  8.00000000E-01  8.50000000E-01  8.50000000E-01  8.50000000E-01
  8.00000000E-01  8.50000000E-01  8.50000000E-01  8.50000000E-01  8.00000000E-01
  8.50000000E-01  8.50000000E-01  8.50000000E-01  8.00000000E-01  8.50000000E-01
  8.50000000E-01  8.50000000E-01  8.00000000E-01  8.50000000E-01  8.50000000E-01
  8.50000000E-01  8.00000000E-01  8.50000000E-01  8.50000000E-01  8.50000000E-01
  8.00000000E-01  8.50000000E-01  8.50000000E-01  8.50000000E-01  8.00000000E-01
  8.50000000E-01  8.50000000E-01  8.50000000E-01  8.00000000E-01  8.50000000E-01
  8.50000000E-01  8.50000000E-01  8.00000000E-01  8.50000000E-01  8.50000000E-01
  8.50000000E-01  8.00000000E-01  8.50000000E-01  8.50000000E-01  8.50000000E-01
  8.00000000E-01  8.50000000E-01  8.50000000E-01  8.50000000E-01  8.00000000E-01
  8.50000000E-01  8.50000000E-01  8.50000000E-01  8.00000000E-01  8.50000000E-01
  8.50000000E-01  8.50000000E-01  8.00000000E-01  8.50000000E-01  8.50000000E-01
  8.50000000E-01  8.00000000E-01  8.50000000E-01  8.50000000E-01  8.50000000E-01
  8.00000000E-01  8.50000000E-01  8.50000000E-01  8.50000000E-01  8.00000000E-01
  8.50000000E-01  8.50000000E-01  8.50000000E-01  8.00000000E-01  8.50000000E-01
  8.50000000E-01  8.50000000E-01  8.00000000E-01  8.50000000E-01  8.50000000E-01
  8.50000000E-01  8.00000000E-01  8.50000000E-01  8.50000000E-01  8.50000000E-01
  8.00000000E-01  8.50000000E-01  8.50000000E-01  8.50000000E-01  8.00000000E-01
  8.50000000E-01  8.50000000E-01  8.50000000E-01  8.00000000E-01  8.50000000E-01
  8.50000000E-01  8.50000000E-01  8.00000000E-01  8.50000000E-01  8.50000000E-01
  8.50000000E-01  8.00000000E-01  8.50000000E-01  8.50000000E-01  8.50000000E-01
  8.00000000E-01  8.50000000E-01  8.50000000E-01  8.50000000E-01  8.00000000E-01
  8.50000000E-01  8.50000000E-01  8.50000000E-01  8.00000000E-01  8.50000000E-01
  8.50000000E-01  8.50000000E-01  8.00000000E-01  8.50000000E-01  8.50000000E-01
  8.50000000E-01  8.00000000E-01  8.50000000E-01  8.50000000E-01  8.50000000E-01
  8.00000000E-01  8.50000000E-01  8.50000000E-01  8.50000000E-01  8.00000000E-01
  8.50000000E-01  8.50000000E-01  8.50000000E-01  8.00000000E-01  8.50000000E-01
  8.50000000E-01  8.50000000E-01  8.00000000E-01  8.50000000E-01  8.50000000E-01
  8.50000000E-01  8.00000000E-01  8.50000000E-01  8.50000000E-01  8.50000000E-01
  8.00000000E-01  8.50000000E-01  8.50000000E-01  8.50000000E-01  8.00000000E-01
  8.50000000E-01  8.50000000E-01  8.50000000E-01  8.00000000E-01  8.50000000E-01
  8.50000000E-01  8.50000000E-01  8.00000000E-01  8.50000000E-01  8.50000000E-01
  8.50000000E-01  8.00000000E-01  8.50000000E-01  8.50000000E-01  8.50000000E-01
  8.00000000E-01  8.50000000E-01  8.50000000E-01  8.50000000E-01  8.00000000E-01
  8.50000000E-01  8.50000000E-01  8.50000000E-01  8.00000000E-01  8.50000000E-01
  8.50000000E-01  8.50000000E-01  8.00000000E-01  8.50000000E-01  8.50000000E-01
  8.50000000E-01  8.00000000E-01  8.50000000E-01  8.50000000E-01  8.50000000E-01
  8.00000000E-01  8.50000000E-01  8.50000000E-01  8.50000000E-01  8.00000000E-01
  8.50000000E-01  8.50000000E-01  8.50000000E-01  8.00000000E-01  8.50000000E-01
  8.50000000E-01  8.50000000E-01  8.00000000E-01  8.50000000E-01  8.50000000E-01
  8.50000000E-01  8.00000000E-01  8.50000000E-01  8.50000000E-01  8.50000000E-01
  8.00000000E-01  8.50000000E-01  8.50000000E-01  8.50000000E-01  8.00000000E-01
  8.50000000E-01  8.50000000E-01  8.50000000E-01  8.00000000E-01  8.50000000E-01
  8.50000000E-01  8.50000000E-01  8.00000000E-01  8.50000000E-01  8.50000000E-01
  8.50000000E-01  8.00000000E-01  8.50000000E-01  8.50000000E-01  8.50000000E-01
  8.00000000E-01  8.50000000E-01  8.50000000E-01  8.50000000E-01  8.00000000E-01
  8.50000000E-01  8.50000000E-01  8.50000000E-01  8.00000000E-01  8.50000000E-01
  8.50000000E-01  8.50000000E-01  8.00000000E-01  8.50000000E-01  8.50000000E-01
  8.50000000E-01  8.00000000E-01  8.50000000E-01  8.50000000E-01  8.50000000E-01
  8.00000000E-01  8.50000000E-01  8.50000000E-01  8.50000000E-01  8.00000000E-01
  8.50000000E-01  8.50000000E-01  8.50000000E-01  8.00000000E-01  8.50000000E-01
  8.50000000E-01  8.50000000E-01  8.00000000E-01  8.50000000E-01  8.50000000E-01
  8.50000000E-01  8.00000000E-01  8.50000000E-01  8.50000000E-01  8.50000000E-01
  8.00000000E-01  8.50000000E-01  8.50000000E-01  8.50000000E-01  8.00000000E-01
  8.50000000E-01  8.50000000E-01  8.50000000E-01  8.00000000E-01  8.50000000E-01
  8.50000000E-01  8.50000000E-01  8.00000000E-01  8.50000000E-01  8.50000000E-01
  8.50000000E-01  8.00000000E-01  8.50000000E-01  8.50000000E-01  8.50000000E-01
  8.00000000E-01  8.50000000E-01  8.50000000E-01  8.50000000E-01  8.00000000E-01
  8.50000000E-01  8.50000000E-01  8.50000000E-01  8.00000000E-01  8.50000000E-01
  8.50000000E-01  8.50000000E-01  8.00000000E-01  8.50000000E-01  8.50000000E-01
  8.50000000E-01  8.00000000E-01  8.50000000E-01  8.50000000E-01  8.50000000E-01
  8.00000000E-01  8.50000000E-01  8.50000000E-01  8.50000000E-01  8.00000000E-01
  8.50000000E-01  8.50000000E-01  8.50000000E-01  8.00000000E-01  8.50000000E-01
  8.50000000E-01  8.50000000E-01  8.00000000E-01  8.50000000E-01  8.50000000E-01
  8.50000000E-01  8.00000000E-01  8.50000000E-01  8.50000000E-01  8.50000000E-01
  8.00000000E-01  8.50000000E-01  8.50000000E-01  8.50000000E-01  8.00000000E-01
  8.50000000E-01  8.50000000E-01  8.50000000E-01  8.00000000E-01  8.50000000E-01
  8.50000000E-01  8.50000000E-01  8.00000000E-01  8.50000000E-01  8.50000000E-01
  8.50000000E-01  8.00000000E-01  8.50000000E-01  8.50000000E-01  8.50000000E-01
  8.00000000E-01  8.50000000E-01  8.50000000E-01  8.50000000E-01  8.00000000E-01
  8.50000000E-01  8.50000000E-01  8.50000000E-01  8.00000000E-01  8.50000000E-01
  8.50000000E-01  8.50000000E-01  8.00000000E-01  8.50000000E-01  8.50000000E-01
  8.50000000E-01  8.00000000E-01  8.50000000E-01  8.50000000E-01  8.50000000E-01
  8.00000000E-01  8.50000000E-01  8.50000000E-01  8.50000000E-01  8.00000000E-01
  8.50000000E-01  8.50000000E-01  8.50000000E-01  8.00000000E-01  8.50000000E-01
  8.50000000E-01  8.50000000E-01  8.00000000E-01  8.50000000E-01  8.50000000E-01
  8.50000000E-01  8.00000000E-01  8.50000000E-01  8.50000000E-01  8.50000000E-01
  8.00000000E-01  8.50000000E-01  8.50000000E-01  8.50000000E-01  8.00000000E-01
  8.50000000E-01  8.50000000E-01  8.50000000E-01  8.00000000E-01  8.50000000E-01
  8.50000000E-01  8.50000000E-01  8.00000000E-01  8.50000000E-01  8.50000000E-01
  8.50000000E-01  8.00000000E-01  8.50000000E-01  8.50000000E-01  8.50000000E-01
  8.00000000E-01  8.50000000E-01  8.50000000E-01  8.50000000E-01  8.00000000E-01
  8.50000000E-01  8.50000000E-01  8.50000000E-01  8.00000000E-01  8.50000000E-01
  8.50000000E-01  8.50000000E-01  8.00000000E-01  8.50000000E-01  8.50000000E-01
  8.50000000E-01  8.00000000E-01  8.50000000E-01  8.50000000E-01  8.50000000E-01
  8.00000000E-01  8.50000000E-01  8.50000000E-01  8.50000000E-01  8.00000000E-01
  8.50000000E-01  8.50000000E-01  8.50000000E-01  8.00000000E-01  8.50000000E-01
  8.50000000E-01  8.50000000E-01  8.00000000E-01  8.50000000E-01  8.50000000E-01
  8.50000000E-01  8.00000000E-01  8.50000000E-01  8.50000000E-01  8.50000000E-01
  8.00000000E-01  8.50000000E-01  8.50000000E-01  8.50000000E-01  8.00000000E-01
  8.50000000E-01  8.50000000E-01  8.50000000E-01  8.00000000E-01  8.50000000E-01
  8.50000000E-01  8.50000000E-01  8.00000000E-01  8.50000000E-01  8.50000000E-01
  8.50000000E-01  8.00000000E-01  8.50000000E-01  8.50000000E-01  8.50000000E-01
  8.00000000E-01  8.50000000E-01  8.50000000E-01  8.50000000E-01  8.00000000E-01
  8.50000000E-01  8.50000000E-01  8.50000000E-01  8.00000000E-01  8.50000000E-01
  8.50000000E-01  8.50000000E-01  8.00000000E-01  8.50000000E-01  8.50000000E-01
  8.50000000E-01  8.00000000E-01  8.50000000E-01  8.50000000E-01  8.50000000E-01
  8.00000000E-01  8.50000000E-01  8.50000000E-01  8.50000000E-01  8.00000000E-01
  8.50000000E-01  8.50000000E-01  8.50000000E-01  8.00000000E-01  8.50000000E-01
  8.50000000E-01  8.50000000E-01  8.00000000E-01  8.50000000E-01  8.50000000E-01
  8.50000000E-01  8.00000000E-01  8.50000000E-01  8.50000000E-01  8.50000000E-01
  8.00000000E-01  8.50000000E-01  8.50000000E-01  8.50000000E-01  8.00000000E-01
  8.50000000E-01  8.50000000E-01  8.50000000E-01  8.00000000E-01  8.50000000E-01
  8.50000000E-01  8.50000000E-01  8.00000000E-01  8.50000000E-01  8.50000000E-01
  8.50000000E-01  8.00000000E-01  8.50000000E-01  8.50000000E-01  8.50000000E-01
  8.00000000E-01  8.50000000E-01  8.50000000E-01  8.50000000E-01  8.00000000E-01
  8.50000000E-01  8.50000000E-01  8.50000000E-01  8.00000000E-01  8.50000000E-01
  8.50000000E-01  8.50000000E-01  8.00000000E-01  8.50000000E-01  8.50000000E-01
  8.50000000E-01  8.00000000E-01  8.50000000E-01  8.50000000E-01  8.50000000E-01
  8.00000000E-01  8.50000000E-01  8.50000000E-01  8.50000000E-01  8.00000000E-01
  8.50000000E-01  8.50000000E-01  8.50000000E-01  8.00000000E-01  8.50000000E-01
  8.50000000E-01  8.50000000E-01  8.00000000E-01  8.50000000E-01  8.50000000E-01
  8.50000000E-01  8.00000000E-01  8.50000000E-01  8.50000000E-01  8.50000000E-01
  8.00000000E-01  8.50000000E-01  8.50000000E-01  8.50000000E-01  8.00000000E-01
  8.50000000E-01  8.50000000E-01  8.50000000E-01  8.00000000E-01  8.50000000E-01
  8.50000000E-01  8.50000000E-01  8.00000000E-01  8.50000000E-01  8.50000000E-01
  8.50000000E-01  8.00000000E-01  8.50000000E-01  8.50000000E-01  8.50000000E-01
  8.00000000E-01  8.50000000E-01  8.50000000E-01  8.50000000E-01  8.00000000E-01
  8.50000000E-01  8.50000000E-01  8.50000000E-01  8.00000000E-01  8.50000000E-01
  8.50000000E-01  8.50000000E-01  8.00000000E-01  8.50000000E-01  8.50000000E-01
  8.50000000E-01  8.00000000E-01  8.50000000E-01  8.50000000E-01  8.50000000E-01
  8.00000000E-01  8.50000000E-01  8.50000000E-01  8.50000000E-01  8.00000000E-01
  8.50000000E-01  8.50000000E-01  8.50000000E-01  8.00000000E-01  8.50000000E-01
  8.50000000E-01  8.50000000E-01  8.00000000E-01  8.50000000E-01  8.50000000E-01
  8.50000000E-01  8.00000000E-01  8.50000000E-01  8.50000000E-01  8.50000000E-01
  8.00000000E-01  8.50000000E-01  8.50000000E-01  8.50000000E-01  8.00000000E-01
  8.50000000E-01  8.50000000E-01  8.50000000E-01  8.00000000E-01  8.50000000E-01
  8.50000000E-01  8.50000000E-01  8.00000000E-01  8.50000000E-01  8.50000000E-01
  8.50000000E-01  8.00000000E-01  8.50000000E-01  8.50000000E-01  8.50000000E-01
  8.00000000E-01  8.50000000E-01  8.50000000E-01  8.50000000E-01  8.00000000E-01
  8.50000000E-01  8.50000000E-01  8.50000000E-01  8.00000000E-01  8.50000000E-01
  8.50000000E-01  8.50000000E-01  8.00000000E-01  8.50000000E-01  8.50000000E-01
  8.50000000E-01  8.00000000E-01  8.50000000E-01  8.50000000E-01  8.50000000E-01
  8.00000000E-01  8.50000000E-01  8.50000000E-01  8.50000000E-01  8.00000000E-01
  8.50000000E-01  8.50000000E-01  8.50000000E-01  8.00000000E-01  8.50000000E-01
  8.50000000E-01  8.50000000E-01  8.00000000E-01  8.50000000E-01  8.50000000E-01
  8.50000000E-01  8.00000000E-01  8.50000000E-01  8.50000000E-01  8.50000000E-01
  8.00000000E-01  8.50000000E-01  8.50000000E-01  8.50000000E-01  8.00000000E-01
  8.50000000E-01  8.50000000E-01  8.50000000E-01  8.00000000E-01  8.50000000E-01
  8.50000000E-01  8.50000000E-01  8.00000000E-01  8.50000000E-01  8.50000000E-01
  8.50000000E-01  8.00000000E-01  8.50000000E-01  8.50000000E-01  8.50000000E-01
  8.00000000E-01  8.50000000E-01  8.50000000E-01  8.50000000E-01  8.00000000E-01
  8.50000000E-01  8.50000000E-01  8.50000000E-01  8.00000000E-01  8.50000000E-01
  8.50000000E-01  8.50000000E-01  8.00000000E-01  8.50000000E-01  8.50000000E-01
  8.50000000E-01  8.00000000E-01  8.50000000E-01  8.50000000E-01  8.50000000E-01
  8.00000000E-01  8.50000000E-01  8.50000000E-01  8.50000000E-01  8.00000000E-01
  8.50000000E-01  8.50000000E-01  8.50000000E-01  8.00000000E-01  8.50000000E-01
  8.50000000E-01  8.50000000E-01  8.00000000E-01  8.50000000E-01  8.50000000E-01
  8.50000000E-01  8.00000000E-01  8.50000000E-01  8.50000000E-01  8.50000000E-01
  8.00000000E-01  8.50000000E-01  8.50000000E-01  8.50000000E-01  8.00000000E-01
  8.50000000E-01  8.50000000E-01  8.50000000E-01  8.00000000E-01  8.50000000E-01
  8.50000000E-01  8.50000000E-01  8.00000000E-01  8.50000000E-01  8.50000000E-01
  8.50000000E-01  8.00000000E-01  8.50000000E-01  8.50000000E-01  8.50000000E-01
  8.00000000E-01  8.50000000E-01  8.50000000E-01  8.50000000E-01  8.00000000E-01
  8.50000000E-01  8.50000000E-01  8.50000000E-01  8.00000000E-01  8.50000000E-01
  8.50000000E-01  8.50000000E-01  8.00000000E-01  8.50000000E-01  8.50000000E-01
  8.50000000E-01  8.00000000E-01  8.50000000E-01  8.50000000E-01  8.50000000E-01
  8.00000000E-01  8.50000000E-01  8.50000000E-01  8.50000000E-01  8.00000000E-01
  8.50000000E-01  8.50000000E-01  8.50000000E-01  8.00000000E-01  8.50000000E-01
  8.50000000E-01  8.50000000E-01  8.00000000E-01  8.50000000E-01  8.50000000E-01
  8.50000000E-01  8.00000000E-01  8.50000000E-01  8.50000000E-01  8.50000000E-01
  8.00000000E-01  8.50000000E-01  8.50000000E-01  8.50000000E-01  8.00000000E-01
  8.50000000E-01  8.50000000E-01  8.50000000E-01  8.00000000E-01  8.50000000E-01
  8.50000000E-01  8.50000000E-01  8.00000000E-01  8.50000000E-01  8.50000000E-01
  8.50000000E-01  8.00000000E-01  8.50000000E-01  8.50000000E-01  8.50000000E-01
  8.00000000E-01  8.50000000E-01  8.50000000E-01  8.50000000E-01  8.00000000E-01
  8.50000000E-01  8.50000000E-01  8.50000000E-01  8.00000000E-01  8.50000000E-01
  8.50000000E-01  8.50000000E-01  8.00000000E-01  8.50000000E-01  8.50000000E-01
  8.50000000E-01  8.00000000E-01  8.50000000E-01  8.50000000E-01  8.50000000E-01
  8.00000000E-01  8.50000000E-01  8.50000000E-01  8.50000000E-01  8.00000000E-01
  8.50000000E-01  8.50000000E-01  8.50000000E-01  8.00000000E-01  8.50000000E-01
  8.50000000E-01  8.50000000E-01  8.00000000E-01  8.50000000E-01  8.50000000E-01
  8.50000000E-01  8.00000000E-01  8.50000000E-01  8.50000000E-01  8.50000000E-01
  8.00000000E-01  8.50000000E-01  8.50000000E-01  8.50000000E-01  8.00000000E-01
  8.50000000E-01  8.50000000E-01  8.50000000E-01  8.00000000E-01  8.50000000E-01
  8.50000000E-01  8.50000000E-01  8.00000000E-01  8.50000000E-01  8.50000000E-01
  8.50000000E-01  8.00000000E-01  8.50000000E-01  8.50000000E-01  8.50000000E-01
  8.00000000E-01  8.50000000E-01  8.50000000E-01  8.50000000E-01  8.00000000E-01
  8.50000000E-01  8.50000000E-01  8.50000000E-01  8.00000000E-01  8.50000000E-01
  8.50000000E-01  8.50000000E-01  8.00000000E-01  8.50000000E-01  8.50000000E-01
  8.50000000E-01  8.00000000E-01  8.50000000E-01  8.50000000E-01  8.50000000E-01
  8.00000000E-01  8.50000000E-01  8.50000000E-01  8.50000000E-01  8.00000000E-01
  8.50000000E-01  8.50000000E-01  8.50000000E-01  8.00000000E-01  8.50000000E-01
  8.50000000E-01  8.50000000E-01  8.00000000E-01  8.50000000E-01  8.50000000E-01
  8.50000000E-01  8.00000000E-01  8.50000000E-01  8.50000000E-01  8.50000000E-01
  8.00000000E-01  8.50000000E-01  8.50000000E-01  8.50000000E-01  8.00000000E-01
  8.50000000E-01  8.50000000E-01  8.50000000E-01  8.00000000E-01  8.50000000E-01
  8.50000000E-01  8.50000000E-01  8.00000000E-01  8.50000000E-01  8.50000000E-01
  8.50000000E-01  8.00000000E-01  8.50000000E-01  8.50000000E-01  8.50000000E-01
  8.00000000E-01  8.50000000E-01  8.50000000E-01  8.50000000E-01  8.00000000E-01
  8.50000000E-01  8.50000000E-01  8.50000000E-01  8.00000000E-01  8.50000000E-01
  8.50000000E-01  8.50000000E-01  8.00000000E-01  8.50000000E-01  8.50000000E-01
  8.50000000E-01  8.00000000E-01  8.50000000E-01  8.50000000E-01  8.50000000E-01
  8.00000000E-01  8.50000000E-01  8.50000000E-01  8.50000000E-01  8.00000000E-01
  8.50000000E-01  8.50000000E-01  8.50000000E-01  8.00000000E-01  8.50000000E-01
  8.50000000E-01  8.50000000E-01  8.00000000E-01  8.50000000E-01  8.50000000E-01
  8.50000000E-01  8.00000000E-01  8.50000000E-01  8.50000000E-01  8.50000000E-01
  8.00000000E-01  8.50000000E-01  8.50000000E-01  8.50000000E-01  8.00000000E-01
  8.50000000E-01  8.50000000E-01  8.50000000E-01  8.00000000E-01  8.50000000E-01
  8.50000000E-01  8.50000000E-01  8.00000000E-01  8.50000000E-01  8.50000000E-01
  8.50000000E-01  8.00000000E-01  8.50000000E-01  8.50000000E-01  8.50000000E-01
  8.00000000E-01  8.50000000E-01  8.50000000E-01  8.50000000E-01  8.00000000E-01
  8.50000000E-01  8.50000000E-01  8.50000000E-01  8.00000000E-01  8.50000000E-01
  8.50000000E-01  8.50000000E-01  8.00000000E-01  8.50000000E-01  8.50000000E-01
  8.50000000E-01  8.00000000E-01  8.50000000E-01  8.50000000E-01  8.50000000E-01
  8.00000000E-01  8.50000000E-01  8.50000000E-01  8.50000000E-01  8.00000000E-01
  8.50000000E-01  8.50000000E-01  8.50000000E-01  8.00000000E-01  8.50000000E-01
  8.50000000E-01  8.50000000E-01  8.00000000E-01  8.50000000E-01  8.50000000E-01
  8.50000000E-01  8.00000000E-01  8.50000000E-01  8.50000000E-01  8.50000000E-01
  8.00000000E-01  8.50000000E-01  8.50000000E-01  8.50000000E-01  8.00000000E-01
  8.50000000E-01  8.50000000E-01  8.50000000E-01  8.00000000E-01  8.50000000E-01
  8.50000000E-01  8.50000000E-01  8.00000000E-01  8.50000000E-01  8.50000000E-01
  8.50000000E-01  8.00000000E-01  8.50000000E-01  8.50000000E-01  8.50000000E-01
  8.00000000E-01  8.50000000E-01  8.50000000E-01  8.50000000E-01  8.00000000E-01
  8.50000000E-01  8.50000000E-01  8.50000000E-01  8.00000000E-01  8.50000000E-01
  8.50000000E-01  8.50000000E-01  8.00000000E-01  8.50000000E-01  8.50000000E-01
  8.50000000E-01  8.00000000E-01  8.50000000E-01  8.50000000E-01  8.50000000E-01
  8.00000000E-01  8.50000000E-01  8.50000000E-01  8.50000000E-01  8.00000000E-01
  8.50000000E-01  8.50000000E-01  8.50000000E-01  8.00000000E-01  8.50000000E-01
  8.50000000E-01  8.50000000E-01  8.00000000E-01  8.50000000E-01  8.50000000E-01
  8.50000000E-01  8.00000000E-01  8.50000000E-01  8.50000000E-01  8.50000000E-01
  8.00000000E-01  8.50000000E-01  8.50000000E-01  8.50000000E-01  8.00000000E-01
  8.50000000E-01  8.50000000E-01  8.50000000E-01  8.00000000E-01  8.50000000E-01
  8.50000000E-01  8.50000000E-01  8.00000000E-01  8.50000000E-01  8.50000000E-01
  8.50000000E-01  8.00000000E-01  8.50000000E-01  8.50000000E-01  8.50000000E-01
  8.00000000E-01  8.50000000E-01  8.50000000E-01  8.50000000E-01  8.00000000E-01
  8.50000000E-01  8.50000000E-01  8.50000000E-01  8.00000000E-01  8.50000000E-01
  8.50000000E-01  8.50000000E-01  8.00000000E-01  8.50000000E-01  8.50000000E-01
  8.50000000E-01  8.00000000E-01  8.50000000E-01  8.50000000E-01  8.50000000E-01
  8.00000000E-01  8.50000000E-01  8.50000000E-01  8.50000000E-01  8.00000000E-01
  8.50000000E-01  8.50000000E-01  8.50000000E-01  8.00000000E-01  8.50000000E-01
  8.50000000E-01  8.50000000E-01  8.00000000E-01  8.50000000E-01  8.50000000E-01
  8.50000000E-01  8.00000000E-01  8.50000000E-01  8.50000000E-01  8.50000000E-01
  8.00000000E-01  8.50000000E-01  8.50000000E-01  8.50000000E-01  8.00000000E-01
  8.50000000E-01  8.50000000E-01  8.50000000E-01  8.00000000E-01  8.50000000E-01
  8.50000000E-01  8.50000000E-01  8.00000000E-01  8.50000000E-01  8.50000000E-01
  8.50000000E-01  8.00000000E-01  8.50000000E-01  8.50000000E-01  8.50000000E-01
  8.00000000E-01  8.50000000E-01  8.50000000E-01  8.50000000E-01  8.00000000E-01
  8.50000000E-01  8.50000000E-01  8.50000000E-01  8.00000000E-01  8.50000000E-01
  8.50000000E-01  8.50000000E-01  8.00000000E-01  8.50000000E-01  8.50000000E-01
  8.50000000E-01  8.00000000E-01  8.50000000E-01  8.50000000E-01  8.50000000E-01
  8.00000000E-01  8.50000000E-01  8.50000000E-01  8.50000000E-01  8.00000000E-01
  8.50000000E-01  8.50000000E-01  8.50000000E-01  8.00000000E-01  8.50000000E-01
  8.50000000E-01  8.50000000E-01  8.00000000E-01  8.50000000E-01  8.50000000E-01
  8.50000000E-01  8.00000000E-01  8.50000000E-01  8.50000000E-01  8.50000000E-01
  8.00000000E-01  8.50000000E-01  8.50000000E-01  8.50000000E-01  8.00000000E-01
  8.50000000E-01  8.50000000E-01  8.50000000E-01  8.00000000E-01  8.50000000E-01
  8.50000000E-01  8.50000000E-01  8.00000000E-01  8.50000000E-01  8.50000000E-01
  8.50000000E-01  8.00000000E-01  8.50000000E-01  8.50000000E-01  8.50000000E-01
  8.00000000E-01  8.50000000E-01  8.50000000E-01  8.50000000E-01  8.00000000E-01
  8.50000000E-01  8.50000000E-01  8.50000000E-01  8.00000000E-01  8.50000000E-01
  8.50000000E-01  8.50000000E-01  8.00000000E-01  8.50000000E-01  8.50000000E-01
  8.50000000E-01  8.00000000E-01  8.50000000E-01  8.50000000E-01  8.50000000E-01
  8.00000000E-01  8.50000000E-01  8.50000000E-01  8.50000000E-01  8.00000000E-01
  8.50000000E-01  8.50000000E-01  8.50000000E-01  8.00000000E-01  8.50000000E-01
  8.50000000E-01  8.50000000E-01  8.00000000E-01  8.50000000E-01  8.50000000E-01
  8.50000000E-01  8.00000000E-01  8.50000000E-01  8.50000000E-01  8.50000000E-01
  8.00000000E-01  8.50000000E-01  8.50000000E-01  8.50000000E-01  8.00000000E-01
  8.50000000E-01  8.50000000E-01  8.50000000E-01  8.00000000E-01  8.50000000E-01
  8.50000000E-01  8.50000000E-01  8.00000000E-01  8.50000000E-01  8.50000000E-01
  8.50000000E-01  8.00000000E-01  8.50000000E-01  8.50000000E-01  8.50000000E-01
  8.00000000E-01  8.50000000E-01  8.50000000E-01  8.50000000E-01  8.00000000E-01
  8.50000000E-01  8.50000000E-01  8.50000000E-01  8.00000000E-01  8.50000000E-01
  8.50000000E-01  8.50000000E-01  8.00000000E-01  8.50000000E-01  8.50000000E-01
  8.50000000E-01  8.00000000E-01  8.50000000E-01  8.50000000E-01  8.50000000E-01
  8.00000000E-01  8.50000000E-01  8.50000000E-01  8.50000000E-01  8.00000000E-01
  8.50000000E-01  8.50000000E-01  8.50000000E-01  8.00000000E-01  8.50000000E-01
  8.50000000E-01  8.50000000E-01  8.00000000E-01  8.50000000E-01  8.50000000E-01
  8.50000000E-01  8.00000000E-01  8.50000000E-01  8.50000000E-01  8.50000000E-01
  8.00000000E-01  8.50000000E-01  8.50000000E-01  8.50000000E-01  8.00000000E-01
  8.50000000E-01  8.50000000E-01  8.50000000E-01  8.00000000E-01  8.50000000E-01
  8.50000000E-01  8.50000000E-01  8.00000000E-01  8.50000000E-01  8.50000000E-01
  8.50000000E-01  8.00000000E-01  8.50000000E-01  8.50000000E-01  8.50000000E-01
  8.00000000E-01  8.50000000E-01  8.50000000E-01  8.50000000E-01  8.00000000E-01
  8.50000000E-01  8.50000000E-01  8.50000000E-01  8.00000000E-01  8.50000000E-01
  8.50000000E-01  8.50000000E-01  8.00000000E-01  8.50000000E-01  8.50000000E-01
  8.50000000E-01  8.00000000E-01  8.50000000E-01  8.50000000E-01  8.50000000E-01
  8.00000000E-01  8.50000000E-01  8.50000000E-01  8.50000000E-01  8.00000000E-01
  8.50000000E-01  8.50000000E-01  8.50000000E-01  8.00000000E-01  8.50000000E-01
  8.50000000E-01  8.50000000E-01  8.00000000E-01  8.50000000E-01  8.50000000E-01
  8.50000000E-01  8.00000000E-01  8.50000000E-01  8.50000000E-01  8.50000000E-01
  8.00000000E-01  8.50000000E-01  8.50000000E-01  8.50000000E-01  8.00000000E-01
  8.50000000E-01  8.50000000E-01  8.50000000E-01  8.00000000E-01  8.50000000E-01
  8.50000000E-01  8.50000000E-01  8.00000000E-01  8.50000000E-01  8.50000000E-01
  8.50000000E-01  8.00000000E-01  8.50000000E-01  8.50000000E-01  8.50000000E-01
  8.00000000E-01  8.50000000E-01  8.50000000E-01  8.50000000E-01  8.00000000E-01
  8.50000000E-01  8.50000000E-01  8.50000000E-01  8.00000000E-01  8.50000000E-01
  8.50000000E-01  8.50000000E-01  8.00000000E-01  8.50000000E-01  8.50000000E-01
  8.50000000E-01  8.00000000E-01  8.50000000E-01  8.50000000E-01  8.50000000E-01
  8.00000000E-01  8.50000000E-01  8.50000000E-01  8.50000000E-01  8.00000000E-01
  8.50000000E-01  8.50000000E-01  8.50000000E-01  8.00000000E-01  8.50000000E-01
  8.50000000E-01  8.50000000E-01  8.00000000E-01  8.50000000E-01  8.50000000E-01
  8.50000000E-01  8.00000000E-01  8.50000000E-01  8.50000000E-01  8.50000000E-01
  8.00000000E-01  8.50000000E-01  8.50000000E-01  8.50000000E-01  8.00000000E-01
  8.50000000E-01  8.50000000E-01  8.50000000E-01  8.00000000E-01  8.50000000E-01
  8.50000000E-01  8.50000000E-01  8.00000000E-01  8.50000000E-01  8.50000000E-01
  8.50000000E-01  8.00000000E-01  8.50000000E-01  8.50000000E-01  8.50000000E-01
  8.00000000E-01  8.50000000E-01  8.50000000E-01  8.50000000E-01  8.00000000E-01
  8.50000000E-01  8.50000000E-01  8.50000000E-01  8.00000000E-01  8.50000000E-01
  8.50000000E-01  8.50000000E-01  8.00000000E-01  8.50000000E-01  8.50000000E-01
  8.50000000E-01  8.00000000E-01  8.50000000E-01  8.50000000E-01  8.50000000E-01
  8.00000000E-01  8.50000000E-01  8.50000000E-01  8.50000000E-01  8.00000000E-01
  8.50000000E-01  8.50000000E-01  8.50000000E-01  8.00000000E-01  8.50000000E-01
  8.50000000E-01  8.50000000E-01  8.00000000E-01  8.50000000E-01  8.50000000E-01
  8.50000000E-01  8.00000000E-01  8.50000000E-01  8.50000000E-01  8.50000000E-01
  8.00000000E-01  8.50000000E-01  8.50000000E-01  8.50000000E-01  8.00000000E-01
  8.50000000E-01  8.50000000E-01  8.50000000E-01  8.00000000E-01  8.50000000E-01
  8.50000000E-01  8.50000000E-01  8.00000000E-01  8.50000000E-01  8.50000000E-01
  8.50000000E-01  8.00000000E-01  8.50000000E-01  8.50000000E-01  8.50000000E-01
  8.00000000E-01  8.50000000E-01  8.50000000E-01  8.50000000E-01  8.00000000E-01
  8.50000000E-01  8.50000000E-01  8.50000000E-01  8.00000000E-01  8.50000000E-01
  8.50000000E-01  8.50000000E-01  8.00000000E-01  8.50000000E-01  8.50000000E-01
  8.50000000E-01  8.00000000E-01  8.50000000E-01  8.50000000E-01  8.50000000E-01
  8.00000000E-01  8.50000000E-01  8.50000000E-01  8.50000000E-01  8.00000000E-01
  8.50000000E-01  8.50000000E-01  8.50000000E-01  8.00000000E-01  8.50000000E-01
  8.50000000E-01  8.50000000E-01  8.00000000E-01  8.50000000E-01  8.50000000E-01
  8.50000000E-01  8.00000000E-01  8.50000000E-01  8.50000000E-01  8.50000000E-01
  8.00000000E-01  8.50000000E-01  8.50000000E-01  8.50000000E-01  8.00000000E-01
  8.50000000E-01  8.50000000E-01  8.50000000E-01  8.00000000E-01  8.50000000E-01
  8.50000000E-01  8.50000000E-01  8.00000000E-01  8.50000000E-01  8.50000000E-01
  8.50000000E-01  8.00000000E-01  8.50000000E-01  8.50000000E-01  8.50000000E-01
  8.00000000E-01  8.50000000E-01  8.50000000E-01  8.50000000E-01  8.00000000E-01
  8.50000000E-01  8.50000000E-01  8.50000000E-01  8.00000000E-01  8.50000000E-01
  8.50000000E-01  8.50000000E-01  8.00000000E-01  8.50000000E-01  8.50000000E-01
  8.50000000E-01  8.00000000E-01  8.50000000E-01  8.50000000E-01  8.50000000E-01
  8.00000000E-01  8.50000000E-01  8.50000000E-01  8.50000000E-01  8.00000000E-01
  8.50000000E-01  8.50000000E-01  8.50000000E-01  8.00000000E-01  8.50000000E-01
  8.50000000E-01  8.50000000E-01  8.00000000E-01  8.50000000E-01  8.50000000E-01
  8.50000000E-01  8.00000000E-01  8.50000000E-01  8.50000000E-01  8.50000000E-01
  8.00000000E-01  8.50000000E-01  8.50000000E-01  8.50000000E-01  8.00000000E-01
  8.50000000E-01  8.50000000E-01  8.50000000E-01  8.00000000E-01  8.50000000E-01
  8.50000000E-01  8.50000000E-01  8.00000000E-01  8.50000000E-01  8.50000000E-01
  8.50000000E-01  8.00000000E-01  8.50000000E-01  8.50000000E-01  8.50000000E-01
  8.00000000E-01  8.50000000E-01  8.50000000E-01  8.50000000E-01  8.00000000E-01
  8.50000000E-01  8.50000000E-01  8.50000000E-01  8.00000000E-01  8.50000000E-01
  8.50000000E-01  8.50000000E-01  8.00000000E-01  8.50000000E-01  8.50000000E-01
  8.50000000E-01  8.00000000E-01  8.50000000E-01  8.50000000E-01  8.50000000E-01
  8.00000000E-01  8.50000000E-01  8.50000000E-01  8.50000000E-01  8.00000000E-01
  8.50000000E-01  8.50000000E-01  8.50000000E-01  8.00000000E-01  8.50000000E-01
  8.50000000E-01  8.50000000E-01  8.00000000E-01  8.50000000E-01  8.50000000E-01
  8.50000000E-01  8.00000000E-01  8.50000000E-01  8.50000000E-01  8.50000000E-01
  8.00000000E-01  8.50000000E-01  8.50000000E-01  8.50000000E-01  8.00000000E-01
  8.50000000E-01  8.50000000E-01  8.50000000E-01  8.00000000E-01  8.50000000E-01
  8.50000000E-01  8.50000000E-01  8.00000000E-01  8.50000000E-01  8.50000000E-01
  8.50000000E-01  8.00000000E-01  8.50000000E-01  8.50000000E-01  8.50000000E-01
  8.00000000E-01  8.50000000E-01  8.50000000E-01  8.50000000E-01  8.00000000E-01
  8.50000000E-01  8.50000000E-01  8.50000000E-01  8.00000000E-01  8.50000000E-01
  8.50000000E-01  8.50000000E-01  8.00000000E-01  8.50000000E-01  8.50000000E-01
  8.50000000E-01  8.00000000E-01  8.50000000E-01  8.50000000E-01  8.50000000E-01
  8.00000000E-01  8.50000000E-01  8.50000000E-01  8.50000000E-01  8.00000000E-01
  8.50000000E-01  8.50000000E-01  8.50000000E-01  8.00000000E-01  8.50000000E-01
  8.50000000E-01  8.50000000E-01  8.00000000E-01  8.50000000E-01  8.50000000E-01
  8.50000000E-01  8.00000000E-01  8.50000000E-01  8.50000000E-01  8.50000000E-01
  8.00000000E-01  8.50000000E-01  8.50000000E-01  8.50000000E-01  8.00000000E-01
  8.50000000E-01  8.50000000E-01  8.50000000E-01  8.00000000E-01  8.50000000E-01
  8.50000000E-01  8.50000000E-01  8.00000000E-01  8.50000000E-01  8.50000000E-01
  8.50000000E-01  8.00000000E-01  8.50000000E-01  8.50000000E-01  8.50000000E-01
  8.00000000E-01  8.50000000E-01  8.50000000E-01  8.50000000E-01  8.00000000E-01
  8.50000000E-01  8.50000000E-01  8.50000000E-01  8.00000000E-01  8.50000000E-01
  8.50000000E-01  8.50000000E-01  8.00000000E-01  8.50000000E-01  8.50000000E-01
  8.50000000E-01  8.00000000E-01  8.50000000E-01  8.50000000E-01  8.50000000E-01
  8.00000000E-01  8.50000000E-01  8.50000000E-01  8.50000000E-01  8.00000000E-01
  8.50000000E-01  8.50000000E-01  8.50000000E-01  8.00000000E-01  8.50000000E-01
  8.50000000E-01  8.50000000E-01  8.00000000E-01  8.50000000E-01  8.50000000E-01
  8.50000000E-01  8.00000000E-01  8.50000000E-01  8.50000000E-01  8.50000000E-01
  8.00000000E-01  8.50000000E-01  8.50000000E-01  8.50000000E-01  8.00000000E-01
  8.50000000E-01  8.50000000E-01  8.50000000E-01  8.00000000E-01  8.50000000E-01
  8.50000000E-01  8.50000000E-01  8.00000000E-01  8.50000000E-01  8.50000000E-01
  8.50000000E-01  8.00000000E-01  8.50000000E-01  8.50000000E-01  8.50000000E-01
  8.00000000E-01  8.50000000E-01  8.50000000E-01  8.50000000E-01  8.00000000E-01
  8.50000000E-01  8.50000000E-01  8.50000000E-01  8.00000000E-01  8.50000000E-01
  8.50000000E-01  8.50000000E-01  8.00000000E-01  8.50000000E-01  8.50000000E-01
  8.50000000E-01  8.00000000E-01  8.50000000E-01  8.50000000E-01  8.50000000E-01
  8.00000000E-01  8.50000000E-01  8.50000000E-01  8.50000000E-01  8.00000000E-01
  8.50000000E-01  8.50000000E-01  8.50000000E-01  8.00000000E-01  8.50000000E-01
  8.50000000E-01  8.50000000E-01  8.00000000E-01  8.50000000E-01  8.50000000E-01
  8.50000000E-01  8.00000000E-01  8.50000000E-01  8.50000000E-01  8.50000000E-01
  8.00000000E-01  8.50000000E-01  8.50000000E-01  8.50000000E-01  8.00000000E-01
  8.50000000E-01  8.50000000E-01  8.50000000E-01  8.00000000E-01  8.50000000E-01
  8.50000000E-01  8.50000000E-01  8.00000000E-01  8.50000000E-01  8.50000000E-01
  8.50000000E-01  8.00000000E-01  8.50000000E-01  8.50000000E-01  8.50000000E-01
  8.00000000E-01  8.50000000E-01  8.50000000E-01  8.50000000E-01  8.00000000E-01
  8.50000000E-01  8.50000000E-01  8.50000000E-01  8.00000000E-01  8.50000000E-01
  8.50000000E-01  8.50000000E-01  8.00000000E-01  8.50000000E-01  8.50000000E-01
  8.50000000E-01  8.00000000E-01  8.50000000E-01  8.50000000E-01  8.50000000E-01
  8.00000000E-01  8.50000000E-01  8.50000000E-01  8.50000000E-01  8.00000000E-01
  8.50000000E-01  8.50000000E-01  8.50000000E-01  8.00000000E-01  8.50000000E-01
  8.50000000E-01  8.50000000E-01  8.00000000E-01  8.50000000E-01  8.50000000E-01
  8.50000000E-01  8.00000000E-01  8.50000000E-01  8.50000000E-01  8.50000000E-01
  8.00000000E-01  8.50000000E-01  8.50000000E-01  8.50000000E-01  8.00000000E-01
  8.50000000E-01  8.50000000E-01  8.50000000E-01  8.00000000E-01  8.50000000E-01
  8.50000000E-01  8.50000000E-01  8.00000000E-01  8.50000000E-01  8.50000000E-01
  8.50000000E-01  8.00000000E-01  8.50000000E-01  8.50000000E-01  8.50000000E-01
  8.00000000E-01  8.50000000E-01  8.50000000E-01  8.50000000E-01  8.00000000E-01
  8.50000000E-01  8.50000000E-01  8.50000000E-01  8.00000000E-01  8.50000000E-01
  8.50000000E-01  8.50000000E-01  8.00000000E-01  8.50000000E-01  8.50000000E-01
  8.50000000E-01  8.00000000E-01  8.50000000E-01  8.50000000E-01  8.50000000E-01
  8.00000000E-01  8.50000000E-01  8.50000000E-01  8.50000000E-01  8.00000000E-01
  8.50000000E-01  8.50000000E-01  8.50000000E-01  8.00000000E-01  8.50000000E-01
  8.50000000E-01  8.50000000E-01  8.00000000E-01  8.50000000E-01  8.50000000E-01
  8.50000000E-01  8.00000000E-01  8.50000000E-01  8.50000000E-01  8.50000000E-01
  8.00000000E-01  8.50000000E-01  8.50000000E-01  8.50000000E-01  8.00000000E-01
  8.50000000E-01  8.50000000E-01  8.50000000E-01  8.00000000E-01  8.50000000E-01
  8.50000000E-01  8.50000000E-01  8.00000000E-01  8.50000000E-01  8.50000000E-01
  8.50000000E-01  8.00000000E-01  8.50000000E-01  8.50000000E-01  8.50000000E-01
  8.00000000E-01  8.50000000E-01  8.50000000E-01  8.50000000E-01  8.00000000E-01
  8.50000000E-01  8.50000000E-01  8.50000000E-01  8.00000000E-01  8.50000000E-01
  8.50000000E-01  8.50000000E-01  8.00000000E-01  8.50000000E-01  8.50000000E-01
  8.50000000E-01  8.00000000E-01  8.50000000E-01  8.50000000E-01  8.50000000E-01
  8.00000000E-01  8.50000000E-01  8.50000000E-01  8.50000000E-01  8.00000000E-01
  8.50000000E-01  8.50000000E-01  8.50000000E-01  8.00000000E-01  8.50000000E-01
  8.50000000E-01  8.50000000E-01  8.00000000E-01  8.50000000E-01  8.50000000E-01
  8.50000000E-01  8.00000000E-01  8.50000000E-01  8.50000000E-01  8.50000000E-01
  8.00000000E-01  8.50000000E-01  8.50000000E-01  8.50000000E-01  8.00000000E-01
  8.50000000E-01  8.50000000E-01  8.50000000E-01  8.00000000E-01  8.50000000E-01
  8.50000000E-01  8.50000000E-01  8.00000000E-01  8.50000000E-01  8.50000000E-01
  8.50000000E-01  8.00000000E-01  8.50000000E-01  8.50000000E-01  8.50000000E-01
  8.00000000E-01  8.50000000E-01  8.50000000E-01  8.50000000E-01  8.00000000E-01
  8.50000000E-01  8.50000000E-01  8.50000000E-01  8.00000000E-01  8.50000000E-01
  8.50000000E-01  8.50000000E-01  8.00000000E-01  8.50000000E-01  8.50000000E-01
  8.50000000E-01  8.00000000E-01  8.50000000E-01  8.50000000E-01  8.50000000E-01
  8.00000000E-01  8.50000000E-01  8.50000000E-01  8.50000000E-01  8.00000000E-01
  8.50000000E-01  8.50000000E-01  8.50000000E-01  8.00000000E-01  8.50000000E-01
  8.50000000E-01  8.50000000E-01  8.00000000E-01  8.50000000E-01  8.50000000E-01
  8.50000000E-01  8.00000000E-01  8.50000000E-01  8.50000000E-01  8.50000000E-01
  8.00000000E-01  8.50000000E-01  8.50000000E-01  8.50000000E-01  8.00000000E-01
  8.50000000E-01  8.50000000E-01  8.50000000E-01  8.00000000E-01  8.50000000E-01
  8.50000000E-01  8.50000000E-01  8.00000000E-01  8.50000000E-01  8.50000000E-01
  8.50000000E-01  8.00000000E-01  8.50000000E-01  8.50000000E-01  8.50000000E-01
  8.00000000E-01  8.50000000E-01  8.50000000E-01  8.50000000E-01  8.00000000E-01
  8.50000000E-01  8.50000000E-01  8.50000000E-01  8.00000000E-01  8.50000000E-01
  8.50000000E-01  8.50000000E-01  8.00000000E-01  8.50000000E-01  8.50000000E-01
  8.50000000E-01  8.00000000E-01  8.50000000E-01  8.50000000E-01  8.50000000E-01
  8.00000000E-01  8.50000000E-01  8.50000000E-01  8.50000000E-01  8.00000000E-01
  8.50000000E-01  8.50000000E-01  8.50000000E-01  8.00000000E-01  8.50000000E-01
  8.50000000E-01  8.50000000E-01  8.00000000E-01  8.50000000E-01  8.50000000E-01
  8.50000000E-01  8.00000000E-01  8.50000000E-01  8.50000000E-01  8.50000000E-01
  8.00000000E-01  8.50000000E-01  8.50000000E-01  8.50000000E-01  8.00000000E-01
  8.50000000E-01  8.50000000E-01  8.50000000E-01  8.00000000E-01  8.50000000E-01
  8.50000000E-01  8.50000000E-01  8.00000000E-01  8.50000000E-01  8.50000000E-01
  8.50000000E-01  8.00000000E-01  8.50000000E-01  8.50000000E-01  8.50000000E-01
  8.00000000E-01  8.50000000E-01  8.50000000E-01  8.50000000E-01  8.00000000E-01
  8.50000000E-01  8.50000000E-01  8.50000000E-01  8.00000000E-01  8.50000000E-01
  8.50000000E-01  8.50000000E-01  8.00000000E-01  8.50000000E-01  8.50000000E-01
  8.50000000E-01  8.00000000E-01  8.50000000E-01  8.50000000E-01  8.50000000E-01
  8.00000000E-01  8.50000000E-01  8.50000000E-01  8.50000000E-01  8.00000000E-01
  8.50000000E-01  8.50000000E-01  8.50000000E-01  8.00000000E-01  8.50000000E-01
  8.50000000E-01  8.50000000E-01  8.00000000E-01  8.50000000E-01  8.50000000E-01
  8.50000000E-01  8.00000000E-01  8.50000000E-01  8.50000000E-01  8.50000000E-01
  8.00000000E-01  8.50000000E-01  8.50000000E-01  8.50000000E-01  8.00000000E-01
  8.50000000E-01  8.50000000E-01  8.50000000E-01  8.00000000E-01  8.50000000E-01
  8.50000000E-01  8.50000000E-01  8.00000000E-01  8.50000000E-01  8.50000000E-01
  8.50000000E-01  8.00000000E-01  8.50000000E-01  8.50000000E-01  8.50000000E-01
  8.00000000E-01  8.50000000E-01  8.50000000E-01  8.50000000E-01  8.00000000E-01
  8.50000000E-01  8.50000000E-01  8.50000000E-01  8.00000000E-01  8.50000000E-01
  8.50000000E-01  8.50000000E-01  8.00000000E-01  8.50000000E-01  8.50000000E-01
  8.50000000E-01  8.00000000E-01  8.50000000E-01  8.50000000E-01  8.50000000E-01
  8.00000000E-01  8.50000000E-01  8.50000000E-01  8.50000000E-01  8.00000000E-01
  8.50000000E-01  8.50000000E-01  8.50000000E-01  8.00000000E-01  8.50000000E-01
  8.50000000E-01  8.50000000E-01  8.00000000E-01  8.50000000E-01  8.50000000E-01
  8.50000000E-01  8.00000000E-01  8.50000000E-01  8.50000000E-01  8.50000000E-01
  8.00000000E-01  8.50000000E-01  8.50000000E-01  8.50000000E-01  8.00000000E-01
  8.50000000E-01  8.50000000E-01  8.50000000E-01  8.00000000E-01  8.50000000E-01
  8.50000000E-01  8.50000000E-01  8.00000000E-01  8.50000000E-01  8.50000000E-01
  8.50000000E-01  8.00000000E-01  8.50000000E-01  8.50000000E-01  8.50000000E-01
  8.00000000E-01  8.50000000E-01  8.50000000E-01  8.50000000E-01  8.00000000E-01
  8.50000000E-01  8.50000000E-01  8.50000000E-01  8.00000000E-01  8.50000000E-01
  8.50000000E-01  8.50000000E-01  8.00000000E-01  8.50000000E-01  8.50000000E-01
  8.50000000E-01  8.00000000E-01  8.50000000E-01  8.50000000E-01  8.50000000E-01
  8.00000000E-01  8.50000000E-01  8.50000000E-01  8.50000000E-01  8.00000000E-01
  8.50000000E-01  8.50000000E-01  8.50000000E-01  8.00000000E-01  8.50000000E-01
  8.50000000E-01  8.50000000E-01  8.00000000E-01  8.50000000E-01  8.50000000E-01
  8.50000000E-01  8.00000000E-01  8.50000000E-01  8.50000000E-01  8.50000000E-01
  8.00000000E-01  8.50000000E-01  8.50000000E-01  8.50000000E-01  8.00000000E-01
  8.50000000E-01  8.50000000E-01  8.50000000E-01  8.00000000E-01  8.50000000E-01
  8.50000000E-01  8.50000000E-01  8.00000000E-01  8.50000000E-01  8.50000000E-01
  8.50000000E-01  8.00000000E-01  8.50000000E-01  8.50000000E-01  8.50000000E-01
  8.00000000E-01  8.50000000E-01  8.50000000E-01  8.50000000E-01  8.00000000E-01
  8.50000000E-01  8.50000000E-01  8.50000000E-01  8.00000000E-01  8.50000000E-01
  8.50000000E-01  8.50000000E-01  8.00000000E-01  8.50000000E-01  8.50000000E-01
  8.50000000E-01  8.00000000E-01  8.50000000E-01  8.50000000E-01  8.50000000E-01
  8.00000000E-01  8.50000000E-01  8.50000000E-01  8.50000000E-01  8.00000000E-01
  8.50000000E-01  8.50000000E-01  8.50000000E-01  8.00000000E-01  8.50000000E-01
  8.50000000E-01  8.50000000E-01  8.00000000E-01  8.50000000E-01  8.50000000E-01
  8.50000000E-01  8.00000000E-01  8.50000000E-01  8.50000000E-01  8.50000000E-01
  8.00000000E-01  8.50000000E-01  8.50000000E-01  8.50000000E-01  8.00000000E-01
  8.50000000E-01  8.50000000E-01  8.50000000E-01  8.00000000E-01  8.50000000E-01
  8.50000000E-01  8.50000000E-01  8.00000000E-01  8.50000000E-01  8.50000000E-01
  8.50000000E-01  8.00000000E-01  8.50000000E-01  8.50000000E-01  8.50000000E-01
  8.00000000E-01  8.50000000E-01  8.50000000E-01  8.50000000E-01  8.00000000E-01
  8.50000000E-01  8.50000000E-01  8.50000000E-01  8.00000000E-01  8.50000000E-01
  8.50000000E-01  8.50000000E-01  8.00000000E-01  8.50000000E-01  8.50000000E-01
  8.50000000E-01  8.00000000E-01  8.50000000E-01  8.50000000E-01  8.50000000E-01
  8.00000000E-01  8.50000000E-01  8.50000000E-01  8.50000000E-01  8.00000000E-01
  8.50000000E-01  8.50000000E-01  8.50000000E-01  8.00000000E-01  8.50000000E-01
  8.50000000E-01  8.50000000E-01  8.00000000E-01  8.50000000E-01  8.50000000E-01
  8.50000000E-01  8.00000000E-01  8.50000000E-01  8.50000000E-01  8.50000000E-01
  8.00000000E-01  8.50000000E-01  8.50000000E-01  8.50000000E-01  8.00000000E-01
  8.50000000E-01  8.50000000E-01  8.50000000E-01  8.00000000E-01  8.50000000E-01
  8.50000000E-01  8.50000000E-01  8.00000000E-01  8.50000000E-01  8.50000000E-01
  8.50000000E-01  8.00000000E-01  8.50000000E-01  8.50000000E-01  8.50000000E-01
  8.00000000E-01  8.50000000E-01  8.50000000E-01  8.50000000E-01  8.00000000E-01
  8.50000000E-01  8.50000000E-01  8.50000000E-01  8.00000000E-01  8.50000000E-01
  8.50000000E-01  8.50000000E-01  8.00000000E-01  8.50000000E-01  8.50000000E-01
  8.50000000E-01  8.00000000E-01  8.50000000E-01  8.50000000E-01  8.50000000E-01
  8.00000000E-01  8.50000000E-01  8.50000000E-01  8.50000000E-01  8.00000000E-01
  8.50000000E-01  8.50000000E-01  8.50000000E-01  8.00000000E-01  8.50000000E-01
  8.50000000E-01  8.50000000E-01  8.00000000E-01  8.50000000E-01  8.50000000E-01
  8.50000000E-01  8.00000000E-01  8.50000000E-01  8.50000000E-01  8.50000000E-01
  8.00000000E-01  8.50000000E-01  8.50000000E-01  8.50000000E-01  8.00000000E-01
  8.50000000E-01  8.50000000E-01  8.50000000E-01  8.00000000E-01  8.50000000E-01
  8.50000000E-01  8.50000000E-01  8.00000000E-01  8.50000000E-01  8.50000000E-01
  8.50000000E-01  8.00000000E-01  8.50000000E-01  8.50000000E-01  8.50000000E-01
  8.00000000E-01  8.50000000E-01  8.50000000E-01  8.50000000E-01  8.00000000E-01
  8.50000000E-01  8.50000000E-01  8.50000000E-01  8.00000000E-01  8.50000000E-01
  8.50000000E-01  8.50000000E-01  8.00000000E-01  8.50000000E-01  8.50000000E-01
  8.50000000E-01  8.00000000E-01  8.50000000E-01  8.50000000E-01  8.50000000E-01
  8.00000000E-01  8.50000000E-01  8.50000000E-01  8.50000000E-01  8.00000000E-01
  8.50000000E-01  8.50000000E-01  8.50000000E-01  8.00000000E-01  8.50000000E-01
  8.50000000E-01  8.50000000E-01  8.00000000E-01  8.50000000E-01  8.50000000E-01
  8.50000000E-01  8.00000000E-01  8.50000000E-01  8.50000000E-01  8.50000000E-01
  8.00000000E-01  8.50000000E-01  8.50000000E-01  8.50000000E-01  8.00000000E-01
  8.50000000E-01  8.50000000E-01  8.50000000E-01  8.00000000E-01  8.50000000E-01
  8.50000000E-01  8.50000000E-01  8.00000000E-01  8.50000000E-01  8.50000000E-01
  8.50000000E-01  8.00000000E-01  8.50000000E-01  8.50000000E-01  8.50000000E-01
  8.00000000E-01  8.50000000E-01  8.50000000E-01  8.50000000E-01  8.00000000E-01
  8.50000000E-01  8.50000000E-01  8.50000000E-01  8.00000000E-01  8.50000000E-01
  8.50000000E-01  8.50000000E-01  8.00000000E-01  8.50000000E-01  8.50000000E-01
  8.50000000E-01  8.00000000E-01  8.50000000E-01  8.50000000E-01  8.50000000E-01
  8.00000000E-01  8.50000000E-01  8.50000000E-01  8.50000000E-01  8.00000000E-01
  8.50000000E-01  8.50000000E-01  8.50000000E-01  8.00000000E-01  8.50000000E-01
  8.50000000E-01  8.50000000E-01  8.00000000E-01  8.50000000E-01  8.50000000E-01
  8.50000000E-01  8.00000000E-01  8.50000000E-01  8.50000000E-01  8.50000000E-01
  8.00000000E-01  8.50000000E-01  8.50000000E-01  8.50000000E-01  8.00000000E-01
  8.50000000E-01  8.50000000E-01  8.50000000E-01  8.00000000E-01  8.50000000E-01
  8.50000000E-01  8.50000000E-01  8.00000000E-01  8.50000000E-01  8.50000000E-01
  8.50000000E-01  8.00000000E-01  8.50000000E-01  8.50000000E-01  8.50000000E-01
  8.00000000E-01  8.50000000E-01  8.50000000E-01  8.50000000E-01  8.00000000E-01
  8.50000000E-01  8.50000000E-01  8.50000000E-01  8.00000000E-01  8.50000000E-01
  8.50000000E-01  8.50000000E-01  8.00000000E-01  8.50000000E-01  8.50000000E-01
  8.50000000E-01  8.00000000E-01  8.50000000E-01  8.50000000E-01  8.50000000E-01
  8.00000000E-01  8.50000000E-01  8.50000000E-01  8.50000000E-01  8.00000000E-01
  8.50000000E-01  8.50000000E-01  8.50000000E-01  8.00000000E-01  8.50000000E-01
  8.50000000E-01  8.50000000E-01  8.00000000E-01  8.50000000E-01  8.50000000E-01
  8.50000000E-01  8.00000000E-01  8.50000000E-01  8.50000000E-01  8.50000000E-01
  8.00000000E-01  8.50000000E-01  8.50000000E-01  8.50000000E-01  8.00000000E-01
  8.50000000E-01  8.50000000E-01  8.50000000E-01  8.00000000E-01  8.50000000E-01
  8.50000000E-01  8.50000000E-01  8.00000000E-01  8.50000000E-01  8.50000000E-01
  8.50000000E-01  8.00000000E-01  8.50000000E-01  8.50000000E-01  8.50000000E-01
  8.00000000E-01  8.50000000E-01  8.50000000E-01  8.50000000E-01  8.00000000E-01
  8.50000000E-01  8.50000000E-01  8.50000000E-01  8.00000000E-01  8.50000000E-01
  8.50000000E-01  8.50000000E-01  8.00000000E-01  8.50000000E-01  8.50000000E-01
  8.50000000E-01  8.00000000E-01  8.50000000E-01  8.50000000E-01  8.50000000E-01
  8.00000000E-01  8.50000000E-01  8.50000000E-01  8.50000000E-01  8.00000000E-01
  8.50000000E-01  8.50000000E-01  8.50000000E-01  8.00000000E-01  8.50000000E-01
  8.50000000E-01  8.50000000E-01  8.00000000E-01  8.50000000E-01  8.50000000E-01
  8.50000000E-01  8.00000000E-01  8.50000000E-01  8.50000000E-01  8.50000000E-01
  8.00000000E-01  8.50000000E-01  8.50000000E-01  8.50000000E-01  8.00000000E-01
  8.50000000E-01  8.50000000E-01  8.50000000E-01  8.00000000E-01  8.50000000E-01
  8.50000000E-01  8.50000000E-01  8.00000000E-01  8.50000000E-01  8.50000000E-01
  8.50000000E-01  8.00000000E-01  8.50000000E-01  8.50000000E-01  8.50000000E-01
  8.00000000E-01  8.50000000E-01  8.50000000E-01  8.50000000E-01  8.00000000E-01
  8.50000000E-01  8.50000000E-01  8.50000000E-01  8.00000000E-01  8.50000000E-01
  8.50000000E-01  8.50000000E-01  8.00000000E-01  8.50000000E-01  8.50000000E-01
  8.50000000E-01  8.00000000E-01  8.50000000E-01  8.50000000E-01  8.50000000E-01
  8.00000000E-01  8.50000000E-01  8.50000000E-01  8.50000000E-01  8.00000000E-01
  8.50000000E-01  8.50000000E-01  8.50000000E-01  8.00000000E-01  8.50000000E-01
  8.50000000E-01  8.50000000E-01  8.00000000E-01  8.50000000E-01  8.50000000E-01
  8.50000000E-01  8.00000000E-01  8.50000000E-01  8.50000000E-01  8.50000000E-01
  8.00000000E-01  8.50000000E-01  8.50000000E-01  8.50000000E-01  8.00000000E-01
  8.50000000E-01  8.50000000E-01  8.50000000E-01  8.00000000E-01  8.50000000E-01
  8.50000000E-01  8.50000000E-01  8.00000000E-01  8.50000000E-01  8.50000000E-01
  8.50000000E-01  8.00000000E-01  8.50000000E-01  8.50000000E-01  8.50000000E-01
  8.00000000E-01  8.50000000E-01  8.50000000E-01  8.50000000E-01  8.00000000E-01
  8.50000000E-01  8.50000000E-01  8.50000000E-01  8.00000000E-01  8.50000000E-01
  8.50000000E-01  8.50000000E-01  8.00000000E-01  8.50000000E-01  8.50000000E-01
  8.50000000E-01  8.00000000E-01  8.50000000E-01  8.50000000E-01  8.50000000E-01
  8.00000000E-01  8.50000000E-01  8.50000000E-01  8.50000000E-01  8.00000000E-01
  8.50000000E-01  8.50000000E-01  8.50000000E-01  8.00000000E-01  8.50000000E-01
  8.50000000E-01  8.50000000E-01  8.00000000E-01  8.50000000E-01  8.50000000E-01
  8.50000000E-01  8.00000000E-01  8.50000000E-01  8.50000000E-01  8.50000000E-01
  8.00000000E-01  8.50000000E-01  8.50000000E-01  8.50000000E-01  8.00000000E-01
  8.50000000E-01  8.50000000E-01  8.50000000E-01  8.00000000E-01  8.50000000E-01
  8.50000000E-01  8.50000000E-01  8.00000000E-01  8.50000000E-01  8.50000000E-01
  8.50000000E-01  8.00000000E-01  8.50000000E-01  8.50000000E-01  8.50000000E-01
  8.00000000E-01  8.50000000E-01  8.50000000E-01  8.50000000E-01  8.00000000E-01
  8.50000000E-01  8.50000000E-01  8.50000000E-01  8.00000000E-01  8.50000000E-01
  8.50000000E-01  8.50000000E-01  8.00000000E-01  8.50000000E-01  8.50000000E-01
  8.50000000E-01  8.00000000E-01  8.50000000E-01  8.50000000E-01  8.50000000E-01
  8.00000000E-01  8.50000000E-01  8.50000000E-01  8.50000000E-01  8.00000000E-01
  8.50000000E-01  8.50000000E-01  8.50000000E-01  8.00000000E-01  8.50000000E-01
  8.50000000E-01  8.50000000E-01  8.00000000E-01  8.50000000E-01  8.50000000E-01
  8.50000000E-01  8.00000000E-01  8.50000000E-01  8.50000000E-01  8.50000000E-01
  8.00000000E-01  8.50000000E-01  8.50000000E-01  8.50000000E-01  8.00000000E-01
  8.50000000E-01  8.50000000E-01  8.50000000E-01  8.00000000E-01  8.50000000E-01
  8.50000000E-01  8.50000000E-01  8.00000000E-01  8.50000000E-01  8.50000000E-01
  8.50000000E-01  8.00000000E-01  8.50000000E-01  8.50000000E-01  8.50000000E-01
  8.00000000E-01  8.50000000E-01  8.50000000E-01  8.50000000E-01  8.00000000E-01
  8.50000000E-01  8.50000000E-01  8.50000000E-01  8.00000000E-01  8.50000000E-01
  8.50000000E-01  8.50000000E-01  8.00000000E-01  8.50000000E-01  8.50000000E-01
  8.50000000E-01  8.00000000E-01  8.50000000E-01  8.50000000E-01  8.50000000E-01
  8.00000000E-01  8.50000000E-01  8.50000000E-01  8.50000000E-01  8.00000000E-01
  8.50000000E-01  8.50000000E-01  8.50000000E-01  8.00000000E-01  8.50000000E-01
  8.50000000E-01  8.50000000E-01  8.00000000E-01  8.50000000E-01  8.50000000E-01
  8.50000000E-01  8.00000000E-01  8.50000000E-01  8.50000000E-01  8.50000000E-01
  8.00000000E-01  8.50000000E-01  8.50000000E-01  8.50000000E-01  8.00000000E-01
  8.50000000E-01  8.50000000E-01  8.50000000E-01  8.00000000E-01  8.50000000E-01
  8.50000000E-01  8.50000000E-01  8.00000000E-01  8.50000000E-01  8.50000000E-01
  8.50000000E-01  8.00000000E-01  8.50000000E-01  8.50000000E-01  8.50000000E-01
  8.00000000E-01  8.50000000E-01  8.50000000E-01  8.50000000E-01  8.00000000E-01
  8.50000000E-01  8.50000000E-01  8.50000000E-01  8.00000000E-01  8.50000000E-01
  8.50000000E-01  8.50000000E-01  8.00000000E-01  8.50000000E-01  8.50000000E-01
  8.50000000E-01  8.00000000E-01  8.50000000E-01  8.50000000E-01  8.50000000E-01
  8.00000000E-01  8.50000000E-01  8.50000000E-01  8.50000000E-01  8.00000000E-01
  8.50000000E-01  8.50000000E-01  8.50000000E-01  8.00000000E-01  8.50000000E-01
  8.50000000E-01  8.50000000E-01  8.00000000E-01  8.50000000E-01  8.50000000E-01
  8.50000000E-01  8.00000000E-01  8.50000000E-01  8.50000000E-01  8.50000000E-01
  8.00000000E-01  8.50000000E-01  8.50000000E-01  8.50000000E-01  8.00000000E-01
  8.50000000E-01  8.50000000E-01  8.50000000E-01  8.00000000E-01  8.50000000E-01
  8.50000000E-01  8.50000000E-01  8.00000000E-01  8.50000000E-01  8.50000000E-01
  8.50000000E-01  8.00000000E-01  8.50000000E-01  8.50000000E-01  8.50000000E-01
  8.00000000E-01  8.50000000E-01  8.50000000E-01  8.50000000E-01  8.00000000E-01
  8.50000000E-01  8.50000000E-01  8.50000000E-01  8.00000000E-01  8.50000000E-01
  8.50000000E-01  8.50000000E-01  8.00000000E-01  8.50000000E-01  8.50000000E-01
  8.50000000E-01  8.00000000E-01  8.50000000E-01  8.50000000E-01  8.50000000E-01
  8.00000000E-01  8.50000000E-01  8.50000000E-01  8.50000000E-01  8.00000000E-01
  8.50000000E-01  8.50000000E-01  8.50000000E-01  8.00000000E-01  8.50000000E-01
  8.50000000E-01  8.50000000E-01  8.00000000E-01  8.50000000E-01  8.50000000E-01
  8.50000000E-01  8.00000000E-01  8.50000000E-01  8.50000000E-01  8.50000000E-01
  8.00000000E-01  8.50000000E-01  8.50000000E-01  8.50000000E-01  8.00000000E-01
  8.50000000E-01  8.50000000E-01  8.50000000E-01  8.00000000E-01  8.50000000E-01
  8.50000000E-01  8.50000000E-01  8.00000000E-01  8.50000000E-01  8.50000000E-01
  8.50000000E-01  8.00000000E-01  8.50000000E-01  8.50000000E-01  8.50000000E-01
  8.00000000E-01  8.50000000E-01  8.50000000E-01  8.50000000E-01  8.00000000E-01
  8.50000000E-01  8.50000000E-01  8.50000000E-01  8.00000000E-01  8.50000000E-01
  8.50000000E-01  8.50000000E-01  8.00000000E-01  8.50000000E-01  8.50000000E-01
  8.50000000E-01  8.00000000E-01  8.50000000E-01  8.50000000E-01  8.50000000E-01
  8.00000000E-01  8.50000000E-01  8.50000000E-01  8.50000000E-01  8.00000000E-01
  8.50000000E-01  8.50000000E-01  8.50000000E-01  8.00000000E-01  8.50000000E-01
  8.50000000E-01  8.50000000E-01  8.00000000E-01  8.50000000E-01  8.50000000E-01
  8.50000000E-01  8.00000000E-01  8.50000000E-01  8.50000000E-01  8.50000000E-01
  8.00000000E-01  8.50000000E-01  8.50000000E-01  8.50000000E-01  8.00000000E-01
  8.50000000E-01  8.50000000E-01  8.50000000E-01  8.00000000E-01  8.50000000E-01
  8.50000000E-01  8.50000000E-01  8.00000000E-01  8.50000000E-01  8.50000000E-01
  8.50000000E-01  8.00000000E-01  8.50000000E-01  8.50000000E-01  8.50000000E-01
  8.00000000E-01  8.50000000E-01  8.50000000E-01  8.50000000E-01  8.00000000E-01
  8.50000000E-01  8.50000000E-01  8.50000000E-01  8.00000000E-01  8.50000000E-01
  8.50000000E-01  8.50000000E-01  8.00000000E-01  8.50000000E-01  8.50000000E-01
  8.50000000E-01  8.00000000E-01  8.50000000E-01  8.50000000E-01  8.50000000E-01
  8.00000000E-01  8.50000000E-01  8.50000000E-01  8.50000000E-01  8.00000000E-01
  8.50000000E-01  8.50000000E-01  8.50000000E-01  8.00000000E-01  8.50000000E-01
  8.50000000E-01  8.50000000E-01  8.00000000E-01  8.50000000E-01  8.50000000E-01
  8.50000000E-01  8.00000000E-01  8.50000000E-01  8.50000000E-01  8.50000000E-01
  8.00000000E-01  8.50000000E-01  8.50000000E-01  8.50000000E-01  8.00000000E-01
  8.50000000E-01  8.50000000E-01  8.50000000E-01  8.00000000E-01  8.50000000E-01
  8.50000000E-01  8.50000000E-01  8.00000000E-01  8.50000000E-01  8.50000000E-01
  8.50000000E-01  8.00000000E-01  8.50000000E-01  8.50000000E-01  8.50000000E-01
  8.00000000E-01  8.50000000E-01  8.50000000E-01  8.50000000E-01  8.00000000E-01
  8.50000000E-01  8.50000000E-01  8.50000000E-01  8.00000000E-01  8.50000000E-01
  8.50000000E-01  8.50000000E-01  8.00000000E-01  8.50000000E-01  8.50000000E-01
  8.50000000E-01  8.00000000E-01  8.50000000E-01  8.50000000E-01  8.50000000E-01
  8.00000000E-01  8.50000000E-01  8.50000000E-01  8.50000000E-01  8.00000000E-01
  8.50000000E-01  8.50000000E-01  8.50000000E-01  8.00000000E-01  8.50000000E-01
  8.50000000E-01  8.50000000E-01  8.00000000E-01  8.50000000E-01  8.50000000E-01
  8.50000000E-01  8.00000000E-01  8.50000000E-01  8.50000000E-01  8.50000000E-01
  8.00000000E-01  8.50000000E-01  8.50000000E-01  8.50000000E-01  8.00000000E-01
  8.50000000E-01  8.50000000E-01  8.50000000E-01  8.00000000E-01  8.50000000E-01
  8.50000000E-01  8.50000000E-01  8.00000000E-01  8.50000000E-01  8.50000000E-01
  8.50000000E-01  8.00000000E-01  8.50000000E-01  8.50000000E-01  8.50000000E-01
  8.00000000E-01  8.50000000E-01  8.50000000E-01  8.50000000E-01  8.00000000E-01
  8.50000000E-01  8.50000000E-01  8.50000000E-01  8.00000000E-01  8.50000000E-01
  8.50000000E-01  8.50000000E-01  8.00000000E-01  8.50000000E-01  8.50000000E-01
  8.50000000E-01  8.00000000E-01  8.50000000E-01  8.50000000E-01  8.50000000E-01
  8.00000000E-01  8.50000000E-01  8.50000000E-01  8.50000000E-01  8.00000000E-01
  8.50000000E-01  8.50000000E-01  8.50000000E-01  8.00000000E-01  8.50000000E-01
  8.50000000E-01  8.50000000E-01  8.00000000E-01  8.50000000E-01  8.50000000E-01
  8.50000000E-01  8.00000000E-01  8.50000000E-01  8.50000000E-01  8.50000000E-01
  8.00000000E-01  8.50000000E-01  8.50000000E-01  8.50000000E-01  8.00000000E-01
  8.50000000E-01  8.50000000E-01  8.50000000E-01  8.00000000E-01  8.50000000E-01
  8.50000000E-01  8.50000000E-01  8.00000000E-01  8.50000000E-01  8.50000000E-01
  8.50000000E-01  8.00000000E-01  8.50000000E-01  8.50000000E-01  8.50000000E-01
  8.00000000E-01  8.50000000E-01  8.50000000E-01  8.50000000E-01  8.00000000E-01
  8.50000000E-01  8.50000000E-01  8.50000000E-01  8.00000000E-01  8.50000000E-01
  8.50000000E-01  8.50000000E-01  8.00000000E-01  8.50000000E-01  8.50000000E-01
  8.50000000E-01  8.00000000E-01  8.50000000E-01  8.50000000E-01  8.50000000E-01
  8.00000000E-01  8.50000000E-01  8.50000000E-01  8.50000000E-01  8.00000000E-01
  8.50000000E-01  8.50000000E-01  8.50000000E-01  8.00000000E-01  8.50000000E-01
  8.50000000E-01  8.50000000E-01  8.00000000E-01  8.50000000E-01  8.50000000E-01
  8.50000000E-01  8.00000000E-01  8.50000000E-01  8.50000000E-01  8.50000000E-01
  8.00000000E-01  8.50000000E-01  8.50000000E-01  8.50000000E-01  8.00000000E-01
  8.50000000E-01  8.50000000E-01  8.50000000E-01  8.00000000E-01  8.50000000E-01
  8.50000000E-01  8.50000000E-01  8.00000000E-01  8.50000000E-01  8.50000000E-01
  8.50000000E-01  8.00000000E-01  8.50000000E-01  8.50000000E-01  8.50000000E-01
  8.00000000E-01  8.50000000E-01  8.50000000E-01  8.50000000E-01  8.00000000E-01
  8.50000000E-01  8.50000000E-01  8.50000000E-01  8.00000000E-01  8.50000000E-01
  8.50000000E-01  8.50000000E-01  8.00000000E-01  8.50000000E-01  8.50000000E-01
  8.50000000E-01  8.00000000E-01  8.50000000E-01  8.50000000E-01  8.50000000E-01
  8.00000000E-01  8.50000000E-01  8.50000000E-01  8.50000000E-01  8.00000000E-01
  8.50000000E-01  8.50000000E-01  8.50000000E-01  8.00000000E-01  8.50000000E-01
  8.50000000E-01  8.50000000E-01  8.00000000E-01  8.50000000E-01  8.50000000E-01
  8.50000000E-01  8.00000000E-01  8.50000000E-01  8.50000000E-01  8.50000000E-01
  8.00000000E-01  8.50000000E-01  8.50000000E-01  8.50000000E-01  8.00000000E-01
  8.50000000E-01  8.50000000E-01  8.50000000E-01  8.00000000E-01  8.50000000E-01
  8.50000000E-01  8.50000000E-01  8.00000000E-01  8.50000000E-01  8.50000000E-01
  8.50000000E-01  8.00000000E-01  8.50000000E-01  8.50000000E-01  8.50000000E-01
  8.00000000E-01  8.50000000E-01  8.50000000E-01  8.50000000E-01  8.00000000E-01
  8.50000000E-01  8.50000000E-01  8.50000000E-01  8.00000000E-01  8.50000000E-01
  8.50000000E-01  8.50000000E-01  8.00000000E-01  8.50000000E-01  8.50000000E-01
  8.50000000E-01  8.00000000E-01  8.50000000E-01  8.50000000E-01  8.50000000E-01
  8.00000000E-01  8.50000000E-01  8.50000000E-01  8.50000000E-01  8.00000000E-01
  8.50000000E-01  8.50000000E-01  8.50000000E-01  8.00000000E-01  8.50000000E-01
  8.50000000E-01  8.50000000E-01  8.00000000E-01  8.50000000E-01  8.50000000E-01
  8.50000000E-01  8.00000000E-01  8.50000000E-01  8.50000000E-01  8.50000000E-01
  8.00000000E-01  8.50000000E-01  8.50000000E-01  8.50000000E-01  8.00000000E-01
  8.50000000E-01  8.50000000E-01  8.50000000E-01  8.00000000E-01  8.50000000E-01
  8.50000000E-01  8.50000000E-01  8.00000000E-01  8.50000000E-01  8.50000000E-01
  8.50000000E-01  8.00000000E-01  8.50000000E-01  8.50000000E-01  8.50000000E-01
  8.00000000E-01  8.50000000E-01  8.50000000E-01  8.50000000E-01  8.00000000E-01
  8.50000000E-01  8.50000000E-01  8.50000000E-01  8.00000000E-01  8.50000000E-01
  8.50000000E-01  8.50000000E-01  8.00000000E-01  8.50000000E-01  8.50000000E-01
  8.50000000E-01  8.00000000E-01  8.50000000E-01  8.50000000E-01  8.50000000E-01
  8.00000000E-01  8.50000000E-01  8.50000000E-01  8.50000000E-01  8.00000000E-01
  8.50000000E-01  8.50000000E-01  8.50000000E-01  8.00000000E-01  8.50000000E-01
  8.50000000E-01  8.50000000E-01  8.00000000E-01  8.50000000E-01  8.50000000E-01
  8.50000000E-01  8.00000000E-01  8.50000000E-01  8.50000000E-01  8.50000000E-01
  8.00000000E-01  8.50000000E-01  8.50000000E-01  8.50000000E-01  8.00000000E-01
  8.50000000E-01  8.50000000E-01  8.50000000E-01  8.00000000E-01  8.50000000E-01
  8.50000000E-01  8.50000000E-01  8.00000000E-01  8.50000000E-01  8.50000000E-01
  8.50000000E-01  8.00000000E-01  8.50000000E-01  8.50000000E-01  8.50000000E-01
  8.00000000E-01  8.50000000E-01  8.50000000E-01  8.50000000E-01  8.00000000E-01
  8.50000000E-01  8.50000000E-01  8.50000000E-01  8.00000000E-01  8.50000000E-01
  8.50000000E-01  8.50000000E-01  8.00000000E-01  8.50000000E-01  8.50000000E-01
  8.50000000E-01  8.00000000E-01  8.50000000E-01  8.50000000E-01  8.50000000E-01
  8.00000000E-01  8.50000000E-01  8.50000000E-01  8.50000000E-01  8.00000000E-01
  8.50000000E-01  8.50000000E-01  8.50000000E-01  8.00000000E-01  8.50000000E-01
  8.50000000E-01  8.50000000E-01  8.00000000E-01  8.50000000E-01  8.50000000E-01
  8.50000000E-01  8.00000000E-01  8.50000000E-01  8.50000000E-01  8.50000000E-01
  8.00000000E-01  8.50000000E-01  8.50000000E-01  8.50000000E-01  8.00000000E-01
  8.50000000E-01  8.50000000E-01  8.50000000E-01  8.00000000E-01  8.50000000E-01
  8.50000000E-01  8.50000000E-01  8.00000000E-01  8.50000000E-01  8.50000000E-01
  8.50000000E-01  8.00000000E-01  8.50000000E-01  8.50000000E-01  8.50000000E-01
  8.00000000E-01  8.50000000E-01  8.50000000E-01  8.50000000E-01  8.00000000E-01
  8.50000000E-01  8.50000000E-01  8.50000000E-01  8.00000000E-01  8.50000000E-01
  8.50000000E-01  8.50000000E-01  8.00000000E-01  8.50000000E-01  8.50000000E-01
  8.50000000E-01  8.00000000E-01  8.50000000E-01  8.50000000E-01  8.50000000E-01
  8.00000000E-01  8.50000000E-01  8.50000000E-01  8.50000000E-01  8.00000000E-01
  8.50000000E-01  8.50000000E-01  8.50000000E-01  8.00000000E-01  8.50000000E-01
  8.50000000E-01  8.50000000E-01  8.00000000E-01  8.50000000E-01  8.50000000E-01
  8.50000000E-01  8.00000000E-01  8.50000000E-01  8.50000000E-01  8.50000000E-01
  8.00000000E-01  8.50000000E-01  8.50000000E-01  8.50000000E-01  8.00000000E-01
  8.50000000E-01  8.50000000E-01  8.50000000E-01  8.00000000E-01  8.50000000E-01
  8.50000000E-01  8.50000000E-01  8.00000000E-01  8.50000000E-01  8.50000000E-01
  8.50000000E-01  8.00000000E-01  8.50000000E-01  8.50000000E-01  8.50000000E-01
  8.00000000E-01  8.50000000E-01  8.50000000E-01  8.50000000E-01  8.00000000E-01
  8.50000000E-01  8.50000000E-01  8.50000000E-01  8.00000000E-01  8.50000000E-01
  8.50000000E-01  8.50000000E-01  8.00000000E-01  8.50000000E-01  8.50000000E-01
  8.50000000E-01  8.00000000E-01  8.50000000E-01  8.50000000E-01  8.50000000E-01
  8.00000000E-01  8.50000000E-01  8.50000000E-01  8.50000000E-01  8.00000000E-01
  8.50000000E-01  8.50000000E-01  8.50000000E-01  8.00000000E-01  8.50000000E-01
  8.50000000E-01  8.50000000E-01  8.00000000E-01  8.50000000E-01  8.50000000E-01
  8.50000000E-01  8.00000000E-01  8.50000000E-01  8.50000000E-01  8.50000000E-01
  8.00000000E-01  8.50000000E-01  8.50000000E-01  8.50000000E-01  8.00000000E-01
  8.50000000E-01  8.50000000E-01  8.50000000E-01  8.00000000E-01  8.50000000E-01
  8.50000000E-01  8.50000000E-01  8.00000000E-01  8.50000000E-01  8.50000000E-01
  8.50000000E-01  8.00000000E-01  8.50000000E-01  8.50000000E-01  8.50000000E-01
  8.00000000E-01  8.50000000E-01  8.50000000E-01  8.50000000E-01  8.00000000E-01
  8.50000000E-01  8.50000000E-01  8.50000000E-01  8.00000000E-01  8.50000000E-01
  8.50000000E-01  8.50000000E-01  8.00000000E-01  8.50000000E-01  8.50000000E-01
  8.50000000E-01  8.00000000E-01  8.50000000E-01  8.50000000E-01  8.50000000E-01
  8.00000000E-01  8.50000000E-01  8.50000000E-01  8.50000000E-01  8.00000000E-01
  8.50000000E-01  8.50000000E-01  8.50000000E-01  8.00000000E-01  8.50000000E-01
  8.50000000E-01  8.50000000E-01  8.00000000E-01  8.50000000E-01  8.50000000E-01
  8.50000000E-01  8.00000000E-01  8.50000000E-01  8.50000000E-01  8.50000000E-01
  8.00000000E-01  8.50000000E-01  8.50000000E-01  8.50000000E-01  8.00000000E-01
  8.50000000E-01  8.50000000E-01  8.50000000E-01  8.00000000E-01  8.50000000E-01
  8.50000000E-01  8.50000000E-01  8.00000000E-01  8.50000000E-01  8.50000000E-01
  8.50000000E-01  8.00000000E-01  8.50000000E-01  8.50000000E-01  8.50000000E-01
  8.00000000E-01  8.50000000E-01  8.50000000E-01  8.50000000E-01  8.00000000E-01
  8.50000000E-01  8.50000000E-01  8.50000000E-01  8.00000000E-01  8.50000000E-01
  8.50000000E-01  8.50000000E-01  8.00000000E-01  8.50000000E-01  8.50000000E-01
  8.50000000E-01  8.00000000E-01  8.50000000E-01  8.50000000E-01  8.50000000E-01
  8.00000000E-01  8.50000000E-01  8.50000000E-01  8.50000000E-01  8.00000000E-01
  8.50000000E-01  8.50000000E-01  8.50000000E-01  8.00000000E-01  8.50000000E-01
  8.50000000E-01  8.50000000E-01  8.00000000E-01  8.50000000E-01  8.50000000E-01
  8.50000000E-01  8.00000000E-01  8.50000000E-01  8.50000000E-01  8.50000000E-01
  8.00000000E-01  8.50000000E-01  8.50000000E-01  8.50000000E-01  8.00000000E-01
  8.50000000E-01  8.50000000E-01  8.50000000E-01  8.00000000E-01  8.50000000E-01
  8.50000000E-01  8.50000000E-01  8.00000000E-01  8.50000000E-01  8.50000000E-01
  8.50000000E-01  8.00000000E-01  8.50000000E-01  8.50000000E-01  8.50000000E-01
  8.00000000E-01  8.50000000E-01  8.50000000E-01  8.50000000E-01  8.00000000E-01
  8.50000000E-01  8.50000000E-01  8.50000000E-01  8.00000000E-01  8.50000000E-01
  8.50000000E-01  8.50000000E-01  8.00000000E-01  8.50000000E-01  8.50000000E-01
  8.50000000E-01  8.00000000E-01  8.50000000E-01  8.50000000E-01  8.50000000E-01
  8.00000000E-01  8.50000000E-01  8.50000000E-01  8.50000000E-01  8.00000000E-01
  8.50000000E-01  8.50000000E-01  8.50000000E-01  8.00000000E-01  8.50000000E-01
  8.50000000E-01  8.50000000E-01  8.00000000E-01  8.50000000E-01  8.50000000E-01
  8.50000000E-01  8.00000000E-01  8.50000000E-01  8.50000000E-01  8.50000000E-01
  8.00000000E-01  8.50000000E-01  8.50000000E-01  8.50000000E-01  8.00000000E-01
  8.50000000E-01  8.50000000E-01  8.50000000E-01  8.00000000E-01  8.50000000E-01
  8.50000000E-01  8.50000000E-01  8.00000000E-01  8.50000000E-01  8.50000000E-01
  8.50000000E-01  8.00000000E-01  8.50000000E-01  8.50000000E-01  8.50000000E-01
  8.00000000E-01  8.50000000E-01  8.50000000E-01  8.50000000E-01  8.00000000E-01
  8.50000000E-01  8.50000000E-01  8.50000000E-01  8.00000000E-01  8.50000000E-01
  8.50000000E-01  8.50000000E-01  8.00000000E-01  8.50000000E-01  8.50000000E-01
  8.50000000E-01  8.00000000E-01  8.50000000E-01  8.50000000E-01  8.50000000E-01
  8.00000000E-01  8.50000000E-01  8.50000000E-01  8.50000000E-01  8.00000000E-01
  8.50000000E-01  8.50000000E-01  8.50000000E-01  8.00000000E-01  8.50000000E-01
  8.50000000E-01  8.50000000E-01  8.00000000E-01  8.50000000E-01  8.50000000E-01
  8.50000000E-01  8.00000000E-01  8.50000000E-01  8.50000000E-01  8.50000000E-01
  8.00000000E-01  8.50000000E-01  8.50000000E-01  8.50000000E-01  8.00000000E-01
  8.50000000E-01  8.50000000E-01  8.50000000E-01  8.00000000E-01  8.50000000E-01
  8.50000000E-01  8.50000000E-01  8.00000000E-01  8.50000000E-01  8.50000000E-01
  8.50000000E-01  8.00000000E-01  8.50000000E-01  8.50000000E-01  8.50000000E-01
  8.00000000E-01  8.50000000E-01  8.50000000E-01  8.50000000E-01  8.00000000E-01
  8.50000000E-01  8.50000000E-01  8.50000000E-01  8.00000000E-01  8.50000000E-01
  8.50000000E-01  8.50000000E-01  8.00000000E-01  8.50000000E-01  8.50000000E-01
  8.50000000E-01  8.00000000E-01  8.50000000E-01  8.50000000E-01  8.50000000E-01
  8.00000000E-01  8.50000000E-01  8.50000000E-01  8.50000000E-01  8.00000000E-01
  8.50000000E-01  8.50000000E-01  8.50000000E-01  8.00000000E-01  8.50000000E-01
  8.50000000E-01  8.50000000E-01  8.00000000E-01  8.50000000E-01  8.50000000E-01
  8.50000000E-01  8.00000000E-01  8.50000000E-01  8.50000000E-01  8.50000000E-01
  8.00000000E-01  8.50000000E-01  8.50000000E-01  8.50000000E-01  8.00000000E-01
  8.50000000E-01  8.50000000E-01  8.50000000E-01  8.00000000E-01  8.50000000E-01
  8.50000000E-01  8.50000000E-01  8.00000000E-01  8.50000000E-01  8.50000000E-01
  8.50000000E-01  8.00000000E-01  8.50000000E-01  8.50000000E-01  8.50000000E-01
  8.00000000E-01  8.50000000E-01  8.50000000E-01  8.50000000E-01  8.00000000E-01
  8.50000000E-01  8.50000000E-01  8.50000000E-01  8.00000000E-01  8.50000000E-01
  8.50000000E-01  8.50000000E-01  8.00000000E-01  8.50000000E-01  8.50000000E-01
  8.50000000E-01  8.00000000E-01  8.50000000E-01  8.50000000E-01  8.50000000E-01
  8.00000000E-01  8.50000000E-01  8.50000000E-01  8.50000000E-01  8.00000000E-01
  8.50000000E-01  8.50000000E-01  8.50000000E-01  8.00000000E-01  8.50000000E-01
  8.50000000E-01  8.50000000E-01  8.00000000E-01  8.50000000E-01  8.50000000E-01
  8.50000000E-01  8.00000000E-01  8.50000000E-01  8.50000000E-01  8.50000000E-01
  8.00000000E-01  8.50000000E-01  8.50000000E-01  8.50000000E-01  8.00000000E-01
  8.50000000E-01  8.50000000E-01  8.50000000E-01  8.00000000E-01  8.50000000E-01
  8.50000000E-01  8.50000000E-01  8.00000000E-01  8.50000000E-01  8.50000000E-01
  8.50000000E-01  8.00000000E-01  8.50000000E-01  8.50000000E-01  8.50000000E-01
  8.00000000E-01  8.50000000E-01  8.50000000E-01  8.50000000E-01  8.00000000E-01
  8.50000000E-01  8.50000000E-01  8.50000000E-01  8.00000000E-01  8.50000000E-01
  8.50000000E-01  8.50000000E-01  8.00000000E-01  8.50000000E-01  8.50000000E-01
  8.50000000E-01  8.00000000E-01  8.50000000E-01  8.50000000E-01  8.50000000E-01
  8.00000000E-01  8.50000000E-01  8.50000000E-01  8.50000000E-01  8.00000000E-01
  8.50000000E-01  8.50000000E-01  8.50000000E-01  8.00000000E-01  8.50000000E-01
  8.50000000E-01  8.50000000E-01  8.00000000E-01  8.50000000E-01  8.50000000E-01
  8.50000000E-01  8.00000000E-01  8.50000000E-01  8.50000000E-01  8.50000000E-01
  8.00000000E-01  8.50000000E-01  8.50000000E-01  8.50000000E-01  8.00000000E-01
  8.50000000E-01  8.50000000E-01  8.50000000E-01  8.00000000E-01  8.50000000E-01
  8.50000000E-01  8.50000000E-01  8.00000000E-01  8.50000000E-01  8.50000000E-01
  8.50000000E-01  8.00000000E-01  8.50000000E-01  8.50000000E-01  8.50000000E-01
  8.00000000E-01  8.50000000E-01  8.50000000E-01  8.50000000E-01  8.00000000E-01
  8.50000000E-01  8.50000000E-01  8.50000000E-01  8.00000000E-01  8.50000000E-01
  8.50000000E-01  8.50000000E-01  8.00000000E-01  8.50000000E-01  8.50000000E-01
  8.50000000E-01  8.00000000E-01  8.50000000E-01  8.50000000E-01  8.50000000E-01
  8.00000000E-01  8.50000000E-01  8.50000000E-01  8.50000000E-01  8.00000000E-01
  8.50000000E-01  8.50000000E-01  8.50000000E-01  8.00000000E-01  8.50000000E-01
  8.50000000E-01  8.50000000E-01  8.00000000E-01  8.50000000E-01  8.50000000E-01
  8.50000000E-01  8.00000000E-01  8.50000000E-01  8.50000000E-01  8.50000000E-01
  8.00000000E-01  8.50000000E-01  8.50000000E-01  8.50000000E-01  8.00000000E-01
  8.50000000E-01  8.50000000E-01  8.50000000E-01  8.00000000E-01  8.50000000E-01
  8.50000000E-01  8.50000000E-01  8.00000000E-01  8.50000000E-01  8.50000000E-01
  8.50000000E-01  8.00000000E-01  8.50000000E-01  8.50000000E-01  8.50000000E-01
  8.00000000E-01  8.50000000E-01  8.50000000E-01  8.50000000E-01  8.00000000E-01
  8.50000000E-01  8.50000000E-01  8.50000000E-01  8.00000000E-01  8.50000000E-01
  8.50000000E-01  8.50000000E-01  8.00000000E-01  8.50000000E-01  8.50000000E-01
  8.50000000E-01  8.00000000E-01  8.50000000E-01  8.50000000E-01  8.50000000E-01
  8.00000000E-01  8.50000000E-01  8.50000000E-01  8.50000000E-01  8.00000000E-01
  8.50000000E-01  8.50000000E-01  8.50000000E-01  8.00000000E-01  8.50000000E-01
  8.50000000E-01  8.50000000E-01  8.00000000E-01  8.50000000E-01  8.50000000E-01
  8.50000000E-01  8.00000000E-01  8.50000000E-01  8.50000000E-01  8.50000000E-01
  8.00000000E-01  8.50000000E-01  8.50000000E-01  8.50000000E-01  8.00000000E-01
  8.50000000E-01  8.50000000E-01  8.50000000E-01  8.00000000E-01  8.50000000E-01
  8.50000000E-01  8.50000000E-01  8.00000000E-01  8.50000000E-01  8.50000000E-01
  8.50000000E-01  8.00000000E-01  8.50000000E-01  8.50000000E-01  8.50000000E-01
  8.00000000E-01  8.50000000E-01  8.50000000E-01  8.50000000E-01  8.00000000E-01
  8.50000000E-01  8.50000000E-01  8.50000000E-01  8.00000000E-01  8.50000000E-01
  8.50000000E-01  8.50000000E-01  8.00000000E-01  8.50000000E-01  8.50000000E-01
  8.50000000E-01  8.00000000E-01  8.50000000E-01  8.50000000E-01  8.50000000E-01
  8.00000000E-01  8.50000000E-01  8.50000000E-01  8.50000000E-01  8.00000000E-01
  8.50000000E-01  8.50000000E-01  8.50000000E-01  8.00000000E-01  8.50000000E-01
  8.50000000E-01  8.50000000E-01  8.00000000E-01  8.50000000E-01  8.50000000E-01
  8.50000000E-01  8.00000000E-01  8.50000000E-01  8.50000000E-01  8.50000000E-01
  8.00000000E-01  8.50000000E-01  8.50000000E-01  8.50000000E-01  8.00000000E-01
  8.50000000E-01  8.50000000E-01  8.50000000E-01  8.00000000E-01  8.50000000E-01
  8.50000000E-01  8.50000000E-01  8.00000000E-01  8.50000000E-01  8.50000000E-01
  8.50000000E-01  8.00000000E-01  8.50000000E-01  8.50000000E-01  8.50000000E-01
  8.00000000E-01  8.50000000E-01  8.50000000E-01  8.50000000E-01  8.00000000E-01
  8.50000000E-01  8.50000000E-01  8.50000000E-01  8.00000000E-01  8.50000000E-01
  8.50000000E-01  8.50000000E-01  8.00000000E-01  8.50000000E-01  8.50000000E-01
  8.50000000E-01  8.00000000E-01  8.50000000E-01  8.50000000E-01  8.50000000E-01
  8.00000000E-01  8.50000000E-01  8.50000000E-01  8.50000000E-01  8.00000000E-01
  8.50000000E-01  8.50000000E-01  8.50000000E-01  8.00000000E-01  8.50000000E-01
  8.50000000E-01  8.50000000E-01  8.00000000E-01  8.50000000E-01  8.50000000E-01
  8.50000000E-01  8.00000000E-01  8.50000000E-01  8.50000000E-01  8.50000000E-01
  8.00000000E-01  8.50000000E-01  8.50000000E-01  8.50000000E-01  8.00000000E-01
  8.50000000E-01  8.50000000E-01  8.50000000E-01  8.00000000E-01  8.50000000E-01
  8.50000000E-01  8.50000000E-01  8.00000000E-01  8.50000000E-01  8.50000000E-01
  8.50000000E-01  8.00000000E-01  8.50000000E-01  8.50000000E-01  8.50000000E-01
  8.00000000E-01  8.50000000E-01  8.50000000E-01  8.50000000E-01  8.00000000E-01
  8.50000000E-01  8.50000000E-01  8.50000000E-01  8.00000000E-01  8.50000000E-01
  8.50000000E-01  8.50000000E-01  8.00000000E-01  8.50000000E-01  8.50000000E-01
  8.50000000E-01  8.00000000E-01  8.50000000E-01  8.50000000E-01  8.50000000E-01
  8.00000000E-01  8.50000000E-01  8.50000000E-01  8.50000000E-01  8.00000000E-01
  8.50000000E-01  8.50000000E-01  8.50000000E-01  8.00000000E-01  8.50000000E-01
  8.50000000E-01  8.50000000E-01  8.00000000E-01  8.50000000E-01  8.50000000E-01
  8.50000000E-01  8.00000000E-01  8.50000000E-01  8.50000000E-01  8.50000000E-01
  8.00000000E-01  8.50000000E-01  8.50000000E-01  8.50000000E-01  8.00000000E-01
  8.50000000E-01  8.50000000E-01  8.50000000E-01  8.00000000E-01  8.50000000E-01
  8.50000000E-01  8.50000000E-01  8.00000000E-01  8.50000000E-01  8.50000000E-01
  8.50000000E-01  8.00000000E-01  8.50000000E-01  8.50000000E-01  8.50000000E-01
  8.00000000E-01  8.50000000E-01  8.50000000E-01  8.50000000E-01  8.00000000E-01
  8.50000000E-01  8.50000000E-01  8.50000000E-01  8.00000000E-01  8.50000000E-01
  8.50000000E-01  8.50000000E-01  8.00000000E-01  8.50000000E-01  8.50000000E-01
  8.50000000E-01  8.00000000E-01  8.50000000E-01  8.50000000E-01  8.50000000E-01
  8.00000000E-01  8.50000000E-01  8.50000000E-01  8.50000000E-01  8.00000000E-01
  8.50000000E-01  8.50000000E-01  8.50000000E-01  8.00000000E-01  8.50000000E-01
  8.50000000E-01  8.50000000E-01  8.00000000E-01  8.50000000E-01  8.50000000E-01
  8.50000000E-01  8.00000000E-01  8.50000000E-01  8.50000000E-01  8.50000000E-01
  8.00000000E-01  8.50000000E-01  8.50000000E-01  8.50000000E-01  8.00000000E-01
  8.50000000E-01  8.50000000E-01  8.50000000E-01  8.00000000E-01  8.50000000E-01
  8.50000000E-01  8.50000000E-01  8.00000000E-01  8.50000000E-01  8.50000000E-01
  8.50000000E-01  8.00000000E-01  8.50000000E-01  8.50000000E-01  8.50000000E-01
  8.00000000E-01  8.50000000E-01  8.50000000E-01  8.50000000E-01  8.00000000E-01
  8.50000000E-01  8.50000000E-01  8.50000000E-01  8.00000000E-01  8.50000000E-01
  8.50000000E-01  8.50000000E-01  8.00000000E-01  8.50000000E-01  8.50000000E-01
  8.50000000E-01  8.00000000E-01  8.50000000E-01  8.50000000E-01  8.50000000E-01
  8.00000000E-01  8.50000000E-01  8.50000000E-01  8.50000000E-01  8.00000000E-01
  8.50000000E-01  8.50000000E-01  8.50000000E-01  8.00000000E-01  8.50000000E-01
  8.50000000E-01  8.50000000E-01  8.00000000E-01  8.50000000E-01  8.50000000E-01
  8.50000000E-01  8.00000000E-01  8.50000000E-01  8.50000000E-01  8.50000000E-01
  8.00000000E-01  8.50000000E-01  8.50000000E-01  8.50000000E-01  8.00000000E-01
  8.50000000E-01  8.50000000E-01  8.50000000E-01  8.00000000E-01  8.50000000E-01
  8.50000000E-01  8.50000000E-01  8.00000000E-01  8.50000000E-01  8.50000000E-01
  8.50000000E-01  8.00000000E-01  8.50000000E-01  8.50000000E-01  8.50000000E-01
  8.00000000E-01  8.50000000E-01  8.50000000E-01  8.50000000E-01  8.00000000E-01
  8.50000000E-01  8.50000000E-01  8.50000000E-01  8.00000000E-01  8.50000000E-01
  8.50000000E-01  8.50000000E-01  8.00000000E-01  8.50000000E-01  8.50000000E-01
  8.50000000E-01  8.00000000E-01  8.50000000E-01  8.50000000E-01  8.50000000E-01
  8.00000000E-01  8.50000000E-01  8.50000000E-01  8.50000000E-01  8.00000000E-01
  8.50000000E-01  8.50000000E-01  8.50000000E-01  8.00000000E-01  8.50000000E-01
  8.50000000E-01  8.50000000E-01  8.00000000E-01  8.50000000E-01  8.50000000E-01
  8.50000000E-01  8.00000000E-01  8.50000000E-01  8.50000000E-01  8.50000000E-01
  8.00000000E-01  8.50000000E-01  8.50000000E-01  8.50000000E-01  8.00000000E-01
  8.50000000E-01  8.50000000E-01  8.50000000E-01  8.00000000E-01  8.50000000E-01
  8.50000000E-01  8.50000000E-01  8.00000000E-01  8.50000000E-01  8.50000000E-01
  8.50000000E-01  8.00000000E-01  8.50000000E-01  8.50000000E-01  8.50000000E-01
  8.00000000E-01  8.50000000E-01  8.50000000E-01  8.50000000E-01  8.00000000E-01
  8.50000000E-01  8.50000000E-01  8.50000000E-01  8.00000000E-01  8.50000000E-01
  8.50000000E-01  8.50000000E-01  8.00000000E-01  8.50000000E-01  8.50000000E-01
  8.50000000E-01  8.00000000E-01  8.50000000E-01  8.50000000E-01  8.50000000E-01
  8.00000000E-01  8.50000000E-01  8.50000000E-01  8.50000000E-01  8.00000000E-01
  8.50000000E-01  8.50000000E-01  8.50000000E-01  8.00000000E-01  8.50000000E-01
  8.50000000E-01  8.50000000E-01  8.00000000E-01  8.50000000E-01  8.50000000E-01
  8.50000000E-01  8.00000000E-01  8.50000000E-01  8.50000000E-01  8.50000000E-01
  8.00000000E-01  8.50000000E-01  8.50000000E-01  8.50000000E-01  8.00000000E-01
  8.50000000E-01  8.50000000E-01  8.50000000E-01  8.00000000E-01  8.50000000E-01
  8.50000000E-01  8.50000000E-01  8.00000000E-01  8.50000000E-01  8.50000000E-01
  8.50000000E-01  8.00000000E-01  8.50000000E-01  8.50000000E-01  8.50000000E-01
  8.00000000E-01  8.50000000E-01  8.50000000E-01  8.50000000E-01  8.00000000E-01
  8.50000000E-01  8.50000000E-01  8.50000000E-01  8.00000000E-01  8.50000000E-01
  8.50000000E-01  8.50000000E-01  8.00000000E-01  8.50000000E-01  8.50000000E-01
  8.50000000E-01  8.00000000E-01  8.50000000E-01  8.50000000E-01  8.50000000E-01
  8.00000000E-01  8.50000000E-01  8.50000000E-01  8.50000000E-01  8.00000000E-01
  8.50000000E-01  8.50000000E-01  8.50000000E-01  8.00000000E-01  8.50000000E-01
  8.50000000E-01  8.50000000E-01  8.00000000E-01  8.50000000E-01  8.50000000E-01
  8.50000000E-01  8.00000000E-01  8.50000000E-01  8.50000000E-01  8.50000000E-01
  8.00000000E-01  8.50000000E-01  8.50000000E-01  8.50000000E-01  8.00000000E-01
  8.50000000E-01  8.50000000E-01  8.50000000E-01  8.00000000E-01  8.50000000E-01
  8.50000000E-01  8.50000000E-01  8.00000000E-01  8.50000000E-01  8.50000000E-01
  8.50000000E-01  8.00000000E-01  8.50000000E-01  8.50000000E-01  8.50000000E-01
  8.00000000E-01  8.50000000E-01  8.50000000E-01  8.50000000E-01  8.00000000E-01
  8.50000000E-01  8.50000000E-01  8.50000000E-01  8.00000000E-01  8.50000000E-01
  8.50000000E-01  8.50000000E-01  8.00000000E-01  8.50000000E-01  8.50000000E-01
  8.50000000E-01  8.00000000E-01  8.50000000E-01  8.50000000E-01  8.50000000E-01
  8.00000000E-01  8.50000000E-01  8.50000000E-01  8.50000000E-01  8.00000000E-01
  8.50000000E-01  8.50000000E-01  8.50000000E-01  8.00000000E-01  8.50000000E-01
  8.50000000E-01  8.50000000E-01  8.00000000E-01  8.50000000E-01  8.50000000E-01
  8.50000000E-01  8.00000000E-01  8.50000000E-01  8.50000000E-01  8.50000000E-01
  8.00000000E-01  8.50000000E-01  8.50000000E-01  8.50000000E-01  8.00000000E-01
  8.50000000E-01  8.50000000E-01  8.50000000E-01  8.00000000E-01  8.50000000E-01
  8.50000000E-01  8.50000000E-01  8.00000000E-01  8.50000000E-01  8.50000000E-01
  8.50000000E-01  8.00000000E-01  8.50000000E-01  8.50000000E-01  8.50000000E-01
  8.00000000E-01  8.50000000E-01  8.50000000E-01  8.50000000E-01  8.00000000E-01
  8.50000000E-01  8.50000000E-01  8.50000000E-01  8.00000000E-01  8.50000000E-01
  8.50000000E-01  8.50000000E-01  8.00000000E-01  8.50000000E-01  8.50000000E-01
  8.50000000E-01  8.00000000E-01  8.50000000E-01  8.50000000E-01  8.50000000E-01
  8.00000000E-01  8.50000000E-01  8.50000000E-01  8.50000000E-01  8.00000000E-01
  8.50000000E-01  8.50000000E-01  8.50000000E-01  8.00000000E-01  8.50000000E-01
  8.50000000E-01  8.50000000E-01  8.00000000E-01  8.50000000E-01  8.50000000E-01
  8.50000000E-01  8.00000000E-01  8.50000000E-01  8.50000000E-01  8.50000000E-01
  8.00000000E-01  8.50000000E-01  8.50000000E-01  8.50000000E-01  8.00000000E-01
  8.50000000E-01  8.50000000E-01  8.50000000E-01  8.00000000E-01  8.50000000E-01
  8.50000000E-01  8.50000000E-01  8.00000000E-01  8.50000000E-01  8.50000000E-01
  8.50000000E-01  8.00000000E-01  8.50000000E-01  8.50000000E-01  8.50000000E-01
  8.00000000E-01  8.50000000E-01  8.50000000E-01  8.50000000E-01  8.00000000E-01
  8.50000000E-01  8.50000000E-01  8.50000000E-01  8.00000000E-01  8.50000000E-01
  8.50000000E-01  8.50000000E-01  8.00000000E-01  8.50000000E-01  8.50000000E-01
  8.50000000E-01  8.00000000E-01  8.50000000E-01  8.50000000E-01  8.50000000E-01
  8.00000000E-01  8.50000000E-01  8.50000000E-01  8.50000000E-01  8.00000000E-01
  8.50000000E-01  8.50000000E-01  8.50000000E-01  8.00000000E-01  8.50000000E-01
  8.50000000E-01  8.50000000E-01  8.00000000E-01  8.50000000E-01  8.50000000E-01
  8.50000000E-01  8.00000000E-01  8.50000000E-01  8.50000000E-01  8.50000000E-01
  8.00000000E-01  8.50000000E-01  8.50000000E-01  8.50000000E-01  8.00000000E-01
  8.50000000E-01  8.50000000E-01  8.50000000E-01  8.00000000E-01  8.50000000E-01
  8.50000000E-01  8.50000000E-01  8.00000000E-01  8.50000000E-01  8.50000000E-01
  8.50000000E-01  8.00000000E-01  8.50000000E-01  8.50000000E-01  8.50000000E-01
  8.00000000E-01  8.50000000E-01  8.50000000E-01  8.50000000E-01  8.00000000E-01
  8.50000000E-01  8.50000000E-01  8.50000000E-01  8.00000000E-01  8.50000000E-01
  8.50000000E-01  8.50000000E-01  8.00000000E-01  8.50000000E-01  8.50000000E-01
  8.50000000E-01  8.00000000E-01  8.50000000E-01  8.50000000E-01  8.50000000E-01
  8.00000000E-01  8.50000000E-01  8.50000000E-01  8.50000000E-01  8.00000000E-01
  8.50000000E-01  8.50000000E-01  8.50000000E-01  8.00000000E-01  8.50000000E-01
  8.50000000E-01  8.50000000E-01  8.00000000E-01  8.50000000E-01  8.50000000E-01
  8.50000000E-01  8.00000000E-01  8.50000000E-01  8.50000000E-01  8.50000000E-01
  8.00000000E-01  8.50000000E-01  8.50000000E-01  8.50000000E-01  8.00000000E-01
  8.50000000E-01  8.50000000E-01  8.50000000E-01  8.00000000E-01  8.50000000E-01
  8.50000000E-01  8.50000000E-01  8.00000000E-01  8.50000000E-01  8.50000000E-01
  8.50000000E-01  8.00000000E-01  8.50000000E-01  8.50000000E-01  8.50000000E-01
  8.00000000E-01  8.50000000E-01  8.50000000E-01  8.50000000E-01  8.00000000E-01
  8.50000000E-01  8.50000000E-01  8.50000000E-01  8.00000000E-01  8.50000000E-01
  8.50000000E-01  8.50000000E-01  8.00000000E-01  8.50000000E-01  8.50000000E-01
  8.50000000E-01  8.00000000E-01  8.50000000E-01  8.50000000E-01  8.50000000E-01
  8.00000000E-01  8.50000000E-01  8.50000000E-01  8.50000000E-01  8.00000000E-01
  8.50000000E-01  8.50000000E-01  8.50000000E-01  8.00000000E-01  8.50000000E-01
  8.50000000E-01  8.50000000E-01  8.00000000E-01  8.50000000E-01  8.50000000E-01
  8.50000000E-01  8.00000000E-01  8.50000000E-01  8.50000000E-01  8.50000000E-01
  8.00000000E-01  8.50000000E-01  8.50000000E-01  8.50000000E-01  8.00000000E-01
  8.50000000E-01  8.50000000E-01  8.50000000E-01  8.00000000E-01  8.50000000E-01
  8.50000000E-01  8.50000000E-01  8.00000000E-01  8.50000000E-01  8.50000000E-01
  8.50000000E-01  8.00000000E-01  8.50000000E-01  8.50000000E-01  8.50000000E-01
  8.00000000E-01  8.50000000E-01  8.50000000E-01  8.50000000E-01  8.00000000E-01
  8.50000000E-01  8.50000000E-01  8.50000000E-01  8.00000000E-01  8.50000000E-01
  8.50000000E-01  8.50000000E-01  8.00000000E-01  8.50000000E-01  8.50000000E-01
  8.50000000E-01  8.00000000E-01  8.50000000E-01  8.50000000E-01  8.50000000E-01
  8.00000000E-01  8.50000000E-01  8.50000000E-01  8.50000000E-01  8.00000000E-01
  8.50000000E-01  8.50000000E-01  8.50000000E-01  8.00000000E-01  8.50000000E-01
  8.50000000E-01  8.50000000E-01  8.00000000E-01  8.50000000E-01  8.50000000E-01
  8.50000000E-01  8.00000000E-01  8.50000000E-01  8.50000000E-01  8.50000000E-01
  8.00000000E-01  8.50000000E-01  8.50000000E-01  8.50000000E-01  8.00000000E-01
  8.50000000E-01  8.50000000E-01  8.50000000E-01  8.00000000E-01  8.50000000E-01
  8.50000000E-01  8.50000000E-01  8.00000000E-01  8.50000000E-01  8.50000000E-01
  8.50000000E-01  8.00000000E-01  8.50000000E-01  8.50000000E-01  8.50000000E-01
  8.00000000E-01  8.50000000E-01  8.50000000E-01  8.50000000E-01  8.00000000E-01
  8.50000000E-01  8.50000000E-01  8.50000000E-01  8.00000000E-01  8.50000000E-01
  8.50000000E-01  8.50000000E-01  8.00000000E-01  8.50000000E-01  8.50000000E-01
  8.50000000E-01  8.00000000E-01  8.50000000E-01  8.50000000E-01  8.50000000E-01
  8.00000000E-01  8.50000000E-01  8.50000000E-01  8.50000000E-01  8.00000000E-01
  8.50000000E-01  8.50000000E-01  8.50000000E-01  8.00000000E-01  8.50000000E-01
  8.50000000E-01  8.50000000E-01  8.00000000E-01  8.50000000E-01  8.50000000E-01
  8.50000000E-01  8.00000000E-01  8.50000000E-01  8.50000000E-01  8.50000000E-01
  8.00000000E-01  8.50000000E-01  8.50000000E-01  8.50000000E-01  8.00000000E-01
  8.50000000E-01  8.50000000E-01  8.50000000E-01  8.00000000E-01  8.50000000E-01
  8.50000000E-01  8.50000000E-01  8.00000000E-01  8.50000000E-01  8.50000000E-01
  8.50000000E-01  8.00000000E-01  8.50000000E-01  8.50000000E-01  8.50000000E-01
  8.00000000E-01  8.50000000E-01  8.50000000E-01  8.50000000E-01  8.00000000E-01
  8.50000000E-01  8.50000000E-01  8.50000000E-01  8.00000000E-01  8.50000000E-01
  8.50000000E-01  8.50000000E-01  8.00000000E-01  8.50000000E-01  8.50000000E-01
  8.50000000E-01  8.00000000E-01  8.50000000E-01  8.50000000E-01  8.50000000E-01
  8.00000000E-01  8.50000000E-01  8.50000000E-01  8.50000000E-01  8.00000000E-01
  8.50000000E-01  8.50000000E-01  8.50000000E-01  8.00000000E-01  8.50000000E-01
  8.50000000E-01  8.50000000E-01  8.00000000E-01  8.50000000E-01  8.50000000E-01
  8.50000000E-01  8.00000000E-01  8.50000000E-01  8.50000000E-01  8.50000000E-01
  8.00000000E-01  8.50000000E-01  8.50000000E-01  8.50000000E-01  8.00000000E-01
  8.50000000E-01  8.50000000E-01  8.50000000E-01  8.00000000E-01  8.50000000E-01
  8.50000000E-01  8.50000000E-01  8.00000000E-01  8.50000000E-01  8.50000000E-01
  8.50000000E-01  8.00000000E-01  8.50000000E-01  8.50000000E-01  8.50000000E-01
  8.00000000E-01  8.50000000E-01  8.50000000E-01  8.50000000E-01  8.00000000E-01
  8.50000000E-01  8.50000000E-01  8.50000000E-01  8.00000000E-01  8.50000000E-01
  8.50000000E-01  8.50000000E-01  8.00000000E-01  8.50000000E-01  8.50000000E-01
  8.50000000E-01  8.00000000E-01  8.50000000E-01  8.50000000E-01  8.50000000E-01
  8.00000000E-01  8.50000000E-01  8.50000000E-01  8.50000000E-01  8.00000000E-01
  8.50000000E-01  8.50000000E-01  8.50000000E-01  8.00000000E-01  8.50000000E-01
  8.50000000E-01  8.50000000E-01  8.00000000E-01  8.50000000E-01  8.50000000E-01
  8.50000000E-01  8.00000000E-01  8.50000000E-01  8.50000000E-01  8.50000000E-01
  8.00000000E-01  8.50000000E-01  8.50000000E-01  8.50000000E-01  8.00000000E-01
  8.50000000E-01  8.50000000E-01  8.50000000E-01  8.00000000E-01  8.50000000E-01
  8.50000000E-01  8.50000000E-01  8.00000000E-01  8.50000000E-01  8.50000000E-01
  8.50000000E-01  8.00000000E-01  8.50000000E-01  8.50000000E-01  8.50000000E-01
  8.00000000E-01  8.50000000E-01  8.50000000E-01  8.50000000E-01  8.00000000E-01
  8.50000000E-01  8.50000000E-01  8.50000000E-01  8.00000000E-01  8.50000000E-01
  8.50000000E-01  8.50000000E-01  8.00000000E-01  8.50000000E-01  8.50000000E-01
  8.50000000E-01  8.00000000E-01  8.50000000E-01  8.50000000E-01  8.50000000E-01
  8.00000000E-01  8.50000000E-01  8.50000000E-01  8.50000000E-01  8.00000000E-01
  8.50000000E-01  8.50000000E-01  8.50000000E-01  8.00000000E-01  8.50000000E-01
  8.50000000E-01  8.50000000E-01  8.00000000E-01  8.50000000E-01  8.50000000E-01
  8.50000000E-01  8.00000000E-01  8.50000000E-01  8.50000000E-01  8.50000000E-01
  8.00000000E-01  8.50000000E-01  8.50000000E-01  8.50000000E-01  8.00000000E-01
  8.50000000E-01  8.50000000E-01  8.50000000E-01  8.00000000E-01  8.50000000E-01
  8.50000000E-01  8.50000000E-01  8.00000000E-01  8.50000000E-01  8.50000000E-01
  8.50000000E-01  8.00000000E-01  8.50000000E-01  8.50000000E-01  8.50000000E-01
  8.00000000E-01  8.50000000E-01  8.50000000E-01  8.50000000E-01  8.00000000E-01
  8.50000000E-01  8.50000000E-01  8.50000000E-01  8.00000000E-01  8.50000000E-01
  8.50000000E-01  8.50000000E-01  8.00000000E-01  8.50000000E-01  8.50000000E-01
  8.50000000E-01  8.00000000E-01  8.50000000E-01  8.50000000E-01  8.50000000E-01
  8.00000000E-01  8.50000000E-01  8.50000000E-01  8.50000000E-01  8.00000000E-01
  8.50000000E-01  8.50000000E-01  8.50000000E-01  8.00000000E-01  8.50000000E-01
  8.50000000E-01  8.50000000E-01  8.00000000E-01  8.50000000E-01  8.50000000E-01
  8.50000000E-01  8.00000000E-01  8.50000000E-01  8.50000000E-01  8.50000000E-01
  8.00000000E-01  8.50000000E-01  8.50000000E-01  8.50000000E-01  8.00000000E-01
  8.50000000E-01  8.50000000E-01  8.50000000E-01  8.00000000E-01  8.50000000E-01
  8.50000000E-01  8.50000000E-01  8.00000000E-01  8.50000000E-01  8.50000000E-01
  8.50000000E-01  8.00000000E-01  8.50000000E-01  8.50000000E-01  8.50000000E-01
  8.00000000E-01  8.50000000E-01  8.50000000E-01  8.50000000E-01  8.00000000E-01
  8.50000000E-01  8.50000000E-01  8.50000000E-01  8.00000000E-01  8.50000000E-01
  8.50000000E-01  8.50000000E-01  8.00000000E-01  8.50000000E-01  8.50000000E-01
  8.50000000E-01  8.00000000E-01  8.50000000E-01  8.50000000E-01  8.50000000E-01
  8.00000000E-01  8.50000000E-01  8.50000000E-01  8.50000000E-01  8.00000000E-01
  8.50000000E-01  8.50000000E-01  8.50000000E-01  8.00000000E-01  8.50000000E-01
  8.50000000E-01  8.50000000E-01  8.00000000E-01  8.50000000E-01  8.50000000E-01
  8.50000000E-01  8.00000000E-01  8.50000000E-01  8.50000000E-01  8.50000000E-01
  8.00000000E-01  8.50000000E-01  8.50000000E-01  8.50000000E-01  8.00000000E-01
  8.50000000E-01  8.50000000E-01  8.50000000E-01  8.00000000E-01  8.50000000E-01
  8.50000000E-01  8.50000000E-01  8.00000000E-01  8.50000000E-01  8.50000000E-01
  8.50000000E-01  8.00000000E-01  8.50000000E-01  8.50000000E-01  8.50000000E-01
  8.00000000E-01  8.50000000E-01  8.50000000E-01  8.50000000E-01  8.00000000E-01
  8.50000000E-01  8.50000000E-01  8.50000000E-01  8.00000000E-01  8.50000000E-01
  8.50000000E-01  8.50000000E-01  8.00000000E-01  8.50000000E-01  8.50000000E-01
  8.50000000E-01  8.00000000E-01  8.50000000E-01  8.50000000E-01  8.50000000E-01
  8.00000000E-01  8.50000000E-01  8.50000000E-01  8.50000000E-01  8.00000000E-01
  8.50000000E-01  8.50000000E-01  8.50000000E-01  8.00000000E-01  8.50000000E-01
  8.50000000E-01  8.50000000E-01  8.00000000E-01  8.50000000E-01  8.50000000E-01
  8.50000000E-01  8.00000000E-01  8.50000000E-01  8.50000000E-01  8.50000000E-01
  8.00000000E-01  8.50000000E-01  8.50000000E-01  8.50000000E-01  8.00000000E-01
  8.50000000E-01  8.50000000E-01  8.50000000E-01  8.00000000E-01  8.50000000E-01
  8.50000000E-01  8.50000000E-01  8.00000000E-01  8.50000000E-01  8.50000000E-01
  8.50000000E-01  8.00000000E-01  8.50000000E-01  8.50000000E-01  8.50000000E-01
  8.00000000E-01  8.50000000E-01  8.50000000E-01  8.50000000E-01  8.00000000E-01
  8.50000000E-01  8.50000000E-01  8.50000000E-01  8.00000000E-01  8.50000000E-01
  8.50000000E-01  8.50000000E-01  8.00000000E-01  8.50000000E-01  8.50000000E-01
  8.50000000E-01  8.00000000E-01  8.50000000E-01  8.50000000E-01  8.50000000E-01
  8.00000000E-01  8.50000000E-01  8.50000000E-01  8.50000000E-01  8.00000000E-01
  8.50000000E-01  8.50000000E-01  8.50000000E-01  8.00000000E-01  8.50000000E-01
  8.50000000E-01  8.50000000E-01  8.00000000E-01  8.50000000E-01  8.50000000E-01
  8.50000000E-01  8.00000000E-01  8.50000000E-01  8.50000000E-01  8.50000000E-01
  8.00000000E-01  8.50000000E-01  8.50000000E-01  8.50000000E-01  8.00000000E-01
  8.50000000E-01  8.50000000E-01  8.50000000E-01  8.00000000E-01  8.50000000E-01
  8.50000000E-01  8.50000000E-01  8.00000000E-01  8.50000000E-01  8.50000000E-01
  8.50000000E-01  8.00000000E-01  8.50000000E-01  8.50000000E-01  8.50000000E-01
  8.00000000E-01  8.50000000E-01  8.50000000E-01  8.50000000E-01  8.00000000E-01
  8.50000000E-01  8.50000000E-01  8.50000000E-01  8.00000000E-01  8.50000000E-01
  8.50000000E-01  8.50000000E-01  8.00000000E-01  8.50000000E-01  8.50000000E-01
  8.50000000E-01  8.00000000E-01  8.50000000E-01  8.50000000E-01  8.50000000E-01
  8.00000000E-01  8.50000000E-01  8.50000000E-01  8.50000000E-01  8.00000000E-01
  8.50000000E-01  8.50000000E-01  8.50000000E-01  8.00000000E-01  8.50000000E-01
  8.50000000E-01  8.50000000E-01  8.00000000E-01  8.50000000E-01  8.50000000E-01
  8.50000000E-01  8.00000000E-01  8.50000000E-01  8.50000000E-01  8.50000000E-01
  8.00000000E-01  8.50000000E-01  8.50000000E-01  8.50000000E-01  8.00000000E-01
  8.50000000E-01  8.50000000E-01  8.50000000E-01  8.00000000E-01  8.50000000E-01
  8.50000000E-01  8.50000000E-01  8.00000000E-01  8.50000000E-01  8.50000000E-01
  8.50000000E-01  8.00000000E-01  8.50000000E-01  8.50000000E-01  8.50000000E-01
  8.00000000E-01  8.50000000E-01  8.50000000E-01  8.50000000E-01  8.00000000E-01
  8.50000000E-01  8.50000000E-01  8.50000000E-01  8.00000000E-01  8.50000000E-01
  8.50000000E-01  8.50000000E-01  8.00000000E-01  8.50000000E-01  8.50000000E-01
  8.50000000E-01  8.00000000E-01  8.50000000E-01  8.50000000E-01  8.50000000E-01
  8.00000000E-01  8.50000000E-01  8.50000000E-01  8.50000000E-01  8.00000000E-01
  8.50000000E-01  8.50000000E-01  8.50000000E-01  8.00000000E-01  8.50000000E-01
  8.50000000E-01  8.50000000E-01  8.00000000E-01  8.50000000E-01  8.50000000E-01
  8.50000000E-01  8.00000000E-01  8.50000000E-01  8.50000000E-01  8.50000000E-01
  8.00000000E-01  8.50000000E-01  8.50000000E-01  8.50000000E-01  8.00000000E-01
  8.50000000E-01  8.50000000E-01  8.50000000E-01  8.00000000E-01  8.50000000E-01
  8.50000000E-01  8.50000000E-01  8.00000000E-01  8.50000000E-01  8.50000000E-01
  8.50000000E-01  8.00000000E-01  8.50000000E-01  8.50000000E-01  8.50000000E-01
  8.00000000E-01  8.50000000E-01  8.50000000E-01  8.50000000E-01  8.00000000E-01
  8.50000000E-01  8.50000000E-01  8.50000000E-01  8.00000000E-01  8.50000000E-01
  8.50000000E-01  8.50000000E-01  8.00000000E-01  8.50000000E-01  8.50000000E-01
  8.50000000E-01  8.00000000E-01  8.50000000E-01  8.50000000E-01  8.50000000E-01
  8.00000000E-01  8.50000000E-01  8.50000000E-01  8.50000000E-01  8.00000000E-01
  8.50000000E-01  8.50000000E-01  8.50000000E-01  8.00000000E-01  8.50000000E-01
  8.50000000E-01  8.50000000E-01  8.00000000E-01  8.50000000E-01  8.50000000E-01
  8.50000000E-01  8.00000000E-01  8.50000000E-01  8.50000000E-01  8.50000000E-01
  8.00000000E-01  8.50000000E-01  8.50000000E-01  8.50000000E-01  8.00000000E-01
  8.50000000E-01  8.50000000E-01  8.50000000E-01  8.00000000E-01  8.50000000E-01
  8.50000000E-01  8.50000000E-01  8.00000000E-01  8.50000000E-01  8.50000000E-01
  8.50000000E-01  8.00000000E-01  8.50000000E-01  8.50000000E-01  8.50000000E-01
  8.00000000E-01  8.50000000E-01  8.50000000E-01  8.50000000E-01  8.00000000E-01
  8.50000000E-01  8.50000000E-01  8.50000000E-01  8.00000000E-01  8.50000000E-01
  8.50000000E-01  8.50000000E-01  8.00000000E-01  8.50000000E-01  8.50000000E-01
  8.50000000E-01  8.00000000E-01  8.50000000E-01  8.50000000E-01  8.50000000E-01
  8.00000000E-01  8.50000000E-01  8.50000000E-01  8.50000000E-01  8.00000000E-01
  8.50000000E-01  8.50000000E-01  8.50000000E-01  8.00000000E-01  8.50000000E-01
  8.50000000E-01  8.50000000E-01  8.00000000E-01  8.50000000E-01  8.50000000E-01
  8.50000000E-01  8.00000000E-01  8.50000000E-01  8.50000000E-01  8.50000000E-01
  8.00000000E-01  8.50000000E-01  8.50000000E-01  8.50000000E-01  8.00000000E-01
  8.50000000E-01  8.50000000E-01  8.50000000E-01  8.00000000E-01  8.50000000E-01
  8.50000000E-01  8.50000000E-01  8.00000000E-01  8.50000000E-01  8.50000000E-01
  8.50000000E-01  8.00000000E-01  8.50000000E-01  8.50000000E-01  8.50000000E-01
  8.00000000E-01  8.50000000E-01  8.50000000E-01  8.50000000E-01  8.00000000E-01
  8.50000000E-01  8.50000000E-01  8.50000000E-01  8.00000000E-01  8.50000000E-01
  8.50000000E-01  8.50000000E-01  8.00000000E-01  8.50000000E-01  8.50000000E-01
  8.50000000E-01  8.00000000E-01  8.50000000E-01  8.50000000E-01  8.50000000E-01
  8.00000000E-01  8.50000000E-01  8.50000000E-01  8.50000000E-01  8.00000000E-01
  8.50000000E-01  8.50000000E-01  8.50000000E-01  8.00000000E-01  8.50000000E-01
  8.50000000E-01  8.50000000E-01  8.00000000E-01  8.50000000E-01  8.50000000E-01
  8.50000000E-01  8.00000000E-01  8.50000000E-01  8.50000000E-01  8.50000000E-01
  8.00000000E-01  8.50000000E-01  8.50000000E-01  8.50000000E-01  8.00000000E-01
  8.50000000E-01  8.50000000E-01  8.50000000E-01  8.00000000E-01  8.50000000E-01
  8.50000000E-01  8.50000000E-01  8.00000000E-01  8.50000000E-01  8.50000000E-01
  8.50000000E-01  8.00000000E-01  8.50000000E-01  8.50000000E-01  8.50000000E-01
  8.00000000E-01  8.50000000E-01  8.50000000E-01  8.50000000E-01  8.00000000E-01
  8.50000000E-01  8.50000000E-01  8.50000000E-01  8.00000000E-01  8.50000000E-01
  8.50000000E-01  8.50000000E-01  8.00000000E-01  8.50000000E-01  8.50000000E-01
  8.50000000E-01  8.00000000E-01  8.50000000E-01  8.50000000E-01  8.50000000E-01
  8.00000000E-01  8.50000000E-01  8.50000000E-01  8.50000000E-01  8.00000000E-01
  8.50000000E-01  8.50000000E-01  8.50000000E-01  8.00000000E-01  8.50000000E-01
  8.50000000E-01  8.50000000E-01  8.00000000E-01  8.50000000E-01  8.50000000E-01
  8.50000000E-01  8.00000000E-01  8.50000000E-01  8.50000000E-01  8.50000000E-01
  8.00000000E-01  8.50000000E-01  8.50000000E-01  8.50000000E-01  8.00000000E-01
  8.50000000E-01  8.50000000E-01  8.50000000E-01  8.00000000E-01  8.50000000E-01
  8.50000000E-01  8.50000000E-01  8.00000000E-01  8.50000000E-01  8.50000000E-01
  8.50000000E-01  8.00000000E-01  8.50000000E-01  8.50000000E-01  8.50000000E-01
  8.00000000E-01  8.50000000E-01  8.50000000E-01  8.50000000E-01  8.00000000E-01
  8.50000000E-01  8.50000000E-01  8.50000000E-01  8.00000000E-01  8.50000000E-01
  8.50000000E-01  8.50000000E-01  8.00000000E-01  8.50000000E-01  8.50000000E-01
  8.50000000E-01  8.00000000E-01  8.50000000E-01  8.50000000E-01  8.50000000E-01
  8.00000000E-01  8.50000000E-01  8.50000000E-01  8.50000000E-01  8.00000000E-01
  8.50000000E-01  8.50000000E-01  8.50000000E-01  8.00000000E-01  8.50000000E-01
  8.50000000E-01  8.50000000E-01  8.00000000E-01  8.50000000E-01  8.50000000E-01
  8.50000000E-01  8.00000000E-01  8.50000000E-01  8.50000000E-01  8.50000000E-01
  8.00000000E-01  8.50000000E-01  8.50000000E-01  8.50000000E-01  8.00000000E-01
  8.50000000E-01  8.50000000E-01  8.50000000E-01  8.00000000E-01  8.50000000E-01
  8.50000000E-01  8.50000000E-01  8.00000000E-01  8.50000000E-01  8.50000000E-01
  8.50000000E-01  8.00000000E-01  8.50000000E-01  8.50000000E-01  8.50000000E-01
  8.00000000E-01  8.50000000E-01  8.50000000E-01  8.50000000E-01  8.00000000E-01
  8.50000000E-01  8.50000000E-01  8.50000000E-01  8.00000000E-01  8.50000000E-01
  8.50000000E-01  8.50000000E-01  8.00000000E-01  8.50000000E-01  8.50000000E-01
  8.50000000E-01  8.00000000E-01  8.50000000E-01  8.50000000E-01  8.50000000E-01
  8.00000000E-01  8.50000000E-01  8.50000000E-01  8.50000000E-01  8.00000000E-01
  8.50000000E-01  8.50000000E-01  8.50000000E-01  8.00000000E-01  8.50000000E-01
  8.50000000E-01  8.50000000E-01  8.00000000E-01  8.50000000E-01  8.50000000E-01
  8.50000000E-01  8.00000000E-01  8.50000000E-01  8.50000000E-01  8.50000000E-01
  8.00000000E-01  8.50000000E-01  8.50000000E-01  8.50000000E-01  8.00000000E-01
  8.50000000E-01  8.50000000E-01  8.50000000E-01  8.00000000E-01  8.50000000E-01
  8.50000000E-01  8.50000000E-01  8.00000000E-01  8.50000000E-01  8.50000000E-01
  8.50000000E-01  8.00000000E-01  8.50000000E-01  8.50000000E-01  8.50000000E-01
  8.00000000E-01  8.50000000E-01  8.50000000E-01  8.50000000E-01  8.00000000E-01
  8.50000000E-01  8.50000000E-01  8.50000000E-01  8.00000000E-01  8.50000000E-01
  8.50000000E-01  8.50000000E-01  8.00000000E-01  8.50000000E-01  8.50000000E-01
  8.50000000E-01  8.00000000E-01  8.50000000E-01  8.50000000E-01  8.50000000E-01
  8.00000000E-01  8.50000000E-01  8.50000000E-01  8.50000000E-01  8.00000000E-01
  8.50000000E-01  8.50000000E-01  8.50000000E-01  8.00000000E-01  8.50000000E-01
  8.50000000E-01  8.50000000E-01  8.00000000E-01  8.50000000E-01  8.50000000E-01
  8.50000000E-01  8.00000000E-01  8.50000000E-01  8.50000000E-01  8.50000000E-01
  8.00000000E-01  8.50000000E-01  8.50000000E-01  8.50000000E-01  8.00000000E-01
  8.50000000E-01  8.50000000E-01  8.50000000E-01  8.00000000E-01  8.50000000E-01
  8.50000000E-01  8.50000000E-01  8.00000000E-01  8.50000000E-01  8.50000000E-01
  8.50000000E-01  8.00000000E-01  8.50000000E-01  8.50000000E-01  8.50000000E-01
  8.00000000E-01  8.50000000E-01  8.50000000E-01  8.50000000E-01  8.00000000E-01
  8.50000000E-01  8.50000000E-01  8.50000000E-01  8.00000000E-01  8.50000000E-01
  8.50000000E-01  8.50000000E-01  8.00000000E-01  8.50000000E-01  8.50000000E-01
  8.50000000E-01  8.00000000E-01  8.50000000E-01  8.50000000E-01  8.50000000E-01
  8.00000000E-01  8.50000000E-01  8.50000000E-01  8.50000000E-01  8.00000000E-01
  8.50000000E-01  8.50000000E-01  8.50000000E-01  8.00000000E-01  8.50000000E-01
  8.50000000E-01  8.50000000E-01  8.00000000E-01  8.50000000E-01  8.50000000E-01
  8.50000000E-01  8.00000000E-01  8.50000000E-01  8.50000000E-01  8.50000000E-01
  8.00000000E-01  8.50000000E-01  8.50000000E-01  8.50000000E-01  8.00000000E-01
  8.50000000E-01  8.50000000E-01  8.50000000E-01  8.00000000E-01  8.50000000E-01
  8.50000000E-01  8.50000000E-01  8.00000000E-01  8.50000000E-01  8.50000000E-01
  8.50000000E-01  8.00000000E-01  8.50000000E-01  8.50000000E-01  8.50000000E-01
  8.00000000E-01  8.50000000E-01  8.50000000E-01  8.50000000E-01  8.00000000E-01
  8.50000000E-01  8.50000000E-01  8.50000000E-01  8.00000000E-01  8.50000000E-01
  8.50000000E-01  8.50000000E-01  8.00000000E-01  8.50000000E-01  8.50000000E-01
  8.50000000E-01  8.00000000E-01  8.50000000E-01  8.50000000E-01  8.50000000E-01
  8.00000000E-01  8.50000000E-01  8.50000000E-01  8.50000000E-01  8.00000000E-01
  8.50000000E-01  8.50000000E-01  8.50000000E-01  8.00000000E-01  8.50000000E-01
  8.50000000E-01  8.50000000E-01  8.00000000E-01  8.50000000E-01  8.50000000E-01
  8.50000000E-01  8.00000000E-01  8.50000000E-01  8.50000000E-01  8.50000000E-01
  8.00000000E-01  8.50000000E-01  8.50000000E-01  8.50000000E-01  8.00000000E-01
  8.50000000E-01  8.50000000E-01  8.50000000E-01  8.00000000E-01  8.50000000E-01
  8.50000000E-01  8.50000000E-01  8.00000000E-01  8.50000000E-01  8.50000000E-01
  8.50000000E-01  8.00000000E-01  8.50000000E-01  8.50000000E-01  8.50000000E-01
  8.00000000E-01  8.50000000E-01  8.50000000E-01  8.50000000E-01  8.00000000E-01
  8.50000000E-01  8.50000000E-01  8.50000000E-01  8.00000000E-01  8.50000000E-01
  8.50000000E-01  8.50000000E-01  8.00000000E-01  8.50000000E-01  8.50000000E-01
  8.50000000E-01  8.00000000E-01  8.50000000E-01  8.50000000E-01  8.50000000E-01
  8.00000000E-01  8.50000000E-01  8.50000000E-01  8.50000000E-01  8.00000000E-01
  8.50000000E-01  8.50000000E-01  8.50000000E-01  8.00000000E-01  8.50000000E-01
  8.50000000E-01  8.50000000E-01  8.00000000E-01  8.50000000E-01  8.50000000E-01
  8.50000000E-01  8.00000000E-01  8.50000000E-01  8.50000000E-01  8.50000000E-01
  8.00000000E-01  8.50000000E-01  8.50000000E-01  8.50000000E-01  8.00000000E-01
  8.50000000E-01  8.50000000E-01  8.50000000E-01  8.00000000E-01  8.50000000E-01
  8.50000000E-01  8.50000000E-01  8.00000000E-01  8.50000000E-01  8.50000000E-01
  8.50000000E-01  8.00000000E-01  8.50000000E-01  8.50000000E-01  8.50000000E-01
  8.00000000E-01  8.50000000E-01  8.50000000E-01  8.50000000E-01  8.00000000E-01
  8.50000000E-01  8.50000000E-01  8.50000000E-01  8.00000000E-01  8.50000000E-01
  8.50000000E-01  8.50000000E-01  8.00000000E-01  8.50000000E-01  8.50000000E-01
  8.50000000E-01  8.00000000E-01  8.50000000E-01  8.50000000E-01  8.50000000E-01
  8.00000000E-01  8.50000000E-01  8.50000000E-01  8.50000000E-01  8.00000000E-01
  8.50000000E-01  8.50000000E-01  8.50000000E-01  8.00000000E-01  8.50000000E-01
  8.50000000E-01  8.50000000E-01  8.00000000E-01  8.50000000E-01  8.50000000E-01
  8.50000000E-01  8.00000000E-01  8.50000000E-01  8.50000000E-01  8.50000000E-01
  8.00000000E-01  8.50000000E-01  8.50000000E-01  8.50000000E-01  8.00000000E-01
  8.50000000E-01  8.50000000E-01  8.50000000E-01  8.00000000E-01  8.50000000E-01
  8.50000000E-01  8.50000000E-01  8.00000000E-01  8.50000000E-01  8.50000000E-01
  8.50000000E-01  8.00000000E-01  8.50000000E-01  8.50000000E-01  8.50000000E-01
  8.00000000E-01  8.50000000E-01  8.50000000E-01  8.50000000E-01  8.00000000E-01
  8.50000000E-01  8.50000000E-01  8.50000000E-01  8.00000000E-01  8.50000000E-01
  8.50000000E-01  8.50000000E-01  8.00000000E-01  8.50000000E-01  8.50000000E-01
  8.50000000E-01  8.00000000E-01  8.50000000E-01  8.50000000E-01  8.50000000E-01
  8.00000000E-01  8.50000000E-01  8.50000000E-01  8.50000000E-01  8.00000000E-01
  8.50000000E-01  8.50000000E-01  8.50000000E-01  8.00000000E-01  8.50000000E-01
  8.50000000E-01  8.50000000E-01  8.00000000E-01  8.50000000E-01  8.50000000E-01
  8.50000000E-01  8.00000000E-01  8.50000000E-01  8.50000000E-01  8.50000000E-01
  8.00000000E-01  8.50000000E-01  8.50000000E-01  8.50000000E-01  8.00000000E-01
  8.50000000E-01  8.50000000E-01  8.50000000E-01  8.00000000E-01  8.50000000E-01
  8.50000000E-01  8.50000000E-01  8.00000000E-01  8.50000000E-01  8.50000000E-01
  8.50000000E-01  8.00000000E-01  8.50000000E-01  8.50000000E-01  8.50000000E-01
  8.00000000E-01  8.50000000E-01  8.50000000E-01  8.50000000E-01  8.00000000E-01
  8.50000000E-01  8.50000000E-01  8.50000000E-01  8.00000000E-01  8.50000000E-01
  8.50000000E-01  8.50000000E-01  8.00000000E-01  8.50000000E-01  8.50000000E-01
  8.50000000E-01  8.00000000E-01  8.50000000E-01  8.50000000E-01  8.50000000E-01
  8.00000000E-01  8.50000000E-01  8.50000000E-01  8.50000000E-01  8.00000000E-01
  8.50000000E-01  8.50000000E-01  8.50000000E-01  8.00000000E-01  8.50000000E-01
  8.50000000E-01  8.50000000E-01  8.00000000E-01  8.50000000E-01  8.50000000E-01
  8.50000000E-01  8.00000000E-01  8.50000000E-01  8.50000000E-01  8.50000000E-01
  8.00000000E-01  8.50000000E-01  8.50000000E-01  8.50000000E-01  8.00000000E-01
  8.50000000E-01  8.50000000E-01  8.50000000E-01  8.00000000E-01  8.50000000E-01
  8.50000000E-01  8.50000000E-01  8.00000000E-01  8.50000000E-01  8.50000000E-01
  8.50000000E-01  8.00000000E-01  8.50000000E-01  8.50000000E-01  8.50000000E-01
  8.00000000E-01  8.50000000E-01  8.50000000E-01  8.50000000E-01  8.00000000E-01
  8.50000000E-01  8.50000000E-01  8.50000000E-01  8.00000000E-01  8.50000000E-01
  8.50000000E-01  8.50000000E-01  8.00000000E-01  8.50000000E-01  8.50000000E-01
  8.50000000E-01  8.00000000E-01  8.50000000E-01  8.50000000E-01  8.50000000E-01
  8.00000000E-01  8.50000000E-01  8.50000000E-01  8.50000000E-01  8.00000000E-01
  8.50000000E-01  8.50000000E-01  8.50000000E-01  8.00000000E-01  8.50000000E-01
  8.50000000E-01  8.50000000E-01  8.00000000E-01  8.50000000E-01  8.50000000E-01
  8.50000000E-01  8.00000000E-01  8.50000000E-01  8.50000000E-01  8.50000000E-01
  8.00000000E-01  8.50000000E-01  8.50000000E-01  8.50000000E-01  8.00000000E-01
  8.50000000E-01  8.50000000E-01  8.50000000E-01  8.00000000E-01  8.50000000E-01
  8.50000000E-01  8.50000000E-01  8.00000000E-01  8.50000000E-01  8.50000000E-01
  8.50000000E-01  8.00000000E-01  8.50000000E-01  8.50000000E-01  8.50000000E-01
  8.00000000E-01  8.50000000E-01  8.50000000E-01  8.50000000E-01  8.00000000E-01
  8.50000000E-01  8.50000000E-01  8.50000000E-01  8.00000000E-01  8.50000000E-01
  8.50000000E-01  8.50000000E-01  8.00000000E-01  8.50000000E-01  8.50000000E-01
  8.50000000E-01  8.00000000E-01  8.50000000E-01  8.50000000E-01  8.50000000E-01
  8.00000000E-01  8.50000000E-01  8.50000000E-01  8.50000000E-01  8.00000000E-01
  8.50000000E-01  8.50000000E-01  8.50000000E-01  8.00000000E-01  8.50000000E-01
  8.50000000E-01  8.50000000E-01  8.00000000E-01  8.50000000E-01  8.50000000E-01
  8.50000000E-01  8.00000000E-01  8.50000000E-01  8.50000000E-01  8.50000000E-01
  8.00000000E-01  8.50000000E-01  8.50000000E-01  8.50000000E-01  8.00000000E-01
  8.50000000E-01  8.50000000E-01  8.50000000E-01  8.00000000E-01  8.50000000E-01
  8.50000000E-01  8.50000000E-01  8.00000000E-01  8.50000000E-01  8.50000000E-01
  8.50000000E-01  8.00000000E-01  8.50000000E-01  8.50000000E-01  8.50000000E-01
  8.00000000E-01  8.50000000E-01  8.50000000E-01  8.50000000E-01  8.00000000E-01
  8.50000000E-01  8.50000000E-01  8.50000000E-01  8.00000000E-01  8.50000000E-01
  8.50000000E-01  8.50000000E-01  8.00000000E-01  8.50000000E-01  8.50000000E-01
  8.50000000E-01  8.00000000E-01  8.50000000E-01  8.50000000E-01  8.50000000E-01
  8.00000000E-01  8.50000000E-01  8.50000000E-01  8.50000000E-01  8.00000000E-01
  8.50000000E-01  8.50000000E-01  8.50000000E-01  8.00000000E-01  8.50000000E-01
  8.50000000E-01  8.50000000E-01  8.00000000E-01  8.50000000E-01  8.50000000E-01
  8.50000000E-01  8.00000000E-01  8.50000000E-01  8.50000000E-01  8.50000000E-01
  8.00000000E-01  8.50000000E-01  8.50000000E-01  8.50000000E-01  8.00000000E-01
  8.50000000E-01  8.50000000E-01  8.50000000E-01  8.00000000E-01  8.50000000E-01
  8.50000000E-01  8.50000000E-01  8.00000000E-01  8.50000000E-01  8.50000000E-01
  8.50000000E-01  8.00000000E-01  8.50000000E-01  8.50000000E-01  8.50000000E-01
  8.00000000E-01  8.50000000E-01  8.50000000E-01  8.50000000E-01  8.00000000E-01
  8.50000000E-01  8.50000000E-01  8.50000000E-01  8.00000000E-01  8.50000000E-01
  8.50000000E-01  8.50000000E-01  8.00000000E-01  8.50000000E-01  8.50000000E-01
  8.50000000E-01  8.00000000E-01  8.50000000E-01  8.50000000E-01  8.50000000E-01
  8.00000000E-01  8.50000000E-01  8.50000000E-01  8.50000000E-01  8.00000000E-01
  8.50000000E-01  8.50000000E-01  8.50000000E-01  8.00000000E-01  8.50000000E-01
  8.50000000E-01  8.50000000E-01  8.00000000E-01  8.50000000E-01  8.50000000E-01
  8.50000000E-01  8.00000000E-01  8.50000000E-01  8.50000000E-01  8.50000000E-01
  8.00000000E-01  8.50000000E-01  8.50000000E-01  8.50000000E-01  8.00000000E-01
  8.50000000E-01  8.50000000E-01  8.50000000E-01  8.00000000E-01  8.50000000E-01
  8.50000000E-01  8.50000000E-01  8.00000000E-01  8.50000000E-01  8.50000000E-01
  8.50000000E-01  8.00000000E-01  8.50000000E-01  8.50000000E-01  8.50000000E-01
  8.00000000E-01  8.50000000E-01  8.50000000E-01  8.50000000E-01  8.00000000E-01
  8.50000000E-01  8.50000000E-01  8.50000000E-01  8.00000000E-01  8.50000000E-01
  8.50000000E-01  8.50000000E-01  8.00000000E-01  8.50000000E-01  8.50000000E-01
  8.50000000E-01  8.00000000E-01  8.50000000E-01  8.50000000E-01  8.50000000E-01
  8.00000000E-01  8.50000000E-01  8.50000000E-01  8.50000000E-01  8.00000000E-01
  8.50000000E-01  8.50000000E-01  8.50000000E-01  8.00000000E-01  8.50000000E-01
  8.50000000E-01  8.50000000E-01  8.00000000E-01  8.50000000E-01  8.50000000E-01
  8.50000000E-01  8.00000000E-01  8.50000000E-01  8.50000000E-01  8.50000000E-01
  8.00000000E-01  8.50000000E-01  8.50000000E-01  8.50000000E-01  8.00000000E-01
  8.50000000E-01  8.50000000E-01  8.50000000E-01  8.00000000E-01  8.50000000E-01
  8.50000000E-01  8.50000000E-01  8.00000000E-01  8.50000000E-01  8.50000000E-01
  8.50000000E-01  8.00000000E-01  8.50000000E-01  8.50000000E-01  8.50000000E-01
  8.00000000E-01  8.50000000E-01  8.50000000E-01  8.50000000E-01  8.00000000E-01
  8.50000000E-01  8.50000000E-01  8.50000000E-01  8.00000000E-01  8.50000000E-01
  8.50000000E-01  8.50000000E-01  8.00000000E-01  8.50000000E-01  8.50000000E-01
  8.50000000E-01  8.00000000E-01  8.50000000E-01  8.50000000E-01  8.50000000E-01
  8.00000000E-01  8.50000000E-01  8.50000000E-01  8.50000000E-01  8.00000000E-01
  8.50000000E-01  8.50000000E-01  8.50000000E-01  8.00000000E-01  8.50000000E-01
  8.50000000E-01  8.50000000E-01  8.00000000E-01  8.50000000E-01  8.50000000E-01
  8.50000000E-01  8.00000000E-01  8.50000000E-01  8.50000000E-01  8.50000000E-01
  8.00000000E-01  8.50000000E-01  8.50000000E-01  8.50000000E-01  8.00000000E-01
  8.50000000E-01  8.50000000E-01  8.50000000E-01  8.00000000E-01  8.50000000E-01
  8.50000000E-01  8.50000000E-01  8.00000000E-01  8.50000000E-01  8.50000000E-01
  8.50000000E-01  8.00000000E-01  8.50000000E-01  8.50000000E-01  8.50000000E-01
  8.00000000E-01  8.50000000E-01  8.50000000E-01  8.50000000E-01  8.00000000E-01
  8.50000000E-01  8.50000000E-01  8.50000000E-01  8.00000000E-01  8.50000000E-01
  8.50000000E-01  8.50000000E-01  8.00000000E-01  8.50000000E-01  8.50000000E-01
  8.50000000E-01  8.00000000E-01  8.50000000E-01  8.50000000E-01  8.50000000E-01
  8.00000000E-01  8.50000000E-01  8.50000000E-01  8.50000000E-01  8.00000000E-01
  8.50000000E-01  8.50000000E-01  8.50000000E-01  8.00000000E-01  8.50000000E-01
  8.50000000E-01  8.50000000E-01  8.00000000E-01  8.50000000E-01  8.50000000E-01
  8.50000000E-01  8.00000000E-01  8.50000000E-01  8.50000000E-01  8.50000000E-01
  8.00000000E-01  8.50000000E-01  8.50000000E-01  8.50000000E-01  8.00000000E-01
  8.50000000E-01  8.50000000E-01  8.50000000E-01  8.00000000E-01  8.50000000E-01
  8.50000000E-01  8.50000000E-01  8.00000000E-01  8.50000000E-01  8.50000000E-01
  8.50000000E-01  8.00000000E-01  8.50000000E-01  8.50000000E-01  8.50000000E-01
  8.00000000E-01  8.50000000E-01  8.50000000E-01  8.50000000E-01  8.00000000E-01
  8.50000000E-01  8.50000000E-01  8.50000000E-01  8.00000000E-01  8.50000000E-01
  8.50000000E-01  8.50000000E-01  8.00000000E-01  8.50000000E-01  8.50000000E-01
  8.50000000E-01  8.00000000E-01  8.50000000E-01  8.50000000E-01  8.50000000E-01
  8.00000000E-01  8.50000000E-01  8.50000000E-01  8.50000000E-01  8.00000000E-01
  8.50000000E-01  8.50000000E-01  8.50000000E-01  8.00000000E-01  8.50000000E-01
  8.50000000E-01  8.50000000E-01  8.00000000E-01  8.50000000E-01  8.50000000E-01
  8.50000000E-01  8.00000000E-01  8.50000000E-01  8.50000000E-01  8.50000000E-01
  8.00000000E-01  8.50000000E-01  8.50000000E-01  8.50000000E-01  8.00000000E-01
  8.50000000E-01  8.50000000E-01  8.50000000E-01  8.00000000E-01  8.50000000E-01
  8.50000000E-01  8.50000000E-01  8.00000000E-01  8.50000000E-01  8.50000000E-01
  8.50000000E-01  8.00000000E-01  8.50000000E-01  8.50000000E-01  8.50000000E-01
  8.00000000E-01  8.50000000E-01  8.50000000E-01  8.50000000E-01  8.00000000E-01
  8.50000000E-01  8.50000000E-01  8.50000000E-01  8.00000000E-01  8.50000000E-01
  8.50000000E-01  8.50000000E-01  8.00000000E-01  8.50000000E-01  8.50000000E-01
  8.50000000E-01  8.00000000E-01  8.50000000E-01  8.50000000E-01  8.50000000E-01
  8.00000000E-01  8.50000000E-01  8.50000000E-01  8.50000000E-01  8.00000000E-01
  8.50000000E-01  8.50000000E-01  8.50000000E-01  8.00000000E-01  8.50000000E-01
  8.50000000E-01  8.50000000E-01  8.00000000E-01  8.50000000E-01  8.50000000E-01
  8.50000000E-01  8.00000000E-01  8.50000000E-01  8.50000000E-01  8.50000000E-01
  8.00000000E-01  8.50000000E-01  8.50000000E-01  8.50000000E-01  8.00000000E-01
  8.50000000E-01  8.50000000E-01  8.50000000E-01  8.00000000E-01  8.50000000E-01
  8.50000000E-01  8.50000000E-01  8.00000000E-01  8.50000000E-01  8.50000000E-01
  8.50000000E-01  8.00000000E-01  8.50000000E-01  8.50000000E-01  8.50000000E-01
  8.00000000E-01  8.50000000E-01  8.50000000E-01  8.50000000E-01  8.00000000E-01
  8.50000000E-01  8.50000000E-01  8.50000000E-01  8.00000000E-01  8.50000000E-01
  8.50000000E-01  8.50000000E-01  8.00000000E-01  8.50000000E-01  8.50000000E-01
  8.50000000E-01  8.00000000E-01  8.50000000E-01  8.50000000E-01  8.50000000E-01
  8.00000000E-01  8.50000000E-01  8.50000000E-01  8.50000000E-01  8.00000000E-01
  8.50000000E-01  8.50000000E-01  8.50000000E-01  8.00000000E-01  8.50000000E-01
  8.50000000E-01  8.50000000E-01  8.00000000E-01  8.50000000E-01  8.50000000E-01
  8.50000000E-01  8.00000000E-01  8.50000000E-01  8.50000000E-01  8.50000000E-01
  8.00000000E-01  8.50000000E-01  8.50000000E-01  8.50000000E-01  8.00000000E-01
  8.50000000E-01  8.50000000E-01  8.50000000E-01  8.00000000E-01  8.50000000E-01
  8.50000000E-01  8.50000000E-01  8.00000000E-01  8.50000000E-01  8.50000000E-01
  8.50000000E-01  8.00000000E-01  8.50000000E-01  8.50000000E-01  8.50000000E-01
  8.00000000E-01  8.50000000E-01  8.50000000E-01  8.50000000E-01  8.00000000E-01
  8.50000000E-01  8.50000000E-01  8.50000000E-01  8.00000000E-01  8.50000000E-01
  8.50000000E-01  8.50000000E-01  8.00000000E-01  8.50000000E-01  8.50000000E-01
  8.50000000E-01  8.00000000E-01  8.50000000E-01  8.50000000E-01  8.50000000E-01
  8.00000000E-01  8.50000000E-01  8.50000000E-01  8.50000000E-01  8.00000000E-01
  8.50000000E-01  8.50000000E-01  8.50000000E-01  8.00000000E-01  8.50000000E-01
  8.50000000E-01  8.50000000E-01  8.00000000E-01  8.50000000E-01  8.50000000E-01
  8.50000000E-01  8.00000000E-01  8.50000000E-01  8.50000000E-01  8.50000000E-01
  8.00000000E-01  8.50000000E-01  8.50000000E-01  8.50000000E-01  8.00000000E-01
  8.50000000E-01  8.50000000E-01  8.50000000E-01  8.00000000E-01  8.50000000E-01
  8.50000000E-01  8.50000000E-01  8.00000000E-01  8.50000000E-01  8.50000000E-01
  8.50000000E-01  8.00000000E-01  8.50000000E-01  8.50000000E-01  8.50000000E-01
  8.00000000E-01  8.50000000E-01  8.50000000E-01  8.50000000E-01  8.00000000E-01
  8.50000000E-01  8.50000000E-01  8.50000000E-01  8.00000000E-01  8.50000000E-01
  8.50000000E-01  8.50000000E-01  8.00000000E-01  8.50000000E-01  8.50000000E-01
  8.50000000E-01  8.00000000E-01  8.50000000E-01  8.50000000E-01  8.50000000E-01
  8.00000000E-01  8.50000000E-01  8.50000000E-01  8.50000000E-01  8.00000000E-01
  8.50000000E-01  8.50000000E-01  8.50000000E-01  8.00000000E-01  8.50000000E-01
  8.50000000E-01  8.50000000E-01  8.00000000E-01  8.50000000E-01  8.50000000E-01
  8.50000000E-01  8.00000000E-01  8.50000000E-01  8.50000000E-01  8.50000000E-01
  8.00000000E-01  8.50000000E-01  8.50000000E-01  8.50000000E-01  8.00000000E-01
  8.50000000E-01  8.50000000E-01  8.50000000E-01  8.00000000E-01  8.50000000E-01
  8.50000000E-01  8.50000000E-01  8.00000000E-01  8.50000000E-01  8.50000000E-01
  8.50000000E-01  8.00000000E-01  8.50000000E-01  8.50000000E-01  8.50000000E-01
  8.00000000E-01  8.50000000E-01  8.50000000E-01  8.50000000E-01  8.00000000E-01
  8.50000000E-01  8.50000000E-01  8.50000000E-01  8.00000000E-01  8.50000000E-01
  8.50000000E-01  8.50000000E-01  8.00000000E-01  8.50000000E-01  8.50000000E-01
  8.50000000E-01  8.00000000E-01  8.50000000E-01  8.50000000E-01  8.50000000E-01
  8.00000000E-01  8.50000000E-01  8.50000000E-01  8.50000000E-01  8.00000000E-01
  8.50000000E-01  8.50000000E-01  8.50000000E-01  8.00000000E-01  8.50000000E-01
  8.50000000E-01  8.50000000E-01  8.00000000E-01  8.50000000E-01  8.50000000E-01
  8.50000000E-01  8.00000000E-01  8.50000000E-01  8.50000000E-01  8.50000000E-01
  8.00000000E-01  8.50000000E-01  8.50000000E-01  8.50000000E-01  8.00000000E-01
  8.50000000E-01  8.50000000E-01  8.50000000E-01  8.00000000E-01  8.50000000E-01
  8.50000000E-01  8.50000000E-01  8.00000000E-01  8.50000000E-01  8.50000000E-01
  8.50000000E-01  8.00000000E-01  8.50000000E-01  8.50000000E-01  8.50000000E-01
  8.00000000E-01  8.50000000E-01  8.50000000E-01  8.50000000E-01  8.00000000E-01
  8.50000000E-01  8.50000000E-01  8.50000000E-01  8.00000000E-01  8.50000000E-01
  8.50000000E-01  8.50000000E-01  8.00000000E-01  8.50000000E-01  8.50000000E-01
  8.50000000E-01  8.00000000E-01  8.50000000E-01  8.50000000E-01  8.50000000E-01
  8.00000000E-01  8.50000000E-01  8.50000000E-01  8.50000000E-01  8.00000000E-01
  8.50000000E-01  8.50000000E-01  8.50000000E-01  8.00000000E-01  8.50000000E-01
  8.50000000E-01  8.50000000E-01  8.00000000E-01  8.50000000E-01  8.50000000E-01
  8.50000000E-01  8.00000000E-01  8.50000000E-01  8.50000000E-01  8.50000000E-01
  8.00000000E-01  8.50000000E-01  8.50000000E-01  8.50000000E-01  8.00000000E-01
  8.50000000E-01  8.50000000E-01  8.50000000E-01  8.00000000E-01  8.50000000E-01
  8.50000000E-01  8.50000000E-01  8.00000000E-01  8.50000000E-01  8.50000000E-01
  8.50000000E-01  8.00000000E-01  8.50000000E-01  8.50000000E-01  8.50000000E-01
  8.00000000E-01  8.50000000E-01  8.50000000E-01  8.50000000E-01  8.00000000E-01
  8.50000000E-01  8.50000000E-01  8.50000000E-01  8.00000000E-01  8.50000000E-01
  8.50000000E-01  8.50000000E-01  8.00000000E-01  8.50000000E-01  8.50000000E-01
  8.50000000E-01  8.00000000E-01  8.50000000E-01  8.50000000E-01  8.50000000E-01
  8.00000000E-01  8.50000000E-01  8.50000000E-01  8.50000000E-01  8.00000000E-01
  8.50000000E-01  8.50000000E-01  8.50000000E-01  8.00000000E-01  8.50000000E-01
  8.50000000E-01  8.50000000E-01  8.00000000E-01  8.50000000E-01  8.50000000E-01
  8.50000000E-01  8.00000000E-01  8.50000000E-01  8.50000000E-01  8.50000000E-01
  8.00000000E-01  8.50000000E-01  8.50000000E-01  8.50000000E-01  8.00000000E-01
  8.50000000E-01  8.50000000E-01  8.50000000E-01  8.00000000E-01  8.50000000E-01
  8.50000000E-01  8.50000000E-01  8.00000000E-01  8.50000000E-01  8.50000000E-01
  8.50000000E-01  8.00000000E-01  8.50000000E-01  8.50000000E-01  8.50000000E-01
  8.00000000E-01  8.50000000E-01  8.50000000E-01  8.50000000E-01  8.00000000E-01
  8.50000000E-01  8.50000000E-01  8.50000000E-01  8.00000000E-01  8.50000000E-01
  8.50000000E-01  8.50000000E-01  8.00000000E-01  8.50000000E-01  8.50000000E-01
  8.50000000E-01  8.00000000E-01  8.50000000E-01  8.50000000E-01  8.50000000E-01
  8.00000000E-01  8.50000000E-01  8.50000000E-01  8.50000000E-01  8.00000000E-01
  8.50000000E-01  8.50000000E-01  8.50000000E-01  8.00000000E-01  8.50000000E-01
  8.50000000E-01  8.50000000E-01  8.00000000E-01  8.50000000E-01  8.50000000E-01
  8.50000000E-01  8.00000000E-01  8.50000000E-01  8.50000000E-01  8.50000000E-01
  8.00000000E-01  8.50000000E-01  8.50000000E-01  8.50000000E-01  8.00000000E-01
  8.50000000E-01  8.50000000E-01  8.50000000E-01  8.00000000E-01  8.50000000E-01
  8.50000000E-01  8.50000000E-01  8.00000000E-01  8.50000000E-01  8.50000000E-01
  8.50000000E-01  8.00000000E-01  8.50000000E-01  8.50000000E-01  8.50000000E-01
  8.00000000E-01  8.50000000E-01  8.50000000E-01  8.50000000E-01  8.00000000E-01
  8.50000000E-01  8.50000000E-01  8.50000000E-01  8.00000000E-01  8.50000000E-01
  8.50000000E-01  8.50000000E-01  8.00000000E-01  8.50000000E-01  8.50000000E-01
  8.50000000E-01  8.00000000E-01  8.50000000E-01  8.50000000E-01  8.50000000E-01
  8.00000000E-01  8.50000000E-01  8.50000000E-01  8.50000000E-01  8.00000000E-01
  8.50000000E-01  8.50000000E-01  8.50000000E-01  8.00000000E-01  8.50000000E-01
  8.50000000E-01  8.50000000E-01  8.00000000E-01  8.50000000E-01  8.50000000E-01
  8.50000000E-01  8.00000000E-01  8.50000000E-01  8.50000000E-01  8.50000000E-01
  8.00000000E-01  8.50000000E-01  8.50000000E-01  8.50000000E-01  8.00000000E-01
  8.50000000E-01  8.50000000E-01  8.50000000E-01  8.00000000E-01  8.50000000E-01
  8.50000000E-01  8.50000000E-01  8.00000000E-01  8.50000000E-01  8.50000000E-01
  8.50000000E-01  8.00000000E-01  8.50000000E-01  8.50000000E-01  8.50000000E-01
  8.00000000E-01  8.50000000E-01  8.50000000E-01  8.50000000E-01  8.00000000E-01
  8.50000000E-01  8.50000000E-01  8.50000000E-01  8.00000000E-01  8.50000000E-01
  8.50000000E-01  8.50000000E-01  8.00000000E-01  8.50000000E-01  8.50000000E-01
  8.50000000E-01  8.00000000E-01  8.50000000E-01  8.50000000E-01  8.50000000E-01
  8.00000000E-01  8.50000000E-01  8.50000000E-01  8.50000000E-01  8.00000000E-01
  8.50000000E-01  8.50000000E-01  8.50000000E-01  8.00000000E-01  8.50000000E-01
  8.50000000E-01  8.50000000E-01  8.00000000E-01  8.50000000E-01  8.50000000E-01
  8.50000000E-01  8.00000000E-01  8.50000000E-01  8.50000000E-01  8.50000000E-01
  8.00000000E-01  8.50000000E-01  8.50000000E-01  8.50000000E-01  8.00000000E-01
  8.50000000E-01  8.50000000E-01  8.50000000E-01  8.00000000E-01  8.50000000E-01
  8.50000000E-01  8.50000000E-01  8.00000000E-01  8.50000000E-01  8.50000000E-01
  8.50000000E-01  8.00000000E-01  8.50000000E-01  8.50000000E-01  8.50000000E-01
  8.00000000E-01  8.50000000E-01  8.50000000E-01  8.50000000E-01  8.00000000E-01
  8.50000000E-01  8.50000000E-01  8.50000000E-01  8.00000000E-01  8.50000000E-01
  8.50000000E-01  8.50000000E-01  8.00000000E-01  8.50000000E-01  8.50000000E-01
  8.50000000E-01  8.00000000E-01  8.50000000E-01  8.50000000E-01  8.50000000E-01
  8.00000000E-01  8.50000000E-01  8.50000000E-01  8.50000000E-01  8.00000000E-01
  8.50000000E-01  8.50000000E-01  8.50000000E-01  8.00000000E-01  8.50000000E-01
  8.50000000E-01  8.50000000E-01  8.00000000E-01  8.50000000E-01  8.50000000E-01
  8.50000000E-01  8.00000000E-01  8.50000000E-01  8.50000000E-01  8.50000000E-01
  8.00000000E-01  8.50000000E-01  8.50000000E-01  8.50000000E-01  8.00000000E-01
  8.50000000E-01  8.50000000E-01  8.50000000E-01  8.00000000E-01  8.50000000E-01
  8.50000000E-01  8.50000000E-01  8.00000000E-01  8.50000000E-01  8.50000000E-01
  8.50000000E-01  8.00000000E-01  8.50000000E-01  8.50000000E-01  8.50000000E-01
  8.00000000E-01  8.50000000E-01  8.50000000E-01  8.50000000E-01  8.00000000E-01
  8.50000000E-01  8.50000000E-01  8.50000000E-01  8.00000000E-01  8.50000000E-01
  8.50000000E-01  8.50000000E-01  8.00000000E-01  8.50000000E-01  8.50000000E-01
  8.50000000E-01  8.00000000E-01  8.50000000E-01  8.50000000E-01  8.50000000E-01
  8.00000000E-01  8.50000000E-01  8.50000000E-01  8.50000000E-01  8.00000000E-01
  8.50000000E-01  8.50000000E-01  8.50000000E-01  8.00000000E-01  8.50000000E-01
  8.50000000E-01  8.50000000E-01  8.00000000E-01  8.50000000E-01  8.50000000E-01
  8.50000000E-01  8.00000000E-01  8.50000000E-01  8.50000000E-01  8.50000000E-01
  8.00000000E-01  8.50000000E-01  8.50000000E-01  8.50000000E-01  8.00000000E-01
  8.50000000E-01  8.50000000E-01  8.50000000E-01  8.00000000E-01  8.50000000E-01
  8.50000000E-01  8.50000000E-01  8.00000000E-01  8.50000000E-01  8.50000000E-01
  8.50000000E-01  8.00000000E-01  8.50000000E-01  8.50000000E-01  8.50000000E-01
  8.00000000E-01  8.50000000E-01  8.50000000E-01  8.50000000E-01  8.00000000E-01
  8.50000000E-01  8.50000000E-01  8.50000000E-01  8.00000000E-01  8.50000000E-01
  8.50000000E-01  8.50000000E-01  8.00000000E-01  8.50000000E-01  8.50000000E-01
  8.50000000E-01  8.00000000E-01  8.50000000E-01  8.50000000E-01  8.50000000E-01
  8.00000000E-01  8.50000000E-01  8.50000000E-01  8.50000000E-01  8.00000000E-01
  8.50000000E-01  8.50000000E-01  8.50000000E-01  8.00000000E-01  8.50000000E-01
  8.50000000E-01  8.50000000E-01  8.00000000E-01  8.50000000E-01  8.50000000E-01
  8.50000000E-01  8.00000000E-01  8.50000000E-01  8.50000000E-01  8.50000000E-01
  8.00000000E-01  8.50000000E-01  8.50000000E-01  8.50000000E-01  8.00000000E-01
  8.50000000E-01  8.50000000E-01  8.50000000E-01  8.00000000E-01  8.50000000E-01
  8.50000000E-01  8.50000000E-01  8.00000000E-01  8.50000000E-01  8.50000000E-01
  8.50000000E-01  8.00000000E-01  8.50000000E-01  8.50000000E-01  8.50000000E-01
  8.00000000E-01  8.50000000E-01  8.50000000E-01  8.50000000E-01  8.00000000E-01
  8.50000000E-01  8.50000000E-01  8.50000000E-01  8.00000000E-01  8.50000000E-01
  8.50000000E-01  8.50000000E-01  8.00000000E-01  8.50000000E-01  8.50000000E-01
  8.50000000E-01  8.00000000E-01  8.50000000E-01  8.50000000E-01  8.50000000E-01
  8.00000000E-01  8.50000000E-01  8.50000000E-01  8.50000000E-01  8.00000000E-01
  8.50000000E-01  8.50000000E-01  8.50000000E-01  8.00000000E-01  8.50000000E-01
  8.50000000E-01  8.50000000E-01  8.00000000E-01  8.50000000E-01  8.50000000E-01
  8.50000000E-01  8.00000000E-01  8.50000000E-01  8.50000000E-01  8.50000000E-01
  8.00000000E-01  8.50000000E-01  8.50000000E-01  8.50000000E-01  8.00000000E-01
  8.50000000E-01  8.50000000E-01  8.50000000E-01  8.00000000E-01  8.50000000E-01
  8.50000000E-01  8.50000000E-01  8.00000000E-01  8.50000000E-01  8.50000000E-01
  8.50000000E-01  8.00000000E-01  8.50000000E-01  8.50000000E-01  8.50000000E-01
  8.00000000E-01  8.50000000E-01  8.50000000E-01  8.50000000E-01  8.00000000E-01
  8.50000000E-01  8.50000000E-01  8.50000000E-01  8.00000000E-01  8.50000000E-01
  8.50000000E-01  8.50000000E-01  8.00000000E-01  8.50000000E-01  8.50000000E-01
  8.50000000E-01  8.00000000E-01  8.50000000E-01  8.50000000E-01  8.50000000E-01
  8.00000000E-01  8.50000000E-01  8.50000000E-01  8.50000000E-01  8.00000000E-01
  8.50000000E-01  8.50000000E-01  8.50000000E-01  8.00000000E-01  8.50000000E-01
  8.50000000E-01  8.50000000E-01  8.00000000E-01  8.50000000E-01  8.50000000E-01
  8.50000000E-01  8.00000000E-01  8.50000000E-01  8.50000000E-01  8.50000000E-01
  8.00000000E-01  8.50000000E-01  8.50000000E-01  8.50000000E-01  8.00000000E-01
  8.50000000E-01  8.50000000E-01  8.50000000E-01  8.00000000E-01  8.50000000E-01
  8.50000000E-01  8.50000000E-01  8.00000000E-01  8.50000000E-01  8.50000000E-01
  8.50000000E-01  8.00000000E-01  8.50000000E-01  8.50000000E-01  8.50000000E-01
  8.00000000E-01  8.50000000E-01  8.50000000E-01  8.50000000E-01  8.00000000E-01
  8.50000000E-01  8.50000000E-01  8.50000000E-01  8.00000000E-01  8.50000000E-01
  8.50000000E-01  8.50000000E-01  8.00000000E-01  8.50000000E-01  8.50000000E-01
  8.50000000E-01  8.00000000E-01  8.50000000E-01  8.50000000E-01  8.50000000E-01
  8.00000000E-01  8.50000000E-01  8.50000000E-01  8.50000000E-01  8.00000000E-01
  8.50000000E-01  8.50000000E-01  8.50000000E-01  8.00000000E-01  8.50000000E-01
  8.50000000E-01  8.50000000E-01  8.00000000E-01  8.50000000E-01  8.50000000E-01
  8.50000000E-01  8.00000000E-01  8.50000000E-01  8.50000000E-01  8.50000000E-01
  8.00000000E-01  8.50000000E-01  8.50000000E-01  8.50000000E-01  8.00000000E-01
  8.50000000E-01  8.50000000E-01  8.50000000E-01  8.00000000E-01  8.50000000E-01
  8.50000000E-01  8.50000000E-01  8.00000000E-01  8.50000000E-01  8.50000000E-01
  8.50000000E-01  8.00000000E-01  8.50000000E-01  8.50000000E-01  8.50000000E-01
  8.00000000E-01  8.50000000E-01  8.50000000E-01  8.50000000E-01  8.00000000E-01
  8.50000000E-01  8.50000000E-01  8.50000000E-01  8.00000000E-01  8.50000000E-01
  8.50000000E-01  8.50000000E-01  8.00000000E-01  8.50000000E-01  8.50000000E-01
  8.50000000E-01  8.00000000E-01  8.50000000E-01  8.50000000E-01  8.50000000E-01
  8.00000000E-01  8.50000000E-01  8.50000000E-01  8.50000000E-01  8.00000000E-01
  8.50000000E-01  8.50000000E-01  8.50000000E-01  8.00000000E-01  8.50000000E-01
  8.50000000E-01  8.50000000E-01  8.00000000E-01  8.50000000E-01  8.50000000E-01
  8.50000000E-01  8.00000000E-01  8.50000000E-01  8.50000000E-01  8.50000000E-01
  8.00000000E-01  8.50000000E-01  8.50000000E-01  8.50000000E-01  8.00000000E-01
  8.50000000E-01  8.50000000E-01  8.50000000E-01  8.00000000E-01  8.50000000E-01
  8.50000000E-01  8.50000000E-01  8.00000000E-01  8.50000000E-01  8.50000000E-01
  8.50000000E-01  8.00000000E-01  8.50000000E-01  8.50000000E-01  8.50000000E-01
  8.00000000E-01  8.50000000E-01  8.50000000E-01  8.50000000E-01  8.00000000E-01
  8.50000000E-01  8.50000000E-01  8.50000000E-01  8.00000000E-01  8.50000000E-01
  8.50000000E-01  8.50000000E-01  8.00000000E-01  8.50000000E-01  8.50000000E-01
  8.50000000E-01  8.00000000E-01  8.50000000E-01  8.50000000E-01  8.50000000E-01
  8.00000000E-01  8.50000000E-01  8.50000000E-01  8.50000000E-01  8.00000000E-01
  8.50000000E-01  8.50000000E-01  8.50000000E-01  8.00000000E-01  8.50000000E-01
  8.50000000E-01  8.50000000E-01  8.00000000E-01  8.50000000E-01  8.50000000E-01
  8.50000000E-01  8.00000000E-01  8.50000000E-01  8.50000000E-01  8.50000000E-01
  8.00000000E-01  8.50000000E-01  8.50000000E-01  8.50000000E-01  8.00000000E-01
  8.50000000E-01  8.50000000E-01  8.50000000E-01  8.00000000E-01  8.50000000E-01
  8.50000000E-01  8.50000000E-01  8.00000000E-01  8.50000000E-01  8.50000000E-01
  8.50000000E-01  8.00000000E-01  8.50000000E-01  8.50000000E-01  8.50000000E-01
  8.00000000E-01  8.50000000E-01  8.50000000E-01  8.50000000E-01  8.00000000E-01
  8.50000000E-01  8.50000000E-01  8.50000000E-01  8.00000000E-01  8.50000000E-01
  8.50000000E-01  8.50000000E-01  8.00000000E-01  8.50000000E-01  8.50000000E-01
  8.50000000E-01  8.00000000E-01  8.50000000E-01  8.50000000E-01  8.50000000E-01
  8.00000000E-01  8.50000000E-01  8.50000000E-01  8.50000000E-01  8.00000000E-01
  8.50000000E-01  8.50000000E-01  8.50000000E-01  8.00000000E-01  8.50000000E-01
  8.50000000E-01  8.50000000E-01  8.00000000E-01  8.50000000E-01  8.50000000E-01
  8.50000000E-01  8.00000000E-01  8.50000000E-01  8.50000000E-01  8.50000000E-01
  8.00000000E-01  8.50000000E-01  8.50000000E-01  8.50000000E-01  8.00000000E-01
  8.50000000E-01  8.50000000E-01  8.50000000E-01  8.00000000E-01  8.50000000E-01
  8.50000000E-01  8.50000000E-01  8.00000000E-01  8.50000000E-01  8.50000000E-01
  8.50000000E-01  8.00000000E-01  8.50000000E-01  8.50000000E-01  8.50000000E-01
  8.00000000E-01  8.50000000E-01  8.50000000E-01  8.50000000E-01  8.00000000E-01
  8.50000000E-01  8.50000000E-01  8.50000000E-01  8.00000000E-01  8.50000000E-01
  8.50000000E-01  8.50000000E-01  8.00000000E-01  8.50000000E-01  8.50000000E-01
  8.50000000E-01  8.00000000E-01  8.50000000E-01  8.50000000E-01  8.50000000E-01
  8.00000000E-01  8.50000000E-01  8.50000000E-01  8.50000000E-01  8.00000000E-01
  8.50000000E-01  8.50000000E-01  8.50000000E-01  8.00000000E-01  8.50000000E-01
  8.50000000E-01  8.50000000E-01  8.00000000E-01  8.50000000E-01  8.50000000E-01
  8.50000000E-01  8.00000000E-01  8.50000000E-01  8.50000000E-01  8.50000000E-01
  8.00000000E-01  8.50000000E-01  8.50000000E-01  8.50000000E-01  8.00000000E-01
  8.50000000E-01  8.50000000E-01  8.50000000E-01  8.00000000E-01  8.50000000E-01
  8.50000000E-01  8.50000000E-01  8.00000000E-01  8.50000000E-01  8.50000000E-01
  8.50000000E-01  8.00000000E-01  8.50000000E-01  8.50000000E-01  8.50000000E-01
  8.00000000E-01  8.50000000E-01  8.50000000E-01  8.50000000E-01  8.00000000E-01
  8.50000000E-01  8.50000000E-01  8.50000000E-01  8.00000000E-01  8.50000000E-01
  8.50000000E-01  8.50000000E-01  8.00000000E-01  8.50000000E-01  8.50000000E-01
  8.50000000E-01  8.00000000E-01  8.50000000E-01  8.50000000E-01  8.50000000E-01
  8.00000000E-01  8.50000000E-01  8.50000000E-01  8.50000000E-01  8.00000000E-01
  8.50000000E-01  8.50000000E-01  8.50000000E-01  8.00000000E-01  8.50000000E-01
  8.50000000E-01  8.50000000E-01  8.00000000E-01  8.50000000E-01  8.50000000E-01
  8.50000000E-01  8.00000000E-01  8.50000000E-01  8.50000000E-01  8.50000000E-01
  8.00000000E-01  8.50000000E-01  8.50000000E-01  8.50000000E-01  8.00000000E-01
  8.50000000E-01  8.50000000E-01  8.50000000E-01  8.00000000E-01  8.50000000E-01
  8.50000000E-01  8.50000000E-01  8.00000000E-01  8.50000000E-01  8.50000000E-01
  8.50000000E-01  8.00000000E-01  8.50000000E-01  8.50000000E-01  8.50000000E-01
  8.00000000E-01  8.50000000E-01  8.50000000E-01  8.50000000E-01  8.00000000E-01
  8.50000000E-01  8.50000000E-01  8.50000000E-01  8.00000000E-01  8.50000000E-01
  8.50000000E-01  8.50000000E-01  8.00000000E-01  8.50000000E-01  8.50000000E-01
  8.50000000E-01  8.00000000E-01  8.50000000E-01  8.50000000E-01  8.50000000E-01
  8.00000000E-01  8.50000000E-01  8.50000000E-01  8.50000000E-01  8.00000000E-01
  8.50000000E-01  8.50000000E-01  8.50000000E-01  8.00000000E-01  8.50000000E-01
  8.50000000E-01  8.50000000E-01  8.00000000E-01  8.50000000E-01  8.50000000E-01
  8.50000000E-01  8.00000000E-01  8.50000000E-01  8.50000000E-01  8.50000000E-01
  8.00000000E-01  8.50000000E-01  8.50000000E-01  8.50000000E-01  8.00000000E-01
  8.50000000E-01  8.50000000E-01  8.50000000E-01  8.00000000E-01  8.50000000E-01
  8.50000000E-01  8.50000000E-01  8.00000000E-01  8.50000000E-01  8.50000000E-01
  8.50000000E-01  8.00000000E-01  8.50000000E-01  8.50000000E-01  8.50000000E-01
  8.00000000E-01  8.50000000E-01  8.50000000E-01  8.50000000E-01  8.00000000E-01
  8.50000000E-01  8.50000000E-01  8.50000000E-01  8.00000000E-01  8.50000000E-01
  8.50000000E-01  8.50000000E-01  8.00000000E-01  8.50000000E-01  8.50000000E-01
  8.50000000E-01  8.00000000E-01  8.50000000E-01  8.50000000E-01  8.50000000E-01
  8.00000000E-01  8.50000000E-01  8.50000000E-01  8.50000000E-01  8.00000000E-01
  8.50000000E-01  8.50000000E-01  8.50000000E-01  8.00000000E-01  8.50000000E-01
  8.50000000E-01  8.50000000E-01  8.00000000E-01  8.50000000E-01  8.50000000E-01
  8.50000000E-01  8.00000000E-01  8.50000000E-01  8.50000000E-01  8.50000000E-01
  8.00000000E-01  8.50000000E-01  8.50000000E-01  8.50000000E-01  8.00000000E-01
  8.50000000E-01  8.50000000E-01  8.50000000E-01  8.00000000E-01  8.50000000E-01
  8.50000000E-01  8.50000000E-01  8.00000000E-01  8.50000000E-01  8.50000000E-01
  8.50000000E-01  8.00000000E-01  8.50000000E-01  8.50000000E-01  8.50000000E-01
  8.00000000E-01  8.50000000E-01  8.50000000E-01  8.50000000E-01  8.00000000E-01
  8.50000000E-01  8.50000000E-01  8.50000000E-01  8.00000000E-01  8.50000000E-01
  8.50000000E-01  8.50000000E-01  8.00000000E-01  8.50000000E-01  8.50000000E-01
  8.50000000E-01  8.00000000E-01  8.50000000E-01  8.50000000E-01  8.50000000E-01
  8.00000000E-01  8.50000000E-01  8.50000000E-01  8.50000000E-01  8.00000000E-01
  8.50000000E-01  8.50000000E-01  8.50000000E-01  8.00000000E-01  8.50000000E-01
  8.50000000E-01  8.50000000E-01  8.00000000E-01  8.50000000E-01  8.50000000E-01
  8.50000000E-01  8.00000000E-01  8.50000000E-01  8.50000000E-01  8.50000000E-01
  8.00000000E-01  8.50000000E-01  8.50000000E-01  8.50000000E-01  8.00000000E-01
  8.50000000E-01  8.50000000E-01  8.50000000E-01  8.00000000E-01  8.50000000E-01
  8.50000000E-01  8.50000000E-01  8.00000000E-01  8.50000000E-01  8.50000000E-01
  8.50000000E-01  8.00000000E-01  8.50000000E-01  8.50000000E-01  8.50000000E-01
  8.00000000E-01  8.50000000E-01  8.50000000E-01  8.50000000E-01  8.00000000E-01
  8.50000000E-01  8.50000000E-01  8.50000000E-01  8.00000000E-01  8.50000000E-01
  8.50000000E-01  8.50000000E-01  8.00000000E-01  8.50000000E-01  8.50000000E-01
  8.50000000E-01  8.00000000E-01  8.50000000E-01  8.50000000E-01  8.50000000E-01
  8.00000000E-01  8.50000000E-01  8.50000000E-01  8.50000000E-01  8.00000000E-01
  8.50000000E-01  8.50000000E-01  8.50000000E-01  8.00000000E-01  8.50000000E-01
  8.50000000E-01  8.50000000E-01  8.00000000E-01  8.50000000E-01  8.50000000E-01
  8.50000000E-01  8.00000000E-01  8.50000000E-01  8.50000000E-01  8.50000000E-01
  8.00000000E-01  8.50000000E-01  8.50000000E-01  8.50000000E-01  8.00000000E-01
  8.50000000E-01  8.50000000E-01  8.50000000E-01  8.00000000E-01  8.50000000E-01
  8.50000000E-01  8.50000000E-01  8.00000000E-01  8.50000000E-01  8.50000000E-01
  8.50000000E-01  8.00000000E-01  8.50000000E-01  8.50000000E-01  8.50000000E-01
  8.00000000E-01  8.50000000E-01  8.50000000E-01  8.50000000E-01  8.00000000E-01
  8.50000000E-01  8.50000000E-01  8.50000000E-01  8.00000000E-01  8.50000000E-01
  8.50000000E-01  8.50000000E-01  8.00000000E-01  8.50000000E-01  8.50000000E-01
  8.50000000E-01  8.00000000E-01  8.50000000E-01  8.50000000E-01  8.50000000E-01
  8.00000000E-01  8.50000000E-01  8.50000000E-01  8.50000000E-01  8.00000000E-01
  8.50000000E-01  8.50000000E-01  8.50000000E-01  8.00000000E-01  8.50000000E-01
  8.50000000E-01  8.50000000E-01  8.00000000E-01  8.50000000E-01  8.50000000E-01
  8.50000000E-01  8.00000000E-01  8.50000000E-01  8.50000000E-01  8.50000000E-01
  8.00000000E-01  8.50000000E-01  8.50000000E-01  8.50000000E-01  8.00000000E-01
  8.50000000E-01  8.50000000E-01  8.50000000E-01  8.00000000E-01  8.50000000E-01
  8.50000000E-01  8.50000000E-01  8.00000000E-01  8.50000000E-01  8.50000000E-01
  8.50000000E-01  8.00000000E-01  8.50000000E-01  8.50000000E-01  8.50000000E-01
  8.00000000E-01  8.50000000E-01  8.50000000E-01  8.50000000E-01  8.00000000E-01
  8.50000000E-01  8.50000000E-01  8.50000000E-01  8.00000000E-01  8.50000000E-01
  8.50000000E-01  8.50000000E-01  8.00000000E-01  8.50000000E-01  8.50000000E-01
  8.50000000E-01  8.00000000E-01  8.50000000E-01  8.50000000E-01  8.50000000E-01
  8.00000000E-01  8.50000000E-01  8.50000000E-01  8.50000000E-01  8.00000000E-01
  8.50000000E-01  8.50000000E-01  8.50000000E-01  8.00000000E-01  8.50000000E-01
  8.50000000E-01  8.50000000E-01  8.00000000E-01  8.50000000E-01  8.50000000E-01
  8.50000000E-01  8.00000000E-01  8.50000000E-01  8.50000000E-01  8.50000000E-01
  8.00000000E-01  8.50000000E-01  8.50000000E-01  8.50000000E-01  8.00000000E-01
  8.50000000E-01  8.50000000E-01  8.50000000E-01  8.00000000E-01  8.50000000E-01
  8.50000000E-01  8.50000000E-01  8.00000000E-01  8.50000000E-01  8.50000000E-01
  8.50000000E-01  8.00000000E-01  8.50000000E-01  8.50000000E-01  8.50000000E-01
  8.00000000E-01  8.50000000E-01  8.50000000E-01  8.50000000E-01  8.00000000E-01
  8.50000000E-01  8.50000000E-01  8.50000000E-01  8.00000000E-01  8.50000000E-01
  8.50000000E-01  8.50000000E-01  8.00000000E-01  8.50000000E-01  8.50000000E-01
  8.50000000E-01  8.00000000E-01  8.50000000E-01  8.50000000E-01  8.50000000E-01
  8.00000000E-01  8.50000000E-01  8.50000000E-01  8.50000000E-01  8.00000000E-01
  8.50000000E-01  8.50000000E-01  8.50000000E-01  8.00000000E-01  8.50000000E-01
  8.50000000E-01  8.50000000E-01  8.00000000E-01  8.50000000E-01  8.50000000E-01
  8.50000000E-01  8.00000000E-01  8.50000000E-01  8.50000000E-01  8.50000000E-01
  8.00000000E-01  8.50000000E-01  8.50000000E-01  8.50000000E-01  8.00000000E-01
  8.50000000E-01  8.50000000E-01  8.50000000E-01  8.00000000E-01  8.50000000E-01
  8.50000000E-01  8.50000000E-01  8.00000000E-01  8.50000000E-01  8.50000000E-01
  8.50000000E-01  8.00000000E-01  8.50000000E-01  8.50000000E-01  8.50000000E-01
  8.00000000E-01  8.50000000E-01  8.50000000E-01  8.50000000E-01  8.00000000E-01
  8.50000000E-01  8.50000000E-01  8.50000000E-01  8.00000000E-01  8.50000000E-01
  8.50000000E-01  8.50000000E-01  8.00000000E-01  8.50000000E-01  8.50000000E-01
  8.50000000E-01  8.00000000E-01  8.50000000E-01  8.50000000E-01  8.50000000E-01
  8.00000000E-01  8.50000000E-01  8.50000000E-01  8.50000000E-01  8.00000000E-01
  8.50000000E-01  8.50000000E-01  8.50000000E-01  8.00000000E-01  8.50000000E-01
  8.50000000E-01  8.50000000E-01  8.00000000E-01  8.50000000E-01  8.50000000E-01
  8.50000000E-01  8.00000000E-01  8.50000000E-01  8.50000000E-01  8.50000000E-01
  8.00000000E-01  8.50000000E-01  8.50000000E-01  8.50000000E-01  8.00000000E-01
  8.50000000E-01  8.50000000E-01  8.50000000E-01  8.00000000E-01  8.50000000E-01
  8.50000000E-01  8.50000000E-01  8.00000000E-01  8.50000000E-01  8.50000000E-01
  8.50000000E-01  8.00000000E-01  8.50000000E-01  8.50000000E-01  8.50000000E-01
  8.00000000E-01  8.50000000E-01  8.50000000E-01  8.50000000E-01  8.00000000E-01
  8.50000000E-01  8.50000000E-01  8.50000000E-01  8.00000000E-01  8.50000000E-01
  8.50000000E-01  8.50000000E-01  8.00000000E-01  8.50000000E-01  8.50000000E-01
  8.50000000E-01  8.00000000E-01  8.50000000E-01  8.50000000E-01  8.50000000E-01
  8.00000000E-01  8.50000000E-01  8.50000000E-01  8.50000000E-01  8.00000000E-01
  8.50000000E-01  8.50000000E-01  8.50000000E-01  8.00000000E-01  8.50000000E-01
  8.50000000E-01  8.50000000E-01  8.00000000E-01  8.50000000E-01  8.50000000E-01
  8.50000000E-01  8.00000000E-01  8.50000000E-01  8.50000000E-01  8.50000000E-01
  8.00000000E-01  8.50000000E-01  8.50000000E-01  8.50000000E-01  8.00000000E-01
  8.50000000E-01  8.50000000E-01  8.50000000E-01  8.00000000E-01  8.50000000E-01
  8.50000000E-01  8.50000000E-01  8.00000000E-01  8.50000000E-01  8.50000000E-01
  8.50000000E-01  8.00000000E-01  8.50000000E-01  8.50000000E-01  8.50000000E-01
  8.00000000E-01  8.50000000E-01  8.50000000E-01  8.50000000E-01  8.00000000E-01
  8.50000000E-01  8.50000000E-01  8.50000000E-01  8.00000000E-01  8.50000000E-01
  8.50000000E-01  8.50000000E-01  8.00000000E-01  8.50000000E-01  8.50000000E-01
  8.50000000E-01  8.00000000E-01  8.50000000E-01  8.50000000E-01  8.50000000E-01
  8.00000000E-01  8.50000000E-01  8.50000000E-01  8.50000000E-01  8.00000000E-01
  8.50000000E-01  8.50000000E-01  8.50000000E-01  8.00000000E-01  8.50000000E-01
  8.50000000E-01  8.50000000E-01  8.00000000E-01  8.50000000E-01  8.50000000E-01
  8.50000000E-01  8.00000000E-01  8.50000000E-01  8.50000000E-01  8.50000000E-01
  8.00000000E-01  8.50000000E-01  8.50000000E-01  8.50000000E-01  8.00000000E-01
  8.50000000E-01  8.50000000E-01  8.50000000E-01  8.00000000E-01  8.50000000E-01
  8.50000000E-01  8.50000000E-01  8.00000000E-01  8.50000000E-01  8.50000000E-01
  8.50000000E-01  8.00000000E-01  8.50000000E-01  8.50000000E-01  8.50000000E-01
  8.00000000E-01  8.50000000E-01  8.50000000E-01  8.50000000E-01  8.00000000E-01
  8.50000000E-01  8.50000000E-01  8.50000000E-01  8.00000000E-01  8.50000000E-01
  8.50000000E-01  8.50000000E-01  8.00000000E-01  8.50000000E-01  8.50000000E-01
  8.50000000E-01  8.00000000E-01  8.50000000E-01  8.50000000E-01  8.50000000E-01
  8.00000000E-01  8.50000000E-01  8.50000000E-01  8.50000000E-01  8.00000000E-01
  8.50000000E-01  8.50000000E-01  8.50000000E-01  8.00000000E-01  8.50000000E-01
  8.50000000E-01  8.50000000E-01  8.00000000E-01  8.50000000E-01  8.50000000E-01
  8.50000000E-01  8.00000000E-01  8.50000000E-01  8.50000000E-01  8.50000000E-01
  8.00000000E-01  8.50000000E-01  8.50000000E-01  8.50000000E-01  8.00000000E-01
  8.50000000E-01  8.50000000E-01  8.50000000E-01  8.00000000E-01  8.50000000E-01
  8.50000000E-01  8.50000000E-01  8.00000000E-01  8.50000000E-01  8.50000000E-01
  8.50000000E-01  8.00000000E-01  8.50000000E-01  8.50000000E-01  8.50000000E-01
  8.00000000E-01  8.50000000E-01  8.50000000E-01  8.50000000E-01  8.00000000E-01
  8.50000000E-01  8.50000000E-01  8.50000000E-01  8.00000000E-01  8.50000000E-01
  8.50000000E-01  8.50000000E-01  8.00000000E-01  8.50000000E-01  8.50000000E-01
  8.50000000E-01  8.00000000E-01  8.50000000E-01  8.50000000E-01  8.50000000E-01
  8.00000000E-01  8.50000000E-01  8.50000000E-01  8.50000000E-01  8.00000000E-01
  8.50000000E-01  8.50000000E-01  8.50000000E-01  8.00000000E-01  8.50000000E-01
  8.50000000E-01  8.50000000E-01  8.00000000E-01  8.50000000E-01  8.50000000E-01
  8.50000000E-01  8.00000000E-01  8.50000000E-01  8.50000000E-01  8.50000000E-01
  8.00000000E-01  8.50000000E-01  8.50000000E-01  8.50000000E-01  8.00000000E-01
  8.50000000E-01  8.50000000E-01  8.50000000E-01  8.00000000E-01  8.50000000E-01
  8.50000000E-01  8.50000000E-01  8.00000000E-01  8.50000000E-01  8.50000000E-01
  8.50000000E-01  8.00000000E-01  8.50000000E-01  8.50000000E-01  8.50000000E-01
  8.00000000E-01  8.50000000E-01  8.50000000E-01  8.50000000E-01  8.00000000E-01
  8.50000000E-01  8.50000000E-01  8.50000000E-01  8.00000000E-01  8.50000000E-01
  8.50000000E-01  8.50000000E-01  8.00000000E-01  8.50000000E-01  8.50000000E-01
  8.50000000E-01  8.00000000E-01  8.50000000E-01  8.50000000E-01  8.50000000E-01
  8.00000000E-01  8.50000000E-01  8.50000000E-01  8.50000000E-01  8.00000000E-01
  8.50000000E-01  8.50000000E-01  8.50000000E-01  8.00000000E-01  8.50000000E-01
  8.50000000E-01  8.50000000E-01  8.00000000E-01  8.50000000E-01  8.50000000E-01
  8.50000000E-01  8.00000000E-01  8.50000000E-01  8.50000000E-01  8.50000000E-01
  8.00000000E-01  8.50000000E-01  8.50000000E-01  8.50000000E-01  8.00000000E-01
  8.50000000E-01  8.50000000E-01  8.50000000E-01  8.00000000E-01  8.50000000E-01
  8.50000000E-01  8.50000000E-01  8.00000000E-01  8.50000000E-01  8.50000000E-01
  8.50000000E-01  8.00000000E-01  8.50000000E-01  8.50000000E-01  8.50000000E-01
  8.00000000E-01  8.50000000E-01  8.50000000E-01  8.50000000E-01  8.00000000E-01
  8.50000000E-01  8.50000000E-01  8.50000000E-01  8.00000000E-01  8.50000000E-01
  8.50000000E-01  8.50000000E-01  8.00000000E-01  8.50000000E-01  8.50000000E-01
  8.50000000E-01  8.00000000E-01  8.50000000E-01  8.50000000E-01  8.50000000E-01
  8.00000000E-01  8.50000000E-01  8.50000000E-01  8.50000000E-01  8.00000000E-01
  8.50000000E-01  8.50000000E-01  8.50000000E-01  8.00000000E-01  8.50000000E-01
  8.50000000E-01  8.50000000E-01  8.00000000E-01  8.50000000E-01  8.50000000E-01
  8.50000000E-01  8.00000000E-01  8.50000000E-01  8.50000000E-01  8.50000000E-01
  8.00000000E-01  8.50000000E-01  8.50000000E-01  8.50000000E-01  8.00000000E-01
  8.50000000E-01  8.50000000E-01  8.50000000E-01  8.00000000E-01  8.50000000E-01
  8.50000000E-01  8.50000000E-01  8.00000000E-01  8.50000000E-01  8.50000000E-01
  8.50000000E-01  8.00000000E-01  8.50000000E-01  8.50000000E-01  8.50000000E-01
  8.00000000E-01  8.50000000E-01  8.50000000E-01  8.50000000E-01  8.00000000E-01
  8.50000000E-01  8.50000000E-01  8.50000000E-01  8.00000000E-01  8.50000000E-01
  8.50000000E-01  8.50000000E-01  8.00000000E-01  8.50000000E-01  8.50000000E-01
  8.50000000E-01  8.00000000E-01  8.50000000E-01  8.50000000E-01  8.50000000E-01
  8.00000000E-01  8.50000000E-01  8.50000000E-01  8.50000000E-01  8.00000000E-01
  8.50000000E-01  8.50000000E-01  8.50000000E-01  8.00000000E-01  8.50000000E-01
  8.50000000E-01  8.50000000E-01  8.00000000E-01  8.50000000E-01  8.50000000E-01
  8.50000000E-01  8.00000000E-01  8.50000000E-01  8.50000000E-01  8.50000000E-01
  8.00000000E-01  8.50000000E-01  8.50000000E-01  8.50000000E-01  8.00000000E-01
  8.50000000E-01  8.50000000E-01  8.50000000E-01  8.00000000E-01  8.50000000E-01
  8.50000000E-01  8.50000000E-01  8.00000000E-01  8.50000000E-01  8.50000000E-01
  8.50000000E-01  8.00000000E-01  8.50000000E-01  8.50000000E-01  8.50000000E-01
  8.00000000E-01  8.50000000E-01  8.50000000E-01  8.50000000E-01  8.00000000E-01
  8.50000000E-01  8.50000000E-01  8.50000000E-01  8.00000000E-01  8.50000000E-01
  8.50000000E-01  8.50000000E-01  8.00000000E-01  8.50000000E-01  8.50000000E-01
  8.50000000E-01  8.00000000E-01  8.50000000E-01  8.50000000E-01  8.50000000E-01
  8.00000000E-01  8.50000000E-01  8.50000000E-01  8.50000000E-01  8.00000000E-01
  8.50000000E-01  8.50000000E-01  8.50000000E-01  8.00000000E-01  8.50000000E-01
  8.50000000E-01  8.50000000E-01  8.00000000E-01  8.50000000E-01  8.50000000E-01
  8.50000000E-01  8.00000000E-01  8.50000000E-01  8.50000000E-01  8.50000000E-01
  8.00000000E-01  8.50000000E-01  8.50000000E-01  8.50000000E-01  8.00000000E-01
  8.50000000E-01  8.50000000E-01  8.50000000E-01  8.00000000E-01  8.50000000E-01
  8.50000000E-01  8.50000000E-01  8.00000000E-01  8.50000000E-01  8.50000000E-01
  8.50000000E-01  8.00000000E-01  8.50000000E-01  8.50000000E-01  8.50000000E-01
  8.00000000E-01  8.50000000E-01  8.50000000E-01  8.50000000E-01  8.00000000E-01
  8.50000000E-01  8.50000000E-01  8.50000000E-01  8.00000000E-01  8.50000000E-01
  8.50000000E-01  8.50000000E-01  8.00000000E-01  8.50000000E-01  8.50000000E-01
  8.50000000E-01  8.00000000E-01  8.50000000E-01  8.50000000E-01  8.50000000E-01
  8.00000000E-01  8.50000000E-01  8.50000000E-01  8.50000000E-01  8.00000000E-01
  8.50000000E-01  8.50000000E-01  8.50000000E-01  8.00000000E-01  8.50000000E-01
  8.50000000E-01  8.50000000E-01  8.00000000E-01  8.50000000E-01  8.50000000E-01
  8.50000000E-01  8.00000000E-01  8.50000000E-01  8.50000000E-01  8.50000000E-01
  8.00000000E-01  8.50000000E-01  8.50000000E-01  8.50000000E-01  8.00000000E-01
  8.50000000E-01  8.50000000E-01  8.50000000E-01  8.00000000E-01  8.50000000E-01
  8.50000000E-01  8.50000000E-01  8.00000000E-01  8.50000000E-01  8.50000000E-01
  8.50000000E-01  8.00000000E-01  8.50000000E-01  8.50000000E-01  8.50000000E-01
  8.00000000E-01  8.50000000E-01  8.50000000E-01  8.50000000E-01  8.00000000E-01
  8.50000000E-01  8.50000000E-01  8.50000000E-01  8.00000000E-01  8.50000000E-01
  8.50000000E-01  8.50000000E-01  8.00000000E-01  8.50000000E-01  8.50000000E-01
  8.50000000E-01  8.00000000E-01  8.50000000E-01  8.50000000E-01  8.50000000E-01
  8.00000000E-01  8.50000000E-01  8.50000000E-01  8.50000000E-01  8.00000000E-01
  8.50000000E-01  8.50000000E-01  8.50000000E-01  8.00000000E-01  8.50000000E-01
  8.50000000E-01  8.50000000E-01  8.00000000E-01  8.50000000E-01  8.50000000E-01
  8.50000000E-01  8.00000000E-01  8.50000000E-01  8.50000000E-01  8.50000000E-01
  8.00000000E-01  8.50000000E-01  8.50000000E-01  8.50000000E-01  8.00000000E-01
  8.50000000E-01  8.50000000E-01  8.50000000E-01  8.00000000E-01  8.50000000E-01
  8.50000000E-01  8.50000000E-01  8.00000000E-01  8.50000000E-01  8.50000000E-01
  8.50000000E-01  8.00000000E-01  8.50000000E-01  8.50000000E-01  8.50000000E-01
  8.00000000E-01  8.50000000E-01  8.50000000E-01  8.50000000E-01  8.00000000E-01
  8.50000000E-01  8.50000000E-01  8.50000000E-01  8.00000000E-01  8.50000000E-01
  8.50000000E-01  8.50000000E-01  8.00000000E-01  8.50000000E-01  8.50000000E-01
  8.50000000E-01  8.00000000E-01  8.50000000E-01  8.50000000E-01  8.50000000E-01
  8.00000000E-01  8.50000000E-01  8.50000000E-01  8.50000000E-01  8.00000000E-01
  8.50000000E-01  8.50000000E-01  8.50000000E-01  8.00000000E-01  8.50000000E-01
  8.50000000E-01  8.50000000E-01  8.00000000E-01  8.50000000E-01  8.50000000E-01
  8.50000000E-01  8.00000000E-01  8.50000000E-01  8.50000000E-01  8.50000000E-01
  8.00000000E-01  8.50000000E-01  8.50000000E-01  8.50000000E-01  8.00000000E-01
  8.50000000E-01  8.50000000E-01  8.50000000E-01  8.00000000E-01  8.50000000E-01
  8.50000000E-01  8.50000000E-01  8.00000000E-01  8.50000000E-01  8.50000000E-01
  8.50000000E-01  8.00000000E-01  8.50000000E-01  8.50000000E-01  8.50000000E-01
  8.00000000E-01  8.50000000E-01  8.50000000E-01  8.50000000E-01  8.00000000E-01
  8.50000000E-01  8.50000000E-01  8.50000000E-01  8.00000000E-01  8.50000000E-01
  8.50000000E-01  8.50000000E-01  8.00000000E-01  8.50000000E-01  8.50000000E-01
  8.50000000E-01  8.00000000E-01  8.50000000E-01  8.50000000E-01  8.50000000E-01
  8.00000000E-01  8.50000000E-01  8.50000000E-01  8.50000000E-01  8.00000000E-01
  8.50000000E-01  8.50000000E-01  8.50000000E-01  8.00000000E-01  8.50000000E-01
  8.50000000E-01  8.50000000E-01  8.00000000E-01  8.50000000E-01  8.50000000E-01
  8.50000000E-01  8.00000000E-01  8.50000000E-01  8.50000000E-01  8.50000000E-01
  8.00000000E-01  8.50000000E-01  8.50000000E-01  8.50000000E-01  8.00000000E-01
  8.50000000E-01  8.50000000E-01  8.50000000E-01  8.00000000E-01  8.50000000E-01
  8.50000000E-01  8.50000000E-01  8.00000000E-01  8.50000000E-01  8.50000000E-01
  8.50000000E-01  8.00000000E-01  8.50000000E-01  8.50000000E-01  8.50000000E-01
  8.00000000E-01  8.50000000E-01  8.50000000E-01  8.50000000E-01  8.00000000E-01
  8.50000000E-01  8.50000000E-01  8.50000000E-01  8.00000000E-01  8.50000000E-01
  8.50000000E-01  8.50000000E-01  8.00000000E-01  8.50000000E-01  8.50000000E-01
  8.50000000E-01  8.00000000E-01  8.50000000E-01  8.50000000E-01  8.50000000E-01
  8.00000000E-01  8.50000000E-01  8.50000000E-01  8.50000000E-01  8.00000000E-01
  8.50000000E-01  8.50000000E-01  8.50000000E-01  8.00000000E-01  8.50000000E-01
  8.50000000E-01  8.50000000E-01  8.00000000E-01  8.50000000E-01  8.50000000E-01
  8.50000000E-01  8.00000000E-01  8.50000000E-01  8.50000000E-01  8.50000000E-01
  8.00000000E-01  8.50000000E-01  8.50000000E-01  8.50000000E-01  8.00000000E-01
  8.50000000E-01  8.50000000E-01  8.50000000E-01  8.00000000E-01  8.50000000E-01
  8.50000000E-01  8.50000000E-01  8.00000000E-01  8.50000000E-01  8.50000000E-01
  8.50000000E-01  8.00000000E-01  8.50000000E-01  8.50000000E-01  8.50000000E-01
  8.00000000E-01  8.50000000E-01  8.50000000E-01  8.50000000E-01  8.00000000E-01
  8.50000000E-01  8.50000000E-01  8.50000000E-01  8.00000000E-01  8.50000000E-01
  8.50000000E-01  8.50000000E-01  8.00000000E-01  8.50000000E-01  8.50000000E-01
  8.50000000E-01  8.00000000E-01  8.50000000E-01  8.50000000E-01  8.50000000E-01
  8.00000000E-01  8.50000000E-01  8.50000000E-01  8.50000000E-01  8.00000000E-01
  8.50000000E-01  8.50000000E-01  8.50000000E-01  8.00000000E-01  8.50000000E-01
  8.50000000E-01  8.50000000E-01  8.00000000E-01  8.50000000E-01  8.50000000E-01
  8.50000000E-01  8.00000000E-01  8.50000000E-01  8.50000000E-01  8.50000000E-01
  8.00000000E-01  8.50000000E-01  8.50000000E-01  8.50000000E-01  8.00000000E-01
  8.50000000E-01  8.50000000E-01  8.50000000E-01  8.00000000E-01  8.50000000E-01
  8.50000000E-01  8.50000000E-01  8.00000000E-01  8.50000000E-01  8.50000000E-01
  8.50000000E-01  8.00000000E-01  8.50000000E-01  8.50000000E-01  8.50000000E-01
  8.00000000E-01  8.50000000E-01  8.50000000E-01  8.50000000E-01  8.00000000E-01
  8.50000000E-01  8.50000000E-01  8.50000000E-01  8.00000000E-01  8.50000000E-01
  8.50000000E-01  8.50000000E-01  8.00000000E-01  8.50000000E-01  8.50000000E-01
  8.50000000E-01  8.00000000E-01  8.50000000E-01  8.50000000E-01  8.50000000E-01
  8.00000000E-01  8.50000000E-01  8.50000000E-01  8.50000000E-01  8.00000000E-01
  8.50000000E-01  8.50000000E-01  8.50000000E-01  8.00000000E-01  8.50000000E-01
  8.50000000E-01  8.50000000E-01  8.00000000E-01  8.50000000E-01  8.50000000E-01
  8.50000000E-01  8.00000000E-01  8.50000000E-01  8.50000000E-01  8.50000000E-01
  8.00000000E-01  8.50000000E-01  8.50000000E-01  8.50000000E-01  8.00000000E-01
  8.50000000E-01  8.50000000E-01  8.50000000E-01  8.00000000E-01  8.50000000E-01
  8.50000000E-01  8.50000000E-01  8.00000000E-01  8.50000000E-01  8.50000000E-01
  8.50000000E-01  8.00000000E-01  8.50000000E-01  8.50000000E-01  8.50000000E-01
  8.00000000E-01  8.50000000E-01  8.50000000E-01  8.50000000E-01  8.00000000E-01
  8.50000000E-01  8.50000000E-01  8.50000000E-01  8.00000000E-01  8.50000000E-01
  8.50000000E-01  8.50000000E-01  8.00000000E-01  8.50000000E-01  8.50000000E-01
  8.50000000E-01  8.00000000E-01  8.50000000E-01  8.50000000E-01  8.50000000E-01
  8.00000000E-01  8.50000000E-01  8.50000000E-01  8.50000000E-01  8.00000000E-01
  8.50000000E-01  8.50000000E-01  8.50000000E-01  8.00000000E-01  8.50000000E-01
  8.50000000E-01  8.50000000E-01  8.00000000E-01  8.50000000E-01  8.50000000E-01
  8.50000000E-01  8.00000000E-01  8.50000000E-01  8.50000000E-01  8.50000000E-01
  8.00000000E-01  8.50000000E-01  8.50000000E-01  8.50000000E-01  8.00000000E-01
  8.50000000E-01  8.50000000E-01  8.50000000E-01  8.00000000E-01  8.50000000E-01
  8.50000000E-01  8.50000000E-01  8.00000000E-01  8.50000000E-01  8.50000000E-01
  8.50000000E-01  8.00000000E-01  8.50000000E-01  8.50000000E-01  8.50000000E-01
  8.00000000E-01  8.50000000E-01  8.50000000E-01  8.50000000E-01  8.00000000E-01
  8.50000000E-01  8.50000000E-01  8.50000000E-01  8.00000000E-01  8.50000000E-01
  8.50000000E-01  8.50000000E-01  8.00000000E-01  8.50000000E-01  8.50000000E-01
  8.50000000E-01  8.00000000E-01  8.50000000E-01  8.50000000E-01  8.50000000E-01
  8.00000000E-01  8.50000000E-01  8.50000000E-01  8.50000000E-01  8.00000000E-01
  8.50000000E-01  8.50000000E-01  8.50000000E-01  8.00000000E-01  8.50000000E-01
  8.50000000E-01  8.50000000E-01  8.00000000E-01  8.50000000E-01  8.50000000E-01
  8.50000000E-01  8.00000000E-01  8.50000000E-01  8.50000000E-01  8.50000000E-01
  8.00000000E-01  8.50000000E-01  8.50000000E-01  8.50000000E-01  8.00000000E-01
  8.50000000E-01  8.50000000E-01  8.50000000E-01  8.00000000E-01  8.50000000E-01
  8.50000000E-01  8.50000000E-01  8.00000000E-01  8.50000000E-01  8.50000000E-01
  8.50000000E-01  8.00000000E-01  8.50000000E-01  8.50000000E-01  8.50000000E-01
  8.00000000E-01  8.50000000E-01  8.50000000E-01  8.50000000E-01  8.00000000E-01
  8.50000000E-01  8.50000000E-01  8.50000000E-01  8.00000000E-01  8.50000000E-01
  8.50000000E-01  8.50000000E-01  8.00000000E-01  8.50000000E-01  8.50000000E-01
  8.50000000E-01  8.00000000E-01  8.50000000E-01  8.50000000E-01  8.50000000E-01
  8.00000000E-01  8.50000000E-01  8.50000000E-01  8.50000000E-01  8.00000000E-01
  8.50000000E-01  8.50000000E-01  8.50000000E-01  8.00000000E-01  8.50000000E-01
  8.50000000E-01  8.50000000E-01  8.00000000E-01  8.50000000E-01  8.50000000E-01
  8.50000000E-01  8.00000000E-01  8.50000000E-01  8.50000000E-01  8.50000000E-01
  8.00000000E-01  8.50000000E-01  8.50000000E-01  8.50000000E-01  8.00000000E-01
  8.50000000E-01  8.50000000E-01  8.50000000E-01  8.00000000E-01  8.50000000E-01
  8.50000000E-01  8.50000000E-01  8.00000000E-01  8.50000000E-01  8.50000000E-01
  8.50000000E-01  8.00000000E-01  8.50000000E-01  8.50000000E-01  8.50000000E-01
  8.00000000E-01  8.50000000E-01  8.50000000E-01  8.50000000E-01  8.00000000E-01
  8.50000000E-01  8.50000000E-01  8.50000000E-01  8.00000000E-01  8.50000000E-01
  8.50000000E-01  8.50000000E-01  8.00000000E-01  8.50000000E-01  8.50000000E-01
  8.50000000E-01  8.00000000E-01  8.50000000E-01  8.50000000E-01  8.50000000E-01
  8.00000000E-01  8.50000000E-01  8.50000000E-01  8.50000000E-01  8.00000000E-01
  8.50000000E-01  8.50000000E-01  8.50000000E-01  8.00000000E-01  8.50000000E-01
  8.50000000E-01  8.50000000E-01  8.00000000E-01  8.50000000E-01  8.50000000E-01
  8.50000000E-01  8.00000000E-01  8.50000000E-01  8.50000000E-01  8.50000000E-01
  8.00000000E-01  8.50000000E-01  8.50000000E-01  8.50000000E-01  8.00000000E-01
  8.50000000E-01  8.50000000E-01  8.50000000E-01  8.00000000E-01  8.50000000E-01
  8.50000000E-01  8.50000000E-01  8.00000000E-01  8.50000000E-01  8.50000000E-01
  8.50000000E-01  8.00000000E-01  8.50000000E-01  8.50000000E-01  8.50000000E-01
  8.00000000E-01  8.50000000E-01  8.50000000E-01  8.50000000E-01  8.00000000E-01
  8.50000000E-01  8.50000000E-01  8.50000000E-01  8.00000000E-01  8.50000000E-01
  8.50000000E-01  8.50000000E-01  8.00000000E-01  8.50000000E-01  8.50000000E-01
  8.50000000E-01  8.00000000E-01  8.50000000E-01  8.50000000E-01  8.50000000E-01
  8.00000000E-01  8.50000000E-01  8.50000000E-01  8.50000000E-01  8.00000000E-01
  8.50000000E-01  8.50000000E-01  8.50000000E-01  8.00000000E-01  8.50000000E-01
  8.50000000E-01  8.50000000E-01  8.00000000E-01  8.50000000E-01  8.50000000E-01
  8.50000000E-01  8.00000000E-01  8.50000000E-01  8.50000000E-01  8.50000000E-01
  8.00000000E-01  8.50000000E-01  8.50000000E-01  8.50000000E-01  8.00000000E-01
  8.50000000E-01  8.50000000E-01  8.50000000E-01  8.00000000E-01  8.50000000E-01
  8.50000000E-01  8.50000000E-01  8.00000000E-01  8.50000000E-01  8.50000000E-01
  8.50000000E-01  8.00000000E-01  8.50000000E-01  8.50000000E-01  8.50000000E-01
  8.00000000E-01  8.50000000E-01  8.50000000E-01  8.50000000E-01  8.00000000E-01
  8.50000000E-01  8.50000000E-01  8.50000000E-01  8.00000000E-01  8.50000000E-01
  8.50000000E-01  8.50000000E-01  8.00000000E-01  8.50000000E-01  8.50000000E-01
  8.50000000E-01  8.00000000E-01  8.50000000E-01  8.50000000E-01  8.50000000E-01
  8.00000000E-01  8.50000000E-01  8.50000000E-01  8.50000000E-01  8.00000000E-01
  8.50000000E-01  8.50000000E-01  8.50000000E-01  8.00000000E-01  8.50000000E-01
  8.50000000E-01  8.50000000E-01  8.00000000E-01  8.50000000E-01  8.50000000E-01
  8.50000000E-01  8.00000000E-01  8.50000000E-01  8.50000000E-01  8.50000000E-01
  8.00000000E-01  8.50000000E-01  8.50000000E-01  8.50000000E-01  8.00000000E-01
  8.50000000E-01  8.50000000E-01  8.50000000E-01  8.00000000E-01  8.50000000E-01
  8.50000000E-01  8.50000000E-01  8.00000000E-01  8.50000000E-01  8.50000000E-01
  8.50000000E-01  8.00000000E-01  8.50000000E-01  8.50000000E-01  8.50000000E-01
  8.00000000E-01  8.50000000E-01  8.50000000E-01  8.50000000E-01  8.00000000E-01
  8.50000000E-01  8.50000000E-01  8.50000000E-01  8.00000000E-01  8.50000000E-01
  8.50000000E-01  8.50000000E-01  8.00000000E-01  8.50000000E-01  8.50000000E-01
  8.50000000E-01  8.00000000E-01  8.50000000E-01  8.50000000E-01  8.50000000E-01
  8.00000000E-01  8.50000000E-01  8.50000000E-01  8.50000000E-01  8.00000000E-01
  8.50000000E-01  8.50000000E-01  8.50000000E-01  8.00000000E-01  8.50000000E-01
  8.50000000E-01  8.50000000E-01  8.00000000E-01  8.50000000E-01  8.50000000E-01
  8.50000000E-01  8.00000000E-01  8.50000000E-01  8.50000000E-01  8.50000000E-01
  8.00000000E-01  8.50000000E-01  8.50000000E-01  8.50000000E-01  8.00000000E-01
  8.50000000E-01  8.50000000E-01  8.50000000E-01  8.00000000E-01  8.50000000E-01
  8.50000000E-01  8.50000000E-01  8.00000000E-01  8.50000000E-01  8.50000000E-01
  8.50000000E-01  8.00000000E-01  8.50000000E-01  8.50000000E-01  8.50000000E-01
  8.00000000E-01  8.50000000E-01  8.50000000E-01  8.50000000E-01  8.00000000E-01
  8.50000000E-01  8.50000000E-01  8.50000000E-01  8.00000000E-01  8.50000000E-01
  8.50000000E-01  8.50000000E-01  8.00000000E-01  8.50000000E-01  8.50000000E-01
  8.50000000E-01  8.00000000E-01  8.50000000E-01  8.50000000E-01  8.50000000E-01
  8.00000000E-01  8.50000000E-01  8.50000000E-01  8.50000000E-01  8.00000000E-01
  8.50000000E-01  8.50000000E-01  8.50000000E-01  8.00000000E-01  8.50000000E-01
  8.50000000E-01  8.50000000E-01  8.00000000E-01  8.50000000E-01  8.50000000E-01
  8.50000000E-01  8.00000000E-01  8.50000000E-01  8.50000000E-01  8.50000000E-01
  8.00000000E-01  8.50000000E-01  8.50000000E-01  8.50000000E-01  8.00000000E-01
  8.50000000E-01  8.50000000E-01  8.50000000E-01  8.00000000E-01  8.50000000E-01
  8.50000000E-01  8.50000000E-01  8.00000000E-01  8.50000000E-01  8.50000000E-01
  8.50000000E-01  8.00000000E-01  8.50000000E-01  8.50000000E-01  8.50000000E-01
  8.00000000E-01  8.50000000E-01  8.50000000E-01  8.50000000E-01  8.00000000E-01
  8.50000000E-01  8.50000000E-01  8.50000000E-01  8.00000000E-01  8.50000000E-01
  8.50000000E-01  8.50000000E-01  8.00000000E-01  8.50000000E-01  8.50000000E-01
  8.50000000E-01  8.00000000E-01  8.50000000E-01  8.50000000E-01  8.50000000E-01
  8.00000000E-01  8.50000000E-01  8.50000000E-01  8.50000000E-01  8.00000000E-01
  8.50000000E-01  8.50000000E-01  8.50000000E-01  8.00000000E-01  8.50000000E-01
  8.50000000E-01  8.50000000E-01  8.00000000E-01  8.50000000E-01  8.50000000E-01
  8.50000000E-01  8.00000000E-01  8.50000000E-01  8.50000000E-01  8.50000000E-01
  8.00000000E-01  8.50000000E-01  8.50000000E-01  8.50000000E-01  8.00000000E-01
  8.50000000E-01  8.50000000E-01  8.50000000E-01  8.00000000E-01  8.50000000E-01
  8.50000000E-01  8.50000000E-01  8.00000000E-01  8.50000000E-01  8.50000000E-01
  8.50000000E-01  8.00000000E-01  8.50000000E-01  8.50000000E-01  8.50000000E-01
  8.00000000E-01  8.50000000E-01  8.50000000E-01  8.50000000E-01  8.00000000E-01
  8.50000000E-01  8.50000000E-01  8.50000000E-01  8.00000000E-01  8.50000000E-01
  8.50000000E-01  8.50000000E-01  8.00000000E-01  8.50000000E-01  8.50000000E-01
  8.50000000E-01  8.00000000E-01  8.50000000E-01  8.50000000E-01  8.50000000E-01
  8.00000000E-01  8.50000000E-01  8.50000000E-01  8.50000000E-01  8.00000000E-01
  8.50000000E-01  8.50000000E-01  8.50000000E-01  8.00000000E-01  8.50000000E-01
  8.50000000E-01  8.50000000E-01  8.00000000E-01  8.50000000E-01  8.50000000E-01
  8.50000000E-01  8.00000000E-01  8.50000000E-01  8.50000000E-01  8.50000000E-01
  8.00000000E-01  8.50000000E-01  8.50000000E-01  8.50000000E-01  8.00000000E-01
  8.50000000E-01  8.50000000E-01  8.50000000E-01  8.00000000E-01  8.50000000E-01
  8.50000000E-01  8.50000000E-01  8.00000000E-01  8.50000000E-01  8.50000000E-01
  8.50000000E-01  8.00000000E-01  8.50000000E-01  8.50000000E-01  8.50000000E-01
  8.00000000E-01  8.50000000E-01  8.50000000E-01  8.50000000E-01  8.00000000E-01
  8.50000000E-01  8.50000000E-01  8.50000000E-01  8.00000000E-01  8.50000000E-01
  8.50000000E-01  8.50000000E-01  8.00000000E-01  8.50000000E-01  8.50000000E-01
  8.50000000E-01  8.00000000E-01  8.50000000E-01  8.50000000E-01  8.50000000E-01
  8.00000000E-01  8.50000000E-01  8.50000000E-01  8.50000000E-01  8.00000000E-01
  8.50000000E-01  8.50000000E-01  8.50000000E-01  8.00000000E-01  8.50000000E-01
  8.50000000E-01  8.50000000E-01  8.00000000E-01  8.50000000E-01  8.50000000E-01
  8.50000000E-01  8.00000000E-01  8.50000000E-01  8.50000000E-01  8.50000000E-01
  8.00000000E-01  8.50000000E-01  8.50000000E-01  8.50000000E-01  8.00000000E-01
  8.50000000E-01  8.50000000E-01  8.50000000E-01  8.00000000E-01  8.50000000E-01
  8.50000000E-01  8.50000000E-01  8.00000000E-01  8.50000000E-01  8.50000000E-01
  8.50000000E-01  8.00000000E-01  8.50000000E-01  8.50000000E-01  8.50000000E-01
  8.00000000E-01  8.50000000E-01  8.50000000E-01  8.50000000E-01  8.00000000E-01
  8.50000000E-01  8.50000000E-01  8.50000000E-01  8.00000000E-01  8.50000000E-01
  8.50000000E-01  8.50000000E-01  8.00000000E-01  8.50000000E-01  8.50000000E-01
  8.50000000E-01  8.00000000E-01  8.50000000E-01  8.50000000E-01  8.50000000E-01
  8.00000000E-01  8.50000000E-01  8.50000000E-01  8.50000000E-01  8.00000000E-01
  8.50000000E-01  8.50000000E-01  8.50000000E-01  8.00000000E-01  8.50000000E-01
  8.50000000E-01  8.50000000E-01  8.00000000E-01  8.50000000E-01  8.50000000E-01
  8.50000000E-01  8.00000000E-01  8.50000000E-01  8.50000000E-01  8.50000000E-01
  8.00000000E-01  8.50000000E-01  8.50000000E-01  8.50000000E-01  8.00000000E-01
  8.50000000E-01  8.50000000E-01  8.50000000E-01  8.00000000E-01  8.50000000E-01
  8.50000000E-01  8.50000000E-01  8.00000000E-01  8.50000000E-01  8.50000000E-01
  8.50000000E-01  8.00000000E-01  8.50000000E-01  8.50000000E-01  8.50000000E-01
  8.00000000E-01  8.50000000E-01  8.50000000E-01  8.50000000E-01  8.00000000E-01
  8.50000000E-01  8.50000000E-01  8.50000000E-01  8.00000000E-01  8.50000000E-01
  8.50000000E-01  8.50000000E-01  8.00000000E-01  8.50000000E-01  8.50000000E-01
  8.50000000E-01  8.00000000E-01  8.50000000E-01  8.50000000E-01  8.50000000E-01
  8.00000000E-01  8.50000000E-01  8.50000000E-01  8.50000000E-01  8.00000000E-01
  8.50000000E-01  8.50000000E-01  8.50000000E-01  8.00000000E-01  8.50000000E-01
  8.50000000E-01  8.50000000E-01  8.00000000E-01  8.50000000E-01  8.50000000E-01
  8.50000000E-01  8.00000000E-01  8.50000000E-01  8.50000000E-01  8.50000000E-01
  8.00000000E-01  8.50000000E-01  8.50000000E-01  8.50000000E-01  8.00000000E-01
  8.50000000E-01  8.50000000E-01  8.50000000E-01  8.00000000E-01  8.50000000E-01
  8.50000000E-01  8.50000000E-01  8.00000000E-01  8.50000000E-01  8.50000000E-01
  8.50000000E-01  8.00000000E-01  8.50000000E-01  8.50000000E-01  8.50000000E-01
  8.00000000E-01  8.50000000E-01  8.50000000E-01  8.50000000E-01  8.00000000E-01
  8.50000000E-01  8.50000000E-01  8.50000000E-01  8.00000000E-01  8.50000000E-01
  8.50000000E-01  8.50000000E-01  8.00000000E-01  8.50000000E-01  8.50000000E-01
  8.50000000E-01  8.00000000E-01  8.50000000E-01  8.50000000E-01  8.50000000E-01
  8.00000000E-01  8.50000000E-01  8.50000000E-01  8.50000000E-01  8.00000000E-01
  8.50000000E-01  8.50000000E-01  8.50000000E-01  8.00000000E-01  8.50000000E-01
  8.50000000E-01  8.50000000E-01  8.00000000E-01  8.50000000E-01  8.50000000E-01
  8.50000000E-01  8.00000000E-01  8.50000000E-01  8.50000000E-01  8.50000000E-01
  8.00000000E-01  8.50000000E-01  8.50000000E-01  8.50000000E-01  8.00000000E-01
  8.50000000E-01  8.50000000E-01  8.50000000E-01  8.00000000E-01  8.50000000E-01
  8.50000000E-01  8.50000000E-01  8.00000000E-01  8.50000000E-01  8.50000000E-01
  8.50000000E-01  8.00000000E-01  8.50000000E-01  8.50000000E-01  8.50000000E-01
  8.00000000E-01  8.50000000E-01  8.50000000E-01  8.50000000E-01  8.00000000E-01
  8.50000000E-01  8.50000000E-01  8.50000000E-01  8.00000000E-01  8.50000000E-01
  8.50000000E-01  8.50000000E-01  8.00000000E-01  8.50000000E-01  8.50000000E-01
  8.50000000E-01  8.00000000E-01  8.50000000E-01  8.50000000E-01  8.50000000E-01
  8.00000000E-01  8.50000000E-01  8.50000000E-01  8.50000000E-01  8.00000000E-01
  8.50000000E-01  8.50000000E-01  8.50000000E-01  8.00000000E-01  8.50000000E-01
  8.50000000E-01  8.50000000E-01  8.00000000E-01  8.50000000E-01  8.50000000E-01
  8.50000000E-01  8.00000000E-01  8.50000000E-01  8.50000000E-01  8.50000000E-01
  8.00000000E-01  8.50000000E-01  8.50000000E-01  8.50000000E-01  8.00000000E-01
  8.50000000E-01  8.50000000E-01  8.50000000E-01  8.00000000E-01  8.50000000E-01
  8.50000000E-01  8.50000000E-01  8.00000000E-01  8.50000000E-01  8.50000000E-01
  8.50000000E-01  8.00000000E-01  8.50000000E-01  8.50000000E-01  8.50000000E-01
  8.00000000E-01  8.50000000E-01  8.50000000E-01  8.50000000E-01  8.00000000E-01
  8.50000000E-01  8.50000000E-01  8.50000000E-01  8.00000000E-01  8.50000000E-01
  8.50000000E-01  8.50000000E-01  8.00000000E-01  8.50000000E-01  8.50000000E-01
  8.50000000E-01  8.00000000E-01  8.50000000E-01  8.50000000E-01  8.50000000E-01
  8.00000000E-01  8.50000000E-01  8.50000000E-01  8.50000000E-01  8.00000000E-01
  8.50000000E-01  8.50000000E-01  8.50000000E-01  8.00000000E-01  8.50000000E-01
  8.50000000E-01  8.50000000E-01  8.00000000E-01  8.50000000E-01  8.50000000E-01
  8.50000000E-01  8.00000000E-01  8.50000000E-01  8.50000000E-01  8.50000000E-01
  8.00000000E-01  8.50000000E-01  8.50000000E-01  8.50000000E-01  8.00000000E-01
  8.50000000E-01  8.50000000E-01  8.50000000E-01  8.00000000E-01  8.50000000E-01
  8.50000000E-01  8.50000000E-01  8.00000000E-01  8.50000000E-01  8.50000000E-01
  8.50000000E-01  8.00000000E-01  8.50000000E-01  8.50000000E-01  8.50000000E-01
  8.00000000E-01  8.50000000E-01  8.50000000E-01  8.50000000E-01  8.00000000E-01
  8.50000000E-01  8.50000000E-01  8.50000000E-01  8.00000000E-01  8.50000000E-01
  8.50000000E-01  8.50000000E-01  8.00000000E-01  8.50000000E-01  8.50000000E-01
  8.50000000E-01  8.00000000E-01  8.50000000E-01  8.50000000E-01  8.50000000E-01
  8.00000000E-01  8.50000000E-01  8.50000000E-01  8.50000000E-01  8.00000000E-01
  8.50000000E-01  8.50000000E-01  8.50000000E-01  8.00000000E-01  8.50000000E-01
  8.50000000E-01  8.50000000E-01  8.00000000E-01  8.50000000E-01  8.50000000E-01
  8.50000000E-01  8.00000000E-01  8.50000000E-01  8.50000000E-01  8.50000000E-01
  8.00000000E-01  8.50000000E-01  8.50000000E-01  8.50000000E-01  8.00000000E-01
  8.50000000E-01  8.50000000E-01  8.50000000E-01  8.00000000E-01  8.50000000E-01
  8.50000000E-01  8.50000000E-01  8.00000000E-01  8.50000000E-01  8.50000000E-01
  8.50000000E-01  8.00000000E-01  8.50000000E-01  8.50000000E-01  8.50000000E-01
  8.00000000E-01  8.50000000E-01  8.50000000E-01  8.50000000E-01  8.00000000E-01
  8.50000000E-01  8.50000000E-01  8.50000000E-01  8.00000000E-01  8.50000000E-01
  8.50000000E-01  8.50000000E-01  8.00000000E-01  8.50000000E-01  8.50000000E-01
  8.50000000E-01  8.00000000E-01  8.50000000E-01  8.50000000E-01  8.50000000E-01
  8.00000000E-01  8.50000000E-01  8.50000000E-01  8.50000000E-01  8.00000000E-01
  8.50000000E-01  8.50000000E-01  8.50000000E-01  8.00000000E-01  8.50000000E-01
  8.50000000E-01  8.50000000E-01  8.00000000E-01  8.50000000E-01  8.50000000E-01
  8.50000000E-01  8.00000000E-01  8.50000000E-01  8.50000000E-01  8.50000000E-01
  8.00000000E-01  8.50000000E-01  8.50000000E-01  8.50000000E-01  8.00000000E-01
  8.50000000E-01  8.50000000E-01  8.50000000E-01  8.00000000E-01  8.50000000E-01
  8.50000000E-01  8.50000000E-01  8.00000000E-01  8.50000000E-01  8.50000000E-01
  8.50000000E-01  8.00000000E-01  8.50000000E-01  8.50000000E-01  8.50000000E-01
  8.00000000E-01  8.50000000E-01  8.50000000E-01  8.50000000E-01  8.00000000E-01
  8.50000000E-01  8.50000000E-01  8.50000000E-01  8.00000000E-01  8.50000000E-01
  8.50000000E-01  8.50000000E-01  8.00000000E-01  8.50000000E-01  8.50000000E-01
  8.50000000E-01  8.00000000E-01  8.50000000E-01  8.50000000E-01  8.50000000E-01
  8.00000000E-01  8.50000000E-01  8.50000000E-01  8.50000000E-01  8.00000000E-01
  8.50000000E-01  8.50000000E-01  8.50000000E-01  8.00000000E-01  8.50000000E-01
  8.50000000E-01  8.50000000E-01  8.00000000E-01  8.50000000E-01  8.50000000E-01
  8.50000000E-01  8.00000000E-01  8.50000000E-01  8.50000000E-01  8.50000000E-01
  8.00000000E-01  8.50000000E-01  8.50000000E-01  8.50000000E-01  8.00000000E-01
  8.50000000E-01  8.50000000E-01  8.50000000E-01  8.00000000E-01  8.50000000E-01
  8.50000000E-01  8.50000000E-01  8.00000000E-01  8.50000000E-01  8.50000000E-01
  8.50000000E-01  8.00000000E-01  8.50000000E-01  8.50000000E-01  8.50000000E-01
  8.00000000E-01  8.50000000E-01  8.50000000E-01  8.50000000E-01  8.00000000E-01
  8.50000000E-01  8.50000000E-01  8.50000000E-01  8.00000000E-01  8.50000000E-01
  8.50000000E-01  8.50000000E-01  8.00000000E-01  8.50000000E-01  8.50000000E-01
  8.50000000E-01  8.00000000E-01  8.50000000E-01  8.50000000E-01  8.50000000E-01
  8.00000000E-01  8.50000000E-01  8.50000000E-01  8.50000000E-01  8.00000000E-01
  8.50000000E-01  8.50000000E-01  8.50000000E-01  8.00000000E-01  8.50000000E-01
  8.50000000E-01  8.50000000E-01  8.00000000E-01  8.50000000E-01  8.50000000E-01
  8.50000000E-01  8.00000000E-01  8.50000000E-01  8.50000000E-01  8.50000000E-01
  8.00000000E-01  8.50000000E-01  8.50000000E-01  8.50000000E-01  8.00000000E-01
  8.50000000E-01  8.50000000E-01  8.50000000E-01  8.00000000E-01  8.50000000E-01
  8.50000000E-01  8.50000000E-01  8.00000000E-01  8.50000000E-01  8.50000000E-01
  8.50000000E-01  8.00000000E-01  8.50000000E-01  8.50000000E-01  8.50000000E-01
  8.00000000E-01  8.50000000E-01  8.50000000E-01  8.50000000E-01  8.00000000E-01
  8.50000000E-01  8.50000000E-01  8.50000000E-01  8.00000000E-01  8.50000000E-01
  8.50000000E-01  8.50000000E-01  8.00000000E-01  8.50000000E-01  8.50000000E-01
  8.50000000E-01  8.00000000E-01  8.50000000E-01  8.50000000E-01  8.50000000E-01
  8.00000000E-01  8.50000000E-01  8.50000000E-01  8.50000000E-01  8.00000000E-01
  8.50000000E-01  8.50000000E-01  8.50000000E-01  8.00000000E-01  8.50000000E-01
  8.50000000E-01  8.50000000E-01  8.00000000E-01  8.50000000E-01  8.50000000E-01
  8.50000000E-01  8.00000000E-01  8.50000000E-01  8.50000000E-01  8.50000000E-01
  8.00000000E-01  8.50000000E-01  8.50000000E-01  8.50000000E-01  8.00000000E-01
  8.50000000E-01  8.50000000E-01  8.50000000E-01  8.00000000E-01  8.50000000E-01
  8.50000000E-01  8.50000000E-01  8.00000000E-01  8.50000000E-01  8.50000000E-01
  8.50000000E-01  8.00000000E-01  8.50000000E-01  8.50000000E-01  8.50000000E-01
  8.00000000E-01  8.50000000E-01  8.50000000E-01  8.50000000E-01  8.00000000E-01
  8.50000000E-01  8.50000000E-01  8.50000000E-01  8.00000000E-01  8.50000000E-01
  8.50000000E-01  8.50000000E-01  8.00000000E-01  8.50000000E-01  8.50000000E-01
  8.50000000E-01  8.00000000E-01  8.50000000E-01  8.50000000E-01  8.50000000E-01
  8.00000000E-01  8.50000000E-01  8.50000000E-01  8.50000000E-01  8.00000000E-01
  8.50000000E-01  8.50000000E-01  8.50000000E-01  8.00000000E-01  8.50000000E-01
  8.50000000E-01  8.50000000E-01  8.00000000E-01  8.50000000E-01  8.50000000E-01
  8.50000000E-01  8.00000000E-01  8.50000000E-01  8.50000000E-01  8.50000000E-01
  8.00000000E-01  8.50000000E-01  8.50000000E-01  8.50000000E-01  8.00000000E-01
  8.50000000E-01  8.50000000E-01  8.50000000E-01  8.00000000E-01  8.50000000E-01
  8.50000000E-01  8.50000000E-01  8.00000000E-01  8.50000000E-01  8.50000000E-01
  8.50000000E-01  8.00000000E-01  8.50000000E-01  8.50000000E-01  8.50000000E-01
  8.00000000E-01  8.50000000E-01  8.50000000E-01  8.50000000E-01  8.00000000E-01
  8.50000000E-01  8.50000000E-01  8.50000000E-01  8.00000000E-01  8.50000000E-01
  8.50000000E-01  8.50000000E-01  8.00000000E-01  8.50000000E-01  8.50000000E-01
  8.50000000E-01  8.00000000E-01  8.50000000E-01  8.50000000E-01  8.50000000E-01
  8.00000000E-01  8.50000000E-01  8.50000000E-01  8.50000000E-01  8.00000000E-01
  8.50000000E-01  8.50000000E-01  8.50000000E-01  8.00000000E-01  8.50000000E-01
  8.50000000E-01  8.50000000E-01  8.00000000E-01  8.50000000E-01  8.50000000E-01
  8.50000000E-01  8.00000000E-01  8.50000000E-01  8.50000000E-01  8.50000000E-01
  8.00000000E-01  8.50000000E-01  8.50000000E-01  8.50000000E-01  8.00000000E-01
  8.50000000E-01  8.50000000E-01  8.50000000E-01  8.00000000E-01  8.50000000E-01
  8.50000000E-01  8.50000000E-01  8.00000000E-01  8.50000000E-01  8.50000000E-01
  8.50000000E-01  8.00000000E-01  8.50000000E-01  8.50000000E-01  8.50000000E-01
  8.00000000E-01  8.50000000E-01  8.50000000E-01  8.50000000E-01  8.00000000E-01
  8.50000000E-01  8.50000000E-01  8.50000000E-01  8.00000000E-01  8.50000000E-01
  8.50000000E-01  8.50000000E-01  8.00000000E-01  8.50000000E-01  8.50000000E-01
  8.50000000E-01  8.00000000E-01  8.50000000E-01  8.50000000E-01  8.50000000E-01
  8.00000000E-01  8.50000000E-01  8.50000000E-01  8.50000000E-01  8.00000000E-01
  8.50000000E-01  8.50000000E-01  8.50000000E-01  8.00000000E-01  8.50000000E-01
  8.50000000E-01  8.50000000E-01  8.00000000E-01  8.50000000E-01  8.50000000E-01
  8.50000000E-01  8.00000000E-01  8.50000000E-01  8.50000000E-01  8.50000000E-01
  8.00000000E-01  8.50000000E-01  8.50000000E-01  8.50000000E-01  8.00000000E-01
  8.50000000E-01  8.50000000E-01  8.50000000E-01  8.00000000E-01  8.50000000E-01
  8.50000000E-01  8.50000000E-01  8.00000000E-01  8.50000000E-01  8.50000000E-01
  8.50000000E-01  8.00000000E-01  8.50000000E-01  8.50000000E-01  8.50000000E-01
  8.00000000E-01  8.50000000E-01  8.50000000E-01  8.50000000E-01  8.00000000E-01
  8.50000000E-01  8.50000000E-01  8.50000000E-01  8.00000000E-01  8.50000000E-01
  8.50000000E-01  8.50000000E-01  8.00000000E-01  8.50000000E-01  8.50000000E-01
  8.50000000E-01  8.00000000E-01  8.50000000E-01  8.50000000E-01  8.50000000E-01
  8.00000000E-01  8.50000000E-01  8.50000000E-01  8.50000000E-01  8.00000000E-01
  8.50000000E-01  8.50000000E-01  8.50000000E-01  8.00000000E-01  8.50000000E-01
  8.50000000E-01  8.50000000E-01  8.00000000E-01  8.50000000E-01  8.50000000E-01
  8.50000000E-01  8.00000000E-01  8.50000000E-01  8.50000000E-01  8.50000000E-01
  8.00000000E-01  8.50000000E-01  8.50000000E-01  8.50000000E-01  8.00000000E-01
  8.50000000E-01  8.50000000E-01  8.50000000E-01  8.00000000E-01  8.50000000E-01
  8.50000000E-01  8.50000000E-01  8.00000000E-01  8.50000000E-01  8.50000000E-01
  8.50000000E-01  8.00000000E-01  8.50000000E-01  8.50000000E-01  8.50000000E-01
  8.00000000E-01  8.50000000E-01  8.50000000E-01  8.50000000E-01  8.00000000E-01
  8.50000000E-01  8.50000000E-01  8.50000000E-01  8.00000000E-01  8.50000000E-01
  8.50000000E-01  8.50000000E-01  8.00000000E-01  8.50000000E-01  8.50000000E-01
  8.50000000E-01  8.00000000E-01  8.50000000E-01  8.50000000E-01  8.50000000E-01
  8.00000000E-01  8.50000000E-01  8.50000000E-01  8.50000000E-01  8.00000000E-01
  8.50000000E-01  8.50000000E-01  8.50000000E-01  8.00000000E-01  8.50000000E-01
  8.50000000E-01  8.50000000E-01  8.00000000E-01  8.50000000E-01  8.50000000E-01
  8.50000000E-01  8.00000000E-01  8.50000000E-01  8.50000000E-01  8.50000000E-01
  8.00000000E-01  8.50000000E-01  8.50000000E-01  8.50000000E-01  8.00000000E-01
  8.50000000E-01  8.50000000E-01  8.50000000E-01  8.00000000E-01  8.50000000E-01
  8.50000000E-01  8.50000000E-01  8.00000000E-01  8.50000000E-01  8.50000000E-01
  8.50000000E-01  8.00000000E-01  8.50000000E-01  8.50000000E-01  8.50000000E-01
  8.00000000E-01  8.50000000E-01  8.50000000E-01  8.50000000E-01  8.00000000E-01
  8.50000000E-01  8.50000000E-01  8.50000000E-01  8.00000000E-01  8.50000000E-01
  8.50000000E-01  8.50000000E-01  8.00000000E-01  8.50000000E-01  8.50000000E-01
  8.50000000E-01  8.00000000E-01  8.50000000E-01  8.50000000E-01  8.50000000E-01
  8.00000000E-01  8.50000000E-01  8.50000000E-01  8.50000000E-01  8.00000000E-01
  8.50000000E-01  8.50000000E-01  8.50000000E-01  8.00000000E-01  8.50000000E-01
  8.50000000E-01  8.50000000E-01  8.00000000E-01  8.50000000E-01  8.50000000E-01
  8.50000000E-01  8.00000000E-01  8.50000000E-01  8.50000000E-01  8.50000000E-01
  8.00000000E-01  8.50000000E-01  8.50000000E-01  8.50000000E-01  8.00000000E-01
  8.50000000E-01  8.50000000E-01  8.50000000E-01  8.00000000E-01  8.50000000E-01
  8.50000000E-01  8.50000000E-01  8.00000000E-01  8.50000000E-01  8.50000000E-01
  8.50000000E-01  8.00000000E-01  8.50000000E-01  8.50000000E-01  8.50000000E-01
  8.00000000E-01  8.50000000E-01  8.50000000E-01  8.50000000E-01  8.00000000E-01
  8.50000000E-01  8.50000000E-01  8.50000000E-01  8.00000000E-01  8.50000000E-01
  8.50000000E-01  8.50000000E-01  8.00000000E-01  8.50000000E-01  8.50000000E-01
  8.50000000E-01  8.00000000E-01  8.50000000E-01  8.50000000E-01  8.50000000E-01
  8.00000000E-01  8.50000000E-01  8.50000000E-01  8.50000000E-01  8.00000000E-01
  8.50000000E-01  8.50000000E-01  8.50000000E-01  8.00000000E-01  8.50000000E-01
  8.50000000E-01  8.50000000E-01  8.00000000E-01  8.50000000E-01  8.50000000E-01
  8.50000000E-01  8.00000000E-01  8.50000000E-01  8.50000000E-01  8.50000000E-01
  8.00000000E-01  8.50000000E-01  8.50000000E-01  8.50000000E-01  8.00000000E-01
  8.50000000E-01  8.50000000E-01  8.50000000E-01  8.00000000E-01  8.50000000E-01
  8.50000000E-01  8.50000000E-01  8.00000000E-01  8.50000000E-01  8.50000000E-01
  8.50000000E-01  8.00000000E-01  8.50000000E-01  8.50000000E-01  8.50000000E-01
  8.00000000E-01  8.50000000E-01  8.50000000E-01  8.50000000E-01  8.00000000E-01
  8.50000000E-01  8.50000000E-01  8.50000000E-01  8.00000000E-01  8.50000000E-01
  8.50000000E-01  8.50000000E-01  8.00000000E-01  8.50000000E-01  8.50000000E-01
  8.50000000E-01  8.00000000E-01  8.50000000E-01  8.50000000E-01  8.50000000E-01
  8.00000000E-01  8.50000000E-01  8.50000000E-01  8.50000000E-01  8.00000000E-01
  8.50000000E-01  8.50000000E-01  8.50000000E-01  8.00000000E-01  8.50000000E-01
  8.50000000E-01  8.50000000E-01  8.00000000E-01  8.50000000E-01  8.50000000E-01
  8.50000000E-01  8.00000000E-01  8.50000000E-01  8.50000000E-01  8.50000000E-01
  8.00000000E-01  8.50000000E-01  8.50000000E-01  8.50000000E-01  8.00000000E-01
  8.50000000E-01  8.50000000E-01  8.50000000E-01  8.00000000E-01  8.50000000E-01
  8.50000000E-01  8.50000000E-01  8.00000000E-01  8.50000000E-01  8.50000000E-01
  8.50000000E-01  8.00000000E-01  8.50000000E-01  8.50000000E-01  8.50000000E-01
  8.00000000E-01  8.50000000E-01  8.50000000E-01  8.50000000E-01  8.00000000E-01
  8.50000000E-01  8.50000000E-01  8.50000000E-01  8.00000000E-01  8.50000000E-01
  8.50000000E-01  8.50000000E-01  8.00000000E-01  8.50000000E-01  8.50000000E-01
  8.50000000E-01  8.00000000E-01  8.50000000E-01  8.50000000E-01  8.50000000E-01
  8.00000000E-01  8.50000000E-01  8.50000000E-01  8.50000000E-01  8.00000000E-01
  8.50000000E-01  8.50000000E-01  8.50000000E-01  8.00000000E-01  8.50000000E-01
  8.50000000E-01  8.50000000E-01  8.00000000E-01  8.50000000E-01  8.50000000E-01
  8.50000000E-01  8.00000000E-01  8.50000000E-01  8.50000000E-01  8.50000000E-01
  8.00000000E-01  8.50000000E-01  8.50000000E-01  8.50000000E-01  8.00000000E-01
  8.50000000E-01  8.50000000E-01  8.50000000E-01  8.00000000E-01  8.50000000E-01
  8.50000000E-01  8.50000000E-01  8.00000000E-01  8.50000000E-01  8.50000000E-01
  8.50000000E-01  8.00000000E-01  8.50000000E-01  8.50000000E-01  8.50000000E-01
  8.00000000E-01  8.50000000E-01  8.50000000E-01  8.50000000E-01  8.00000000E-01
  8.50000000E-01  8.50000000E-01  8.50000000E-01  8.00000000E-01  8.50000000E-01
  8.50000000E-01  8.50000000E-01  8.00000000E-01  8.50000000E-01  8.50000000E-01
  8.50000000E-01  8.00000000E-01  8.50000000E-01  8.50000000E-01  8.50000000E-01
  8.00000000E-01  8.50000000E-01  8.50000000E-01  8.50000000E-01  8.00000000E-01
  8.50000000E-01  8.50000000E-01  8.50000000E-01  8.00000000E-01  8.50000000E-01
  8.50000000E-01  8.50000000E-01  8.00000000E-01  8.50000000E-01  8.50000000E-01
  8.50000000E-01  8.00000000E-01  8.50000000E-01  8.50000000E-01  8.50000000E-01
  8.00000000E-01  8.50000000E-01  8.50000000E-01  8.50000000E-01  8.00000000E-01
  8.50000000E-01  8.50000000E-01  8.50000000E-01  8.00000000E-01  8.50000000E-01
  8.50000000E-01  8.50000000E-01  8.00000000E-01  8.50000000E-01  8.50000000E-01
  8.50000000E-01  8.00000000E-01  8.50000000E-01  8.50000000E-01  8.50000000E-01
  8.00000000E-01  8.50000000E-01  8.50000000E-01  8.50000000E-01  8.00000000E-01
  8.50000000E-01  8.50000000E-01  8.50000000E-01  8.00000000E-01  8.50000000E-01
  8.50000000E-01  8.50000000E-01  8.00000000E-01  8.50000000E-01  8.50000000E-01
  8.50000000E-01  8.00000000E-01  8.50000000E-01  8.50000000E-01  8.50000000E-01
  8.00000000E-01  8.50000000E-01  8.50000000E-01  8.50000000E-01  8.00000000E-01
  8.50000000E-01  8.50000000E-01  8.50000000E-01  8.00000000E-01  8.50000000E-01
  8.50000000E-01  8.50000000E-01  8.00000000E-01  8.50000000E-01  8.50000000E-01
  8.50000000E-01  8.00000000E-01  8.50000000E-01  8.50000000E-01  8.50000000E-01
  8.00000000E-01  8.50000000E-01  8.50000000E-01  8.50000000E-01  8.00000000E-01
  8.50000000E-01  8.50000000E-01  8.50000000E-01  8.00000000E-01  8.50000000E-01
  8.50000000E-01  8.50000000E-01  8.00000000E-01  8.50000000E-01  8.50000000E-01
  8.50000000E-01  8.00000000E-01  8.50000000E-01  8.50000000E-01  8.50000000E-01
  8.00000000E-01  8.50000000E-01  8.50000000E-01  8.50000000E-01  8.00000000E-01
  8.50000000E-01  8.50000000E-01  8.50000000E-01  8.00000000E-01  8.50000000E-01
  8.50000000E-01  8.50000000E-01  8.00000000E-01  8.50000000E-01  8.50000000E-01
  8.50000000E-01  8.00000000E-01  8.50000000E-01  8.50000000E-01  8.50000000E-01
  8.00000000E-01  8.50000000E-01  8.50000000E-01  8.50000000E-01  8.00000000E-01
  8.50000000E-01  8.50000000E-01  8.50000000E-01  8.00000000E-01  8.50000000E-01
  8.50000000E-01  8.50000000E-01  8.00000000E-01  8.50000000E-01  8.50000000E-01
  8.50000000E-01  8.00000000E-01  8.50000000E-01  8.50000000E-01  8.50000000E-01
  8.00000000E-01  8.50000000E-01  8.50000000E-01  8.50000000E-01  8.00000000E-01
  8.50000000E-01  8.50000000E-01  8.50000000E-01  8.00000000E-01  8.50000000E-01
  8.50000000E-01  8.50000000E-01  8.00000000E-01  8.50000000E-01  8.50000000E-01
  8.50000000E-01  8.00000000E-01  8.50000000E-01  8.50000000E-01  8.50000000E-01
  8.00000000E-01  8.50000000E-01  8.50000000E-01  8.50000000E-01  8.00000000E-01
  8.50000000E-01  8.50000000E-01  8.50000000E-01  8.00000000E-01  8.50000000E-01
  8.50000000E-01  8.50000000E-01  8.00000000E-01  8.50000000E-01  8.50000000E-01
  8.50000000E-01  8.00000000E-01  8.50000000E-01  8.50000000E-01  8.50000000E-01
  8.00000000E-01  8.50000000E-01  8.50000000E-01  8.50000000E-01  8.00000000E-01
  8.50000000E-01  8.50000000E-01  8.50000000E-01  8.00000000E-01  8.50000000E-01
  8.50000000E-01  8.50000000E-01  8.00000000E-01  8.50000000E-01  8.50000000E-01
  8.50000000E-01  8.00000000E-01  8.50000000E-01  8.50000000E-01  8.50000000E-01
  8.00000000E-01  8.50000000E-01  8.50000000E-01  8.50000000E-01  8.00000000E-01
  8.50000000E-01  8.50000000E-01  8.50000000E-01  8.00000000E-01  8.50000000E-01
  8.50000000E-01  8.50000000E-01  8.00000000E-01  8.50000000E-01  8.50000000E-01
  8.50000000E-01  8.00000000E-01  8.50000000E-01  8.50000000E-01  8.50000000E-01
  8.00000000E-01  8.50000000E-01  8.50000000E-01  8.50000000E-01  8.00000000E-01
  8.50000000E-01  8.50000000E-01  8.50000000E-01  8.00000000E-01  8.50000000E-01
  8.50000000E-01  8.50000000E-01  8.00000000E-01  8.50000000E-01  8.50000000E-01
  8.50000000E-01  8.00000000E-01  8.50000000E-01  8.50000000E-01  8.50000000E-01
  8.00000000E-01  8.50000000E-01  8.50000000E-01  8.50000000E-01  8.00000000E-01
  8.50000000E-01  8.50000000E-01  8.50000000E-01  8.00000000E-01  8.50000000E-01
  8.50000000E-01  8.50000000E-01  8.00000000E-01  8.50000000E-01  8.50000000E-01
  8.50000000E-01  8.00000000E-01  8.50000000E-01  8.50000000E-01  8.50000000E-01
  8.00000000E-01  8.50000000E-01  8.50000000E-01  8.50000000E-01  8.00000000E-01
  8.50000000E-01  8.50000000E-01  8.50000000E-01  8.00000000E-01  8.50000000E-01
  8.50000000E-01  8.50000000E-01  8.00000000E-01  8.50000000E-01  8.50000000E-01
  8.50000000E-01  8.00000000E-01  8.50000000E-01  8.50000000E-01  8.50000000E-01
  8.00000000E-01  8.50000000E-01  8.50000000E-01  8.50000000E-01  8.00000000E-01
  8.50000000E-01  8.50000000E-01  8.50000000E-01  8.00000000E-01  8.50000000E-01
  8.50000000E-01  8.50000000E-01  8.00000000E-01  8.50000000E-01  8.50000000E-01
  8.50000000E-01  8.00000000E-01  8.50000000E-01  8.50000000E-01  8.50000000E-01
  8.00000000E-01  8.50000000E-01  8.50000000E-01  8.50000000E-01  8.00000000E-01
  8.50000000E-01  8.50000000E-01  8.50000000E-01  8.00000000E-01  8.50000000E-01
  8.50000000E-01  8.50000000E-01  8.00000000E-01  8.50000000E-01  8.50000000E-01
  8.50000000E-01  8.00000000E-01  8.50000000E-01  8.50000000E-01  8.50000000E-01
  8.00000000E-01  8.50000000E-01  8.50000000E-01  8.50000000E-01  8.00000000E-01
  8.50000000E-01  8.50000000E-01  8.50000000E-01  8.00000000E-01  8.50000000E-01
  8.50000000E-01  8.50000000E-01  8.00000000E-01  8.50000000E-01  8.50000000E-01
  8.50000000E-01  8.00000000E-01  8.50000000E-01  8.50000000E-01  8.50000000E-01
  8.00000000E-01  8.50000000E-01  8.50000000E-01  8.50000000E-01  8.00000000E-01
  8.50000000E-01  8.50000000E-01  8.50000000E-01  8.00000000E-01  8.50000000E-01
  8.50000000E-01  8.50000000E-01  8.00000000E-01  8.50000000E-01  8.50000000E-01
  8.50000000E-01  8.00000000E-01  8.50000000E-01  8.50000000E-01  8.50000000E-01
  8.00000000E-01  8.50000000E-01  8.50000000E-01  8.50000000E-01  8.00000000E-01
  8.50000000E-01  8.50000000E-01  8.50000000E-01  8.00000000E-01  8.50000000E-01
  8.50000000E-01  8.50000000E-01  8.00000000E-01  8.50000000E-01  8.50000000E-01
  8.50000000E-01  8.00000000E-01  8.50000000E-01  8.50000000E-01  8.50000000E-01
  8.00000000E-01  8.50000000E-01  8.50000000E-01  8.50000000E-01  8.00000000E-01
  8.50000000E-01  8.50000000E-01  8.50000000E-01  8.00000000E-01  8.50000000E-01
  8.50000000E-01  8.50000000E-01  8.00000000E-01  8.50000000E-01  8.50000000E-01
  8.50000000E-01  8.00000000E-01  8.50000000E-01  8.50000000E-01  8.50000000E-01
  8.00000000E-01  8.50000000E-01  8.50000000E-01  8.50000000E-01  8.00000000E-01
  8.50000000E-01  8.50000000E-01  8.50000000E-01  8.00000000E-01  8.50000000E-01
  8.50000000E-01  8.50000000E-01  8.00000000E-01  8.50000000E-01  8.50000000E-01
  8.50000000E-01  8.00000000E-01  8.50000000E-01  8.50000000E-01  8.50000000E-01
  8.00000000E-01  8.50000000E-01  8.50000000E-01  8.50000000E-01  8.00000000E-01
  8.50000000E-01  8.50000000E-01  8.50000000E-01  8.00000000E-01  8.50000000E-01
  8.50000000E-01  8.50000000E-01  8.00000000E-01  8.50000000E-01  8.50000000E-01
  8.50000000E-01  8.00000000E-01  8.50000000E-01  8.50000000E-01  8.50000000E-01
  8.00000000E-01  8.50000000E-01  8.50000000E-01  8.50000000E-01  8.00000000E-01
  8.50000000E-01  8.50000000E-01  8.50000000E-01  8.00000000E-01  8.50000000E-01
  8.50000000E-01  8.50000000E-01  8.00000000E-01  8.50000000E-01  8.50000000E-01
  8.50000000E-01  8.00000000E-01  8.50000000E-01  8.50000000E-01  8.50000000E-01
  8.00000000E-01  8.50000000E-01  8.50000000E-01  8.50000000E-01  8.00000000E-01
  8.50000000E-01  8.50000000E-01  8.50000000E-01  8.00000000E-01  8.50000000E-01
  8.50000000E-01  8.50000000E-01  8.00000000E-01  8.50000000E-01  8.50000000E-01
  8.50000000E-01  8.00000000E-01  8.50000000E-01  8.50000000E-01  8.50000000E-01
  8.00000000E-01  8.50000000E-01  8.50000000E-01  8.50000000E-01  8.00000000E-01
  8.50000000E-01  8.50000000E-01  8.50000000E-01  8.00000000E-01  8.50000000E-01
  8.50000000E-01  8.50000000E-01  8.00000000E-01  8.50000000E-01  8.50000000E-01
  8.50000000E-01  8.00000000E-01  8.50000000E-01  8.50000000E-01  8.50000000E-01
  8.00000000E-01  8.50000000E-01  8.50000000E-01  8.50000000E-01  8.00000000E-01
  8.50000000E-01  8.50000000E-01  8.50000000E-01  8.00000000E-01  8.50000000E-01
  8.50000000E-01  8.50000000E-01  8.00000000E-01  8.50000000E-01  8.50000000E-01
  8.50000000E-01  8.00000000E-01  8.50000000E-01  8.50000000E-01  8.50000000E-01
  8.00000000E-01  8.50000000E-01  8.50000000E-01  8.50000000E-01  8.00000000E-01
  8.50000000E-01  8.50000000E-01  8.50000000E-01  8.00000000E-01  8.50000000E-01
  8.50000000E-01  8.50000000E-01  8.00000000E-01  8.50000000E-01  8.50000000E-01
  8.50000000E-01  8.00000000E-01  8.50000000E-01  8.50000000E-01  8.50000000E-01
  8.00000000E-01  8.50000000E-01  8.50000000E-01  8.50000000E-01  8.00000000E-01
  8.50000000E-01  8.50000000E-01  8.50000000E-01  8.00000000E-01  8.50000000E-01
  8.50000000E-01  8.50000000E-01  8.00000000E-01  8.50000000E-01  8.50000000E-01
  8.50000000E-01  8.00000000E-01  8.50000000E-01  8.50000000E-01  8.50000000E-01
  8.00000000E-01  8.50000000E-01  8.50000000E-01  8.50000000E-01  8.00000000E-01
  8.50000000E-01  8.50000000E-01  8.50000000E-01  8.00000000E-01  8.50000000E-01
  8.50000000E-01  8.50000000E-01  8.00000000E-01  8.50000000E-01  8.50000000E-01
  8.50000000E-01  8.00000000E-01  8.50000000E-01  8.50000000E-01  8.50000000E-01
  8.00000000E-01  8.50000000E-01  8.50000000E-01  8.50000000E-01  8.00000000E-01
  8.50000000E-01  8.50000000E-01  8.50000000E-01  8.00000000E-01  8.50000000E-01
  8.50000000E-01  8.50000000E-01  8.00000000E-01  8.50000000E-01  8.50000000E-01
  8.50000000E-01  8.00000000E-01  8.50000000E-01  8.50000000E-01  8.50000000E-01
  8.00000000E-01  8.50000000E-01  8.50000000E-01  8.50000000E-01  8.00000000E-01
  8.50000000E-01  8.50000000E-01  8.50000000E-01  8.00000000E-01  8.50000000E-01
  8.50000000E-01  8.50000000E-01  8.00000000E-01  8.50000000E-01  8.50000000E-01
  8.50000000E-01  8.00000000E-01  8.50000000E-01  8.50000000E-01  8.50000000E-01
  8.00000000E-01  8.50000000E-01  8.50000000E-01  8.50000000E-01  8.00000000E-01
  8.50000000E-01  8.50000000E-01  8.50000000E-01  8.00000000E-01  8.50000000E-01
  8.50000000E-01  8.50000000E-01  8.00000000E-01  8.50000000E-01  8.50000000E-01
  8.50000000E-01  8.00000000E-01  8.50000000E-01  8.50000000E-01  8.50000000E-01
  8.00000000E-01  8.50000000E-01  8.50000000E-01  8.50000000E-01  8.00000000E-01
  8.50000000E-01  8.50000000E-01  8.50000000E-01  8.00000000E-01  8.50000000E-01
  8.50000000E-01  8.50000000E-01  8.00000000E-01  8.50000000E-01  8.50000000E-01
  8.50000000E-01  8.00000000E-01  8.50000000E-01  8.50000000E-01  8.50000000E-01
  8.00000000E-01  8.50000000E-01  8.50000000E-01  8.50000000E-01  8.00000000E-01
  8.50000000E-01  8.50000000E-01  8.50000000E-01  8.00000000E-01  8.50000000E-01
  8.50000000E-01  8.50000000E-01  8.00000000E-01  8.50000000E-01  8.50000000E-01
  8.50000000E-01  8.00000000E-01  8.50000000E-01  8.50000000E-01  8.50000000E-01
  8.00000000E-01  8.50000000E-01  8.50000000E-01  8.50000000E-01  8.00000000E-01
  8.50000000E-01  8.50000000E-01  8.50000000E-01  8.00000000E-01  8.50000000E-01
  8.50000000E-01  8.50000000E-01  8.00000000E-01  8.50000000E-01  8.50000000E-01
  8.50000000E-01  8.00000000E-01  8.50000000E-01  8.50000000E-01  8.50000000E-01
  8.00000000E-01  8.50000000E-01  8.50000000E-01  8.50000000E-01  8.00000000E-01
  8.50000000E-01  8.50000000E-01  8.50000000E-01  8.00000000E-01  8.50000000E-01
  8.50000000E-01  8.50000000E-01  8.00000000E-01  8.50000000E-01  8.50000000E-01
  8.50000000E-01  8.00000000E-01  8.50000000E-01  8.50000000E-01  8.50000000E-01
  8.00000000E-01  8.50000000E-01  8.50000000E-01  8.50000000E-01  8.00000000E-01
  8.50000000E-01  8.50000000E-01  8.50000000E-01  8.00000000E-01  8.50000000E-01
  8.50000000E-01  8.50000000E-01  8.00000000E-01  8.50000000E-01  8.50000000E-01
  8.50000000E-01  8.00000000E-01  8.50000000E-01  8.50000000E-01  8.50000000E-01
  8.00000000E-01  8.50000000E-01  8.50000000E-01  8.50000000E-01  8.00000000E-01
  8.50000000E-01  8.50000000E-01  8.50000000E-01  8.00000000E-01  8.50000000E-01
  8.50000000E-01  8.50000000E-01  8.00000000E-01  8.50000000E-01  8.50000000E-01
  8.50000000E-01  8.00000000E-01  8.50000000E-01  8.50000000E-01  8.50000000E-01
  8.00000000E-01  8.50000000E-01  8.50000000E-01  8.50000000E-01  8.00000000E-01
  8.50000000E-01  8.50000000E-01  8.50000000E-01  8.00000000E-01  8.50000000E-01
  8.50000000E-01  8.50000000E-01  8.00000000E-01  8.50000000E-01  8.50000000E-01
  8.50000000E-01  8.00000000E-01  8.50000000E-01  8.50000000E-01  8.50000000E-01
  8.00000000E-01  8.50000000E-01  8.50000000E-01  8.50000000E-01  8.00000000E-01
  8.50000000E-01  8.50000000E-01  8.50000000E-01  8.00000000E-01  8.50000000E-01
  8.50000000E-01  8.50000000E-01  8.00000000E-01  8.50000000E-01  8.50000000E-01
  8.50000000E-01  8.00000000E-01  8.50000000E-01  8.50000000E-01  8.50000000E-01
  8.00000000E-01  8.50000000E-01  8.50000000E-01  8.50000000E-01  8.00000000E-01
  8.50000000E-01  8.50000000E-01  8.50000000E-01  8.00000000E-01  8.50000000E-01
  8.50000000E-01  8.50000000E-01  8.00000000E-01  8.50000000E-01  8.50000000E-01
  8.50000000E-01  8.00000000E-01  8.50000000E-01  8.50000000E-01  8.50000000E-01
  8.00000000E-01  8.50000000E-01  8.50000000E-01  8.50000000E-01  8.00000000E-01
  8.50000000E-01  8.50000000E-01  8.50000000E-01  8.00000000E-01  8.50000000E-01
  8.50000000E-01  8.50000000E-01  8.00000000E-01  8.50000000E-01  8.50000000E-01
  8.50000000E-01  8.00000000E-01  8.50000000E-01  8.50000000E-01  8.50000000E-01
  8.00000000E-01  8.50000000E-01  8.50000000E-01  8.50000000E-01  8.00000000E-01
  8.50000000E-01  8.50000000E-01  8.50000000E-01  8.00000000E-01  8.50000000E-01
  8.50000000E-01  8.50000000E-01  8.00000000E-01  8.50000000E-01  8.50000000E-01
  8.50000000E-01  8.00000000E-01  8.50000000E-01  8.50000000E-01  8.50000000E-01
  8.00000000E-01  8.50000000E-01  8.50000000E-01  8.50000000E-01  8.00000000E-01
  8.50000000E-01  8.50000000E-01  8.50000000E-01  8.00000000E-01  8.50000000E-01
  8.50000000E-01  8.50000000E-01  8.00000000E-01  8.50000000E-01  8.50000000E-01
  8.50000000E-01  8.00000000E-01  8.50000000E-01  8.50000000E-01  8.50000000E-01
  8.00000000E-01  8.50000000E-01  8.50000000E-01  8.50000000E-01  8.00000000E-01
  8.50000000E-01  8.50000000E-01  8.50000000E-01  8.00000000E-01  8.50000000E-01
  8.50000000E-01  8.50000000E-01  8.00000000E-01  8.50000000E-01  8.50000000E-01
  8.50000000E-01  8.00000000E-01  8.50000000E-01  8.50000000E-01  8.50000000E-01
  8.00000000E-01  8.50000000E-01  8.50000000E-01  8.50000000E-01  8.00000000E-01
  8.50000000E-01  8.50000000E-01  8.50000000E-01  8.00000000E-01  8.50000000E-01
  8.50000000E-01  8.50000000E-01  8.00000000E-01  8.50000000E-01  8.50000000E-01
  8.50000000E-01  8.00000000E-01  8.50000000E-01  8.50000000E-01  8.50000000E-01
  8.00000000E-01  8.50000000E-01  8.50000000E-01  8.50000000E-01  8.00000000E-01
  8.50000000E-01  8.50000000E-01  8.50000000E-01  8.00000000E-01  8.50000000E-01
  8.50000000E-01  8.50000000E-01  8.00000000E-01  8.50000000E-01  8.50000000E-01
  8.50000000E-01  8.00000000E-01  8.50000000E-01  8.50000000E-01  8.50000000E-01
  8.00000000E-01  8.50000000E-01  8.50000000E-01  8.50000000E-01  8.00000000E-01
  8.50000000E-01  8.50000000E-01  8.50000000E-01  8.00000000E-01  8.50000000E-01
  8.50000000E-01  8.50000000E-01  8.00000000E-01  8.50000000E-01  8.50000000E-01
  8.50000000E-01  8.00000000E-01  8.50000000E-01  8.50000000E-01  8.50000000E-01
  8.00000000E-01  8.50000000E-01  8.50000000E-01  8.50000000E-01  8.00000000E-01
  8.50000000E-01  8.50000000E-01  8.50000000E-01  8.00000000E-01  8.50000000E-01
  8.50000000E-01  8.50000000E-01  8.00000000E-01  8.50000000E-01  8.50000000E-01
  8.50000000E-01  8.00000000E-01  8.50000000E-01  8.50000000E-01  8.50000000E-01
  8.00000000E-01  8.50000000E-01  8.50000000E-01  8.50000000E-01  8.00000000E-01
  8.50000000E-01  8.50000000E-01  8.50000000E-01  8.00000000E-01  8.50000000E-01
  8.50000000E-01  8.50000000E-01  8.00000000E-01  8.50000000E-01  8.50000000E-01
  8.50000000E-01  8.00000000E-01  8.50000000E-01  8.50000000E-01  8.50000000E-01
  8.00000000E-01  8.50000000E-01  8.50000000E-01  8.50000000E-01  8.00000000E-01
  8.50000000E-01  8.50000000E-01  8.50000000E-01  8.00000000E-01  8.50000000E-01
  8.50000000E-01  8.50000000E-01  8.00000000E-01  8.50000000E-01  8.50000000E-01
  8.50000000E-01  8.00000000E-01  8.50000000E-01  8.50000000E-01  8.50000000E-01
  8.00000000E-01  8.50000000E-01  8.50000000E-01  8.50000000E-01  8.00000000E-01
  8.50000000E-01  8.50000000E-01  8.50000000E-01  8.00000000E-01  8.50000000E-01
  8.50000000E-01  8.50000000E-01  8.00000000E-01  8.50000000E-01  8.50000000E-01
  8.50000000E-01  8.00000000E-01  8.50000000E-01  8.50000000E-01  8.50000000E-01
  8.00000000E-01  8.50000000E-01  8.50000000E-01  8.50000000E-01  8.00000000E-01
  8.50000000E-01  8.50000000E-01  8.50000000E-01  8.00000000E-01  8.50000000E-01
  8.50000000E-01  8.50000000E-01  8.00000000E-01  8.50000000E-01  8.50000000E-01
  8.50000000E-01  8.00000000E-01  8.50000000E-01  8.50000000E-01  8.50000000E-01
  8.00000000E-01  8.50000000E-01  8.50000000E-01  8.50000000E-01  8.00000000E-01
  8.50000000E-01  8.50000000E-01  8.50000000E-01  8.00000000E-01  8.50000000E-01
  8.50000000E-01  8.50000000E-01  8.00000000E-01  8.50000000E-01  8.50000000E-01
  8.50000000E-01  8.00000000E-01  8.50000000E-01  8.50000000E-01  8.50000000E-01
  8.00000000E-01  8.50000000E-01  8.50000000E-01  8.50000000E-01  8.00000000E-01
  8.50000000E-01  8.50000000E-01  8.50000000E-01  8.00000000E-01  8.50000000E-01
  8.50000000E-01  8.50000000E-01  8.00000000E-01  8.50000000E-01  8.50000000E-01
  8.50000000E-01  8.00000000E-01  8.50000000E-01  8.50000000E-01  8.50000000E-01
  8.00000000E-01  8.50000000E-01  8.50000000E-01  8.50000000E-01  8.00000000E-01
  8.50000000E-01  8.50000000E-01  8.50000000E-01  8.00000000E-01  8.50000000E-01
  8.50000000E-01  8.50000000E-01  8.00000000E-01  8.50000000E-01  8.50000000E-01
  8.50000000E-01  8.00000000E-01  8.50000000E-01  8.50000000E-01  8.50000000E-01
  8.00000000E-01  8.50000000E-01  8.50000000E-01  8.50000000E-01  8.00000000E-01
  8.50000000E-01  8.50000000E-01  8.50000000E-01  8.00000000E-01  8.50000000E-01
  8.50000000E-01  8.50000000E-01  8.00000000E-01  8.50000000E-01  8.50000000E-01
  8.50000000E-01  8.00000000E-01  8.50000000E-01  8.50000000E-01  8.50000000E-01
  8.00000000E-01  8.50000000E-01  8.50000000E-01  8.50000000E-01  8.00000000E-01
  8.50000000E-01  8.50000000E-01  8.50000000E-01  8.00000000E-01  8.50000000E-01
  8.50000000E-01  8.50000000E-01  8.00000000E-01  8.50000000E-01  8.50000000E-01
  8.50000000E-01  8.00000000E-01  8.50000000E-01  8.50000000E-01  8.50000000E-01
  8.00000000E-01  8.50000000E-01  8.50000000E-01  8.50000000E-01  8.00000000E-01
  8.50000000E-01  8.50000000E-01  8.50000000E-01  8.00000000E-01  8.50000000E-01
  8.50000000E-01  8.50000000E-01  8.00000000E-01  8.50000000E-01  8.50000000E-01
  8.50000000E-01  8.00000000E-01  8.50000000E-01  8.50000000E-01  8.50000000E-01
  8.00000000E-01  8.50000000E-01  8.50000000E-01  8.50000000E-01  8.00000000E-01
  8.50000000E-01  8.50000000E-01  8.50000000E-01  8.00000000E-01  8.50000000E-01
  8.50000000E-01  8.50000000E-01  8.00000000E-01  8.50000000E-01  8.50000000E-01
  8.50000000E-01  8.00000000E-01  8.50000000E-01  8.50000000E-01  8.50000000E-01
  8.00000000E-01  8.50000000E-01  8.50000000E-01  8.50000000E-01  8.00000000E-01
  8.50000000E-01  8.50000000E-01  8.50000000E-01  8.00000000E-01  8.50000000E-01
  8.50000000E-01  8.50000000E-01  8.00000000E-01  8.50000000E-01  8.50000000E-01
  8.50000000E-01  8.00000000E-01  8.50000000E-01  8.50000000E-01  8.50000000E-01
  8.00000000E-01  8.50000000E-01  8.50000000E-01  8.50000000E-01  8.00000000E-01
  8.50000000E-01  8.50000000E-01  8.50000000E-01  8.00000000E-01  8.50000000E-01
  8.50000000E-01  8.50000000E-01  8.00000000E-01  8.50000000E-01  8.50000000E-01
  8.50000000E-01  8.00000000E-01  8.50000000E-01  8.50000000E-01  8.50000000E-01
  8.00000000E-01  8.50000000E-01  8.50000000E-01  8.50000000E-01  8.00000000E-01
  8.50000000E-01  8.50000000E-01  8.50000000E-01  8.00000000E-01  8.50000000E-01
  8.50000000E-01  8.50000000E-01  8.00000000E-01  8.50000000E-01  8.50000000E-01
  8.50000000E-01  8.00000000E-01  8.50000000E-01  8.50000000E-01  8.50000000E-01
  8.00000000E-01  8.50000000E-01  8.50000000E-01  8.50000000E-01  8.00000000E-01
  8.50000000E-01  8.50000000E-01  8.50000000E-01  8.00000000E-01  8.50000000E-01
  8.50000000E-01  8.50000000E-01  8.00000000E-01  8.50000000E-01  8.50000000E-01
  8.50000000E-01  8.00000000E-01  8.50000000E-01  8.50000000E-01  8.50000000E-01
  8.00000000E-01  8.50000000E-01  8.50000000E-01  8.50000000E-01  8.00000000E-01
  8.50000000E-01  8.50000000E-01  8.50000000E-01  8.00000000E-01  8.50000000E-01
  8.50000000E-01  8.50000000E-01  8.00000000E-01  8.50000000E-01  8.50000000E-01
  8.50000000E-01  8.00000000E-01  8.50000000E-01  8.50000000E-01  8.50000000E-01
  8.00000000E-01  8.50000000E-01  8.50000000E-01  8.50000000E-01  8.00000000E-01
  8.50000000E-01  8.50000000E-01  8.50000000E-01  8.00000000E-01  8.50000000E-01
  8.50000000E-01  8.50000000E-01  8.00000000E-01  8.50000000E-01  8.50000000E-01
  8.50000000E-01  8.00000000E-01  8.50000000E-01  8.50000000E-01  8.50000000E-01
  8.00000000E-01  8.50000000E-01  8.50000000E-01  8.50000000E-01  8.00000000E-01
  8.50000000E-01  8.50000000E-01  8.50000000E-01  8.00000000E-01  8.50000000E-01
  8.50000000E-01  8.50000000E-01  8.00000000E-01  8.50000000E-01  8.50000000E-01
  8.50000000E-01  8.00000000E-01  8.50000000E-01  8.50000000E-01  8.50000000E-01
  8.00000000E-01  8.50000000E-01  8.50000000E-01  8.50000000E-01  8.00000000E-01
  8.50000000E-01  8.50000000E-01  8.50000000E-01  8.00000000E-01  8.50000000E-01
  8.50000000E-01  8.50000000E-01  8.00000000E-01  8.50000000E-01  8.50000000E-01
  8.50000000E-01  8.00000000E-01  8.50000000E-01  8.50000000E-01  8.50000000E-01
  8.00000000E-01  8.50000000E-01  8.50000000E-01  8.50000000E-01  8.00000000E-01
  8.50000000E-01  8.50000000E-01  8.50000000E-01  8.00000000E-01  8.50000000E-01
  8.50000000E-01  8.50000000E-01  8.00000000E-01  8.50000000E-01  8.50000000E-01
  8.50000000E-01  8.00000000E-01  8.50000000E-01  8.50000000E-01  8.50000000E-01
  8.00000000E-01  8.50000000E-01  8.50000000E-01  8.50000000E-01  8.00000000E-01
  8.50000000E-01  8.50000000E-01  8.50000000E-01  8.00000000E-01  8.50000000E-01
  8.50000000E-01  8.50000000E-01  8.00000000E-01  8.50000000E-01  8.50000000E-01
  8.50000000E-01  8.00000000E-01  8.50000000E-01  8.50000000E-01  8.50000000E-01
  8.00000000E-01  8.50000000E-01  8.50000000E-01  8.50000000E-01  8.00000000E-01
  8.50000000E-01  8.50000000E-01  8.50000000E-01  8.00000000E-01  8.50000000E-01
  8.50000000E-01  8.50000000E-01  8.00000000E-01  8.50000000E-01  8.50000000E-01
  8.50000000E-01  8.00000000E-01  8.50000000E-01  8.50000000E-01  8.50000000E-01
  8.00000000E-01  8.50000000E-01  8.50000000E-01  8.50000000E-01  8.00000000E-01
  8.50000000E-01  8.50000000E-01  8.50000000E-01  8.00000000E-01  8.50000000E-01
  8.50000000E-01  8.50000000E-01  8.00000000E-01  8.50000000E-01  8.50000000E-01
  8.50000000E-01  8.00000000E-01  8.50000000E-01  8.50000000E-01  8.50000000E-01
  8.00000000E-01  8.50000000E-01  8.50000000E-01  8.50000000E-01  8.00000000E-01
  8.50000000E-01  8.50000000E-01  8.50000000E-01  8.00000000E-01  8.50000000E-01
  8.50000000E-01  8.50000000E-01  8.00000000E-01  8.50000000E-01  8.50000000E-01
  8.50000000E-01  8.00000000E-01  8.50000000E-01  8.50000000E-01  8.50000000E-01
  8.00000000E-01  8.50000000E-01  8.50000000E-01  8.50000000E-01  8.00000000E-01
  8.50000000E-01  8.50000000E-01  8.50000000E-01  8.00000000E-01  8.50000000E-01
  8.50000000E-01  8.50000000E-01  8.00000000E-01  8.50000000E-01  8.50000000E-01
  8.50000000E-01  8.00000000E-01  8.50000000E-01  8.50000000E-01  8.50000000E-01
  8.00000000E-01  8.50000000E-01  8.50000000E-01  8.50000000E-01  8.00000000E-01
  8.50000000E-01  8.50000000E-01  8.50000000E-01  8.00000000E-01  8.50000000E-01
  8.50000000E-01  8.50000000E-01  8.00000000E-01  8.50000000E-01  8.50000000E-01
  8.50000000E-01  8.00000000E-01  8.50000000E-01  8.50000000E-01  8.50000000E-01
  8.00000000E-01  8.50000000E-01  8.50000000E-01  8.50000000E-01  8.00000000E-01
  8.50000000E-01  8.50000000E-01  8.50000000E-01  8.00000000E-01  8.50000000E-01
  8.50000000E-01  8.50000000E-01  8.00000000E-01  8.50000000E-01  8.50000000E-01
  8.50000000E-01  8.00000000E-01  8.50000000E-01  8.50000000E-01  8.50000000E-01
  8.00000000E-01  8.50000000E-01  8.50000000E-01  8.50000000E-01  8.00000000E-01
  8.50000000E-01  8.50000000E-01  8.50000000E-01  8.00000000E-01  8.50000000E-01
  8.50000000E-01  8.50000000E-01  8.00000000E-01  8.50000000E-01  8.50000000E-01
  8.50000000E-01  8.00000000E-01  8.50000000E-01  8.50000000E-01  8.50000000E-01
  8.00000000E-01  8.50000000E-01  8.50000000E-01  8.50000000E-01  8.00000000E-01
  8.50000000E-01  8.50000000E-01  8.50000000E-01  8.00000000E-01  8.50000000E-01
  8.50000000E-01  8.50000000E-01  8.00000000E-01  8.50000000E-01  8.50000000E-01
  8.50000000E-01  8.00000000E-01  8.50000000E-01  8.50000000E-01  8.50000000E-01
  8.00000000E-01  8.50000000E-01  8.50000000E-01  8.50000000E-01  8.00000000E-01
  8.50000000E-01  8.50000000E-01  8.50000000E-01  8.00000000E-01  8.50000000E-01
  8.50000000E-01  8.50000000E-01  8.00000000E-01  8.50000000E-01  8.50000000E-01
  8.50000000E-01  8.00000000E-01  8.50000000E-01  8.50000000E-01  8.50000000E-01
  8.00000000E-01  8.50000000E-01  8.50000000E-01  8.50000000E-01  8.00000000E-01
  8.50000000E-01  8.50000000E-01  8.50000000E-01  8.00000000E-01  8.50000000E-01
  8.50000000E-01  8.50000000E-01  8.00000000E-01  8.50000000E-01  8.50000000E-01
  8.50000000E-01  8.00000000E-01  8.50000000E-01  8.50000000E-01  8.50000000E-01
  8.00000000E-01  8.50000000E-01  8.50000000E-01  8.50000000E-01  8.00000000E-01
  8.50000000E-01  8.50000000E-01  8.50000000E-01  8.00000000E-01  8.50000000E-01
  8.50000000E-01  8.50000000E-01  8.00000000E-01  8.50000000E-01  8.50000000E-01
  8.50000000E-01  8.00000000E-01  8.50000000E-01  8.50000000E-01  8.50000000E-01
  8.00000000E-01  8.50000000E-01  8.50000000E-01  8.50000000E-01  8.00000000E-01
  8.50000000E-01  8.50000000E-01  8.50000000E-01  8.00000000E-01  8.50000000E-01
  8.50000000E-01  8.50000000E-01  8.00000000E-01  8.50000000E-01  8.50000000E-01
  8.50000000E-01  8.00000000E-01  8.50000000E-01  8.50000000E-01  8.50000000E-01
  8.00000000E-01  8.50000000E-01  8.50000000E-01  8.50000000E-01  8.00000000E-01
  8.50000000E-01  8.50000000E-01  8.50000000E-01  8.00000000E-01  8.50000000E-01
  8.50000000E-01  8.50000000E-01  8.00000000E-01  8.50000000E-01  8.50000000E-01
  8.50000000E-01  8.00000000E-01  8.50000000E-01  8.50000000E-01  8.50000000E-01
  8.00000000E-01  8.50000000E-01  8.50000000E-01  8.50000000E-01  8.00000000E-01
  8.50000000E-01  8.50000000E-01  8.50000000E-01  8.00000000E-01  8.50000000E-01
  8.50000000E-01  8.50000000E-01  8.00000000E-01  8.50000000E-01  8.50000000E-01
  8.50000000E-01  8.00000000E-01  8.50000000E-01  8.50000000E-01  8.50000000E-01
  8.00000000E-01  8.50000000E-01  8.50000000E-01  8.50000000E-01  8.00000000E-01
  8.50000000E-01  8.50000000E-01  8.50000000E-01  8.00000000E-01  8.50000000E-01
  8.50000000E-01  8.50000000E-01  8.00000000E-01  8.50000000E-01  8.50000000E-01
  8.50000000E-01  8.00000000E-01  8.50000000E-01  8.50000000E-01  8.50000000E-01
  8.00000000E-01  8.50000000E-01  8.50000000E-01  8.50000000E-01  8.00000000E-01
  8.50000000E-01  8.50000000E-01  8.50000000E-01  8.00000000E-01  8.50000000E-01
  8.50000000E-01  8.50000000E-01  8.00000000E-01  8.50000000E-01  8.50000000E-01
  8.50000000E-01  8.00000000E-01  8.50000000E-01  8.50000000E-01  8.50000000E-01
  8.00000000E-01  8.50000000E-01  8.50000000E-01  8.50000000E-01  8.00000000E-01
  8.50000000E-01  8.50000000E-01  8.50000000E-01  8.00000000E-01  8.50000000E-01
  8.50000000E-01  8.50000000E-01  8.00000000E-01  8.50000000E-01  8.50000000E-01
  8.50000000E-01  8.00000000E-01  8.50000000E-01  8.50000000E-01  8.50000000E-01
  8.00000000E-01  8.50000000E-01  8.50000000E-01  8.50000000E-01  8.00000000E-01
  8.50000000E-01  8.50000000E-01  8.50000000E-01  8.00000000E-01  8.50000000E-01
  8.50000000E-01  8.50000000E-01  8.00000000E-01  8.50000000E-01  8.50000000E-01
  8.50000000E-01  8.00000000E-01  8.50000000E-01  8.50000000E-01  8.50000000E-01
  8.00000000E-01  8.50000000E-01  8.50000000E-01  8.50000000E-01  8.00000000E-01
  8.50000000E-01  8.50000000E-01  8.50000000E-01  8.00000000E-01  8.50000000E-01
  8.50000000E-01  8.50000000E-01  8.00000000E-01  8.50000000E-01  8.50000000E-01
  8.50000000E-01  8.00000000E-01  8.50000000E-01  8.50000000E-01  8.50000000E-01
  8.00000000E-01  8.50000000E-01  8.50000000E-01  8.50000000E-01  8.00000000E-01
  8.50000000E-01  8.50000000E-01  8.50000000E-01  8.00000000E-01  8.50000000E-01
  8.50000000E-01  8.50000000E-01  8.00000000E-01  8.50000000E-01  8.50000000E-01
  8.50000000E-01  8.00000000E-01  8.50000000E-01  8.50000000E-01  8.50000000E-01
  8.00000000E-01  8.50000000E-01  8.50000000E-01  8.50000000E-01  8.00000000E-01
  8.50000000E-01  8.50000000E-01  8.50000000E-01  8.00000000E-01  8.50000000E-01
  8.50000000E-01  8.50000000E-01  8.00000000E-01  8.50000000E-01  8.50000000E-01
  8.50000000E-01  8.00000000E-01  8.50000000E-01  8.50000000E-01  8.50000000E-01
  8.00000000E-01  8.50000000E-01  8.50000000E-01  8.50000000E-01  8.00000000E-01
  8.50000000E-01  8.50000000E-01  8.50000000E-01  8.00000000E-01  8.50000000E-01
  8.50000000E-01  8.50000000E-01  8.00000000E-01  8.50000000E-01  8.50000000E-01
  8.50000000E-01  8.00000000E-01  8.50000000E-01  8.50000000E-01  8.50000000E-01
  8.00000000E-01  8.50000000E-01  8.50000000E-01  8.50000000E-01  8.00000000E-01
  8.50000000E-01  8.50000000E-01  8.50000000E-01  8.00000000E-01  8.50000000E-01
  8.50000000E-01  8.50000000E-01  8.00000000E-01  8.50000000E-01  8.50000000E-01
  8.50000000E-01  8.00000000E-01  8.50000000E-01  8.50000000E-01  8.50000000E-01
  8.00000000E-01  8.50000000E-01  8.50000000E-01  8.50000000E-01  8.00000000E-01
  8.50000000E-01  8.50000000E-01  8.50000000E-01  8.00000000E-01  8.50000000E-01
  8.50000000E-01  8.50000000E-01  8.00000000E-01  8.50000000E-01  8.50000000E-01
  8.50000000E-01  8.00000000E-01  8.50000000E-01  8.50000000E-01  8.50000000E-01
  8.00000000E-01  8.50000000E-01  8.50000000E-01  8.50000000E-01  8.00000000E-01
  8.50000000E-01  8.50000000E-01  8.50000000E-01  8.00000000E-01  8.50000000E-01
  8.50000000E-01  8.50000000E-01  8.00000000E-01  8.50000000E-01  8.50000000E-01
  8.50000000E-01  8.00000000E-01  8.50000000E-01  8.50000000E-01  8.50000000E-01
  8.00000000E-01  8.50000000E-01  8.50000000E-01  8.50000000E-01  8.00000000E-01
  8.50000000E-01  8.50000000E-01  8.50000000E-01  8.00000000E-01  8.50000000E-01
  8.50000000E-01  8.50000000E-01  8.00000000E-01  8.50000000E-01  8.50000000E-01
  8.50000000E-01  8.00000000E-01  8.50000000E-01  8.50000000E-01  8.50000000E-01
  8.00000000E-01  8.50000000E-01  8.50000000E-01  8.50000000E-01  8.00000000E-01
  8.50000000E-01  8.50000000E-01  8.50000000E-01  8.00000000E-01  8.50000000E-01
  8.50000000E-01  8.50000000E-01  8.00000000E-01  8.50000000E-01  8.50000000E-01
  8.50000000E-01  8.00000000E-01  8.50000000E-01  8.50000000E-01  8.50000000E-01
  8.00000000E-01  8.50000000E-01  8.50000000E-01  8.50000000E-01  8.00000000E-01
  8.50000000E-01  8.50000000E-01  8.50000000E-01  8.00000000E-01  8.50000000E-01
  8.50000000E-01  8.50000000E-01  8.00000000E-01  8.50000000E-01  8.50000000E-01
  8.50000000E-01  8.00000000E-01  8.50000000E-01  8.50000000E-01  8.50000000E-01
  8.00000000E-01  8.50000000E-01  8.50000000E-01  8.50000000E-01  8.00000000E-01
  8.50000000E-01  8.50000000E-01  8.50000000E-01  8.00000000E-01  8.50000000E-01
  8.50000000E-01  8.50000000E-01  8.00000000E-01  8.50000000E-01  8.50000000E-01
  8.50000000E-01  8.00000000E-01  8.50000000E-01  8.50000000E-01  8.50000000E-01
  8.00000000E-01  8.50000000E-01  8.50000000E-01  8.50000000E-01  8.00000000E-01
  8.50000000E-01  8.50000000E-01  8.50000000E-01  8.00000000E-01  8.50000000E-01
  8.50000000E-01  8.50000000E-01  8.00000000E-01  8.50000000E-01  8.50000000E-01
  8.50000000E-01  8.00000000E-01  8.50000000E-01  8.50000000E-01  8.50000000E-01
  8.00000000E-01  8.50000000E-01  8.50000000E-01  8.50000000E-01  8.00000000E-01
  8.50000000E-01  8.50000000E-01  8.50000000E-01  8.00000000E-01  8.50000000E-01
  8.50000000E-01  8.50000000E-01  8.00000000E-01  8.50000000E-01  8.50000000E-01
  8.50000000E-01  8.00000000E-01  8.50000000E-01  8.50000000E-01  8.50000000E-01
  8.00000000E-01  8.50000000E-01  8.50000000E-01  8.50000000E-01  8.00000000E-01
  8.50000000E-01  8.50000000E-01  8.50000000E-01  8.00000000E-01  8.50000000E-01
  8.50000000E-01  8.50000000E-01  8.00000000E-01  8.50000000E-01  8.50000000E-01
  8.50000000E-01  8.00000000E-01  8.50000000E-01  8.50000000E-01  8.50000000E-01
  8.00000000E-01  8.50000000E-01  8.50000000E-01  8.50000000E-01  8.00000000E-01
  8.50000000E-01  8.50000000E-01  8.50000000E-01  8.00000000E-01  8.50000000E-01
  8.50000000E-01  8.50000000E-01  8.00000000E-01  8.50000000E-01  8.50000000E-01
  8.50000000E-01  8.00000000E-01  8.50000000E-01  8.50000000E-01  8.50000000E-01
  8.00000000E-01  8.50000000E-01  8.50000000E-01  8.50000000E-01  8.00000000E-01
  8.50000000E-01  8.50000000E-01  8.50000000E-01  8.00000000E-01  8.50000000E-01
  8.50000000E-01  8.50000000E-01  8.00000000E-01  8.50000000E-01  8.50000000E-01
  8.50000000E-01  8.00000000E-01  8.50000000E-01  8.50000000E-01  8.50000000E-01
  8.00000000E-01  8.50000000E-01  8.50000000E-01  8.50000000E-01  8.00000000E-01
  8.50000000E-01  8.50000000E-01  8.50000000E-01  8.00000000E-01  8.50000000E-01
  8.50000000E-01  8.50000000E-01  8.00000000E-01  8.50000000E-01  8.50000000E-01
  8.50000000E-01  8.00000000E-01  8.50000000E-01  8.50000000E-01  8.50000000E-01
  8.00000000E-01  8.50000000E-01  8.50000000E-01  8.50000000E-01  8.00000000E-01
  8.50000000E-01  8.50000000E-01  8.50000000E-01  8.00000000E-01  8.50000000E-01
  8.50000000E-01  8.50000000E-01  8.00000000E-01  8.50000000E-01  8.50000000E-01
  8.50000000E-01  8.00000000E-01  8.50000000E-01  8.50000000E-01  8.50000000E-01
  8.00000000E-01  8.50000000E-01  8.50000000E-01  8.50000000E-01  8.00000000E-01
  8.50000000E-01  8.50000000E-01  8.50000000E-01  8.00000000E-01  8.50000000E-01
  8.50000000E-01  8.50000000E-01  8.00000000E-01  8.50000000E-01  8.50000000E-01
  8.50000000E-01  8.00000000E-01  8.50000000E-01  8.50000000E-01  8.50000000E-01
  8.00000000E-01  8.50000000E-01  8.50000000E-01  8.50000000E-01  8.00000000E-01
  8.50000000E-01  8.50000000E-01  8.50000000E-01  8.00000000E-01  8.50000000E-01
  8.50000000E-01  8.50000000E-01  8.00000000E-01  8.50000000E-01  8.50000000E-01
  8.50000000E-01  8.00000000E-01  8.50000000E-01  8.50000000E-01  8.50000000E-01
  8.00000000E-01  8.50000000E-01  8.50000000E-01  8.50000000E-01  8.00000000E-01
  8.50000000E-01  8.50000000E-01  8.50000000E-01  8.00000000E-01  8.50000000E-01
  8.50000000E-01  8.50000000E-01  8.00000000E-01  8.50000000E-01  8.50000000E-01
  8.50000000E-01  8.00000000E-01  8.50000000E-01  8.50000000E-01  8.50000000E-01
  8.00000000E-01  8.50000000E-01  8.50000000E-01  8.50000000E-01  8.00000000E-01
  8.50000000E-01  8.50000000E-01  8.50000000E-01  8.00000000E-01  8.50000000E-01
  8.50000000E-01  8.50000000E-01  8.00000000E-01  8.50000000E-01  8.50000000E-01
  8.50000000E-01  8.00000000E-01  8.50000000E-01  8.50000000E-01  8.50000000E-01
  8.00000000E-01  8.50000000E-01  8.50000000E-01  8.50000000E-01  8.00000000E-01
  8.50000000E-01  8.50000000E-01  8.50000000E-01  8.00000000E-01  8.50000000E-01
  8.50000000E-01  8.50000000E-01  8.00000000E-01  8.50000000E-01  8.50000000E-01
  8.50000000E-01  8.00000000E-01  8.50000000E-01  8.50000000E-01  8.50000000E-01
  8.00000000E-01  8.50000000E-01  8.50000000E-01  8.50000000E-01  8.00000000E-01
  8.50000000E-01  8.50000000E-01  8.50000000E-01  8.00000000E-01  8.50000000E-01
  8.50000000E-01  8.50000000E-01  8.00000000E-01  8.50000000E-01  8.50000000E-01
  8.50000000E-01  8.00000000E-01  8.50000000E-01  8.50000000E-01  8.50000000E-01
  8.00000000E-01  8.50000000E-01  8.50000000E-01  8.50000000E-01  8.00000000E-01
  8.50000000E-01  8.50000000E-01  8.50000000E-01  8.00000000E-01  8.50000000E-01
  8.50000000E-01  8.50000000E-01  8.00000000E-01  8.50000000E-01  8.50000000E-01
  8.50000000E-01  8.00000000E-01  8.50000000E-01  8.50000000E-01  8.50000000E-01
  8.00000000E-01  8.50000000E-01  8.50000000E-01  8.50000000E-01  8.00000000E-01
  8.50000000E-01  8.50000000E-01  8.50000000E-01  8.00000000E-01  8.50000000E-01
  8.50000000E-01  8.50000000E-01  8.00000000E-01  8.50000000E-01  8.50000000E-01
  8.50000000E-01  8.00000000E-01  8.50000000E-01  8.50000000E-01  8.50000000E-01
  8.00000000E-01  8.50000000E-01  8.50000000E-01  8.50000000E-01  8.00000000E-01
  8.50000000E-01  8.50000000E-01  8.50000000E-01  8.00000000E-01  8.50000000E-01
  8.50000000E-01  8.50000000E-01  8.00000000E-01  8.50000000E-01  8.50000000E-01
  8.50000000E-01  8.00000000E-01  8.50000000E-01  8.50000000E-01  8.50000000E-01
  8.00000000E-01  8.50000000E-01  8.50000000E-01  8.50000000E-01  8.00000000E-01
  8.50000000E-01  8.50000000E-01  8.50000000E-01  8.00000000E-01  8.50000000E-01
  8.50000000E-01  8.50000000E-01  8.00000000E-01  8.50000000E-01  8.50000000E-01
  8.50000000E-01  8.00000000E-01  8.50000000E-01  8.50000000E-01  8.50000000E-01
  8.00000000E-01  8.50000000E-01  8.50000000E-01  8.50000000E-01  8.00000000E-01
  8.50000000E-01  8.50000000E-01  8.50000000E-01  8.00000000E-01  8.50000000E-01
  8.50000000E-01  8.50000000E-01  8.00000000E-01  8.50000000E-01  8.50000000E-01
  8.50000000E-01  8.00000000E-01  8.50000000E-01  8.50000000E-01  8.50000000E-01
  8.00000000E-01  8.50000000E-01  8.50000000E-01  8.50000000E-01  8.00000000E-01
  8.50000000E-01  8.50000000E-01  8.50000000E-01  8.00000000E-01  8.50000000E-01
  8.50000000E-01  8.50000000E-01  8.00000000E-01  8.50000000E-01  8.50000000E-01
  8.50000000E-01  8.00000000E-01  8.50000000E-01  8.50000000E-01  8.50000000E-01
  8.00000000E-01  8.50000000E-01  8.50000000E-01  8.50000000E-01  8.00000000E-01
  8.50000000E-01  8.50000000E-01  8.50000000E-01  8.00000000E-01  8.50000000E-01
  8.50000000E-01  8.50000000E-01  8.00000000E-01  8.50000000E-01  8.50000000E-01
  8.50000000E-01  8.00000000E-01  8.50000000E-01  8.50000000E-01  8.50000000E-01
  8.00000000E-01  8.50000000E-01  8.50000000E-01  8.50000000E-01  8.00000000E-01
  8.50000000E-01  8.50000000E-01  8.50000000E-01  8.00000000E-01  8.50000000E-01
  8.50000000E-01  8.50000000E-01  8.00000000E-01  8.50000000E-01  8.50000000E-01
  8.50000000E-01  8.00000000E-01  8.50000000E-01  8.50000000E-01  8.50000000E-01
  8.00000000E-01  8.50000000E-01  8.50000000E-01  8.50000000E-01  8.00000000E-01
  8.50000000E-01  8.50000000E-01  8.50000000E-01  8.00000000E-01  8.50000000E-01
  8.50000000E-01  8.50000000E-01  8.00000000E-01  8.50000000E-01  8.50000000E-01
  8.50000000E-01  8.00000000E-01  8.50000000E-01  8.50000000E-01  8.50000000E-01
  8.00000000E-01  8.50000000E-01  8.50000000E-01  8.50000000E-01  8.00000000E-01
  8.50000000E-01  8.50000000E-01  8.50000000E-01  8.00000000E-01  8.50000000E-01
  8.50000000E-01  8.50000000E-01  8.00000000E-01  8.50000000E-01  8.50000000E-01
  8.50000000E-01  8.00000000E-01  8.50000000E-01  8.50000000E-01  8.50000000E-01
  8.00000000E-01  8.50000000E-01  8.50000000E-01  8.50000000E-01  8.00000000E-01
  8.50000000E-01  8.50000000E-01  8.50000000E-01  8.00000000E-01  8.50000000E-01
  8.50000000E-01  8.50000000E-01  8.00000000E-01  8.50000000E-01  8.50000000E-01
  8.50000000E-01  8.00000000E-01  8.50000000E-01  8.50000000E-01  8.50000000E-01
  8.00000000E-01  8.50000000E-01  8.50000000E-01  8.50000000E-01  8.00000000E-01
  8.50000000E-01  8.50000000E-01  8.50000000E-01  8.00000000E-01  8.50000000E-01
  8.50000000E-01  8.50000000E-01  8.00000000E-01  8.50000000E-01  8.50000000E-01
  8.50000000E-01  8.00000000E-01  8.50000000E-01  8.50000000E-01  8.50000000E-01
  8.00000000E-01  8.50000000E-01  8.50000000E-01  8.50000000E-01  8.00000000E-01
  8.50000000E-01  8.50000000E-01  8.50000000E-01  8.00000000E-01  8.50000000E-01
  8.50000000E-01  8.50000000E-01  8.00000000E-01  8.50000000E-01  8.50000000E-01
  8.50000000E-01  8.00000000E-01  8.50000000E-01  8.50000000E-01  8.50000000E-01
  8.00000000E-01  8.50000000E-01  8.50000000E-01  8.50000000E-01  8.00000000E-01
  8.50000000E-01  8.50000000E-01  8.50000000E-01  8.00000000E-01  8.50000000E-01
  8.50000000E-01  8.50000000E-01  8.00000000E-01  8.50000000E-01  8.50000000E-01
  8.50000000E-01  8.00000000E-01  8.50000000E-01  8.50000000E-01  8.50000000E-01
  8.00000000E-01  8.50000000E-01  8.50000000E-01  8.50000000E-01  8.00000000E-01
  8.50000000E-01  8.50000000E-01  8.50000000E-01  8.00000000E-01  8.50000000E-01
  8.50000000E-01  8.50000000E-01  8.00000000E-01  8.50000000E-01  8.50000000E-01
  8.50000000E-01  8.00000000E-01  8.50000000E-01  8.50000000E-01  8.50000000E-01
  8.00000000E-01  8.50000000E-01  8.50000000E-01  8.50000000E-01  8.00000000E-01
  8.50000000E-01  8.50000000E-01  8.50000000E-01  8.00000000E-01  8.50000000E-01
  8.50000000E-01  8.50000000E-01  8.00000000E-01  8.50000000E-01  8.50000000E-01
  8.50000000E-01  8.00000000E-01  8.50000000E-01  8.50000000E-01  8.50000000E-01
  8.00000000E-01  8.50000000E-01  8.50000000E-01  8.50000000E-01  8.00000000E-01
  8.50000000E-01  8.50000000E-01  8.50000000E-01  8.00000000E-01  8.50000000E-01
  8.50000000E-01  8.50000000E-01  8.00000000E-01  8.50000000E-01  8.50000000E-01
  8.50000000E-01  8.00000000E-01  8.50000000E-01  8.50000000E-01  8.50000000E-01
  8.00000000E-01  8.50000000E-01  8.50000000E-01  8.50000000E-01  8.00000000E-01
  8.50000000E-01  8.50000000E-01  8.50000000E-01  8.00000000E-01  8.50000000E-01
  8.50000000E-01  8.50000000E-01  8.00000000E-01  8.50000000E-01  8.50000000E-01
  8.50000000E-01  8.00000000E-01  8.50000000E-01  8.50000000E-01  8.50000000E-01
  8.00000000E-01  8.50000000E-01  8.50000000E-01  8.50000000E-01  8.00000000E-01
  8.50000000E-01  8.50000000E-01  8.50000000E-01  8.00000000E-01  8.50000000E-01
  8.50000000E-01  8.50000000E-01  8.00000000E-01  8.50000000E-01  8.50000000E-01
  8.50000000E-01  8.00000000E-01  8.50000000E-01  8.50000000E-01  8.50000000E-01
  8.00000000E-01  8.50000000E-01  8.50000000E-01  8.50000000E-01  8.00000000E-01
  8.50000000E-01  8.50000000E-01  8.50000000E-01  8.00000000E-01  8.50000000E-01
  8.50000000E-01  8.50000000E-01  8.00000000E-01  8.50000000E-01  8.50000000E-01
  8.50000000E-01  8.00000000E-01  8.50000000E-01  8.50000000E-01  8.50000000E-01
  8.00000000E-01  8.50000000E-01  8.50000000E-01  8.50000000E-01  8.00000000E-01
  8.50000000E-01  8.50000000E-01  8.50000000E-01  8.00000000E-01  8.50000000E-01
  8.50000000E-01  8.50000000E-01  8.00000000E-01  8.50000000E-01  8.50000000E-01
  8.50000000E-01  8.00000000E-01  8.50000000E-01  8.50000000E-01  8.50000000E-01
  8.00000000E-01  8.50000000E-01  8.50000000E-01  8.50000000E-01  8.00000000E-01
  8.50000000E-01  8.50000000E-01  8.50000000E-01  8.00000000E-01  8.50000000E-01
  8.50000000E-01  8.50000000E-01  8.00000000E-01  8.50000000E-01  8.50000000E-01
  8.50000000E-01  8.00000000E-01  8.50000000E-01  8.50000000E-01  8.50000000E-01
  8.00000000E-01  8.50000000E-01  8.50000000E-01  8.50000000E-01  8.00000000E-01
  8.50000000E-01  8.50000000E-01  8.50000000E-01  8.00000000E-01  8.50000000E-01
  8.50000000E-01  8.50000000E-01  8.00000000E-01  8.50000000E-01  8.50000000E-01
  8.50000000E-01  8.00000000E-01  8.50000000E-01  8.50000000E-01  8.50000000E-01
  8.00000000E-01  8.50000000E-01  8.50000000E-01  8.50000000E-01  8.00000000E-01
  8.50000000E-01  8.50000000E-01  8.50000000E-01  8.00000000E-01  8.50000000E-01
  8.50000000E-01  8.50000000E-01  8.00000000E-01  8.50000000E-01  8.50000000E-01
  8.50000000E-01  8.00000000E-01  8.50000000E-01  8.50000000E-01  8.50000000E-01
  8.00000000E-01  8.50000000E-01  8.50000000E-01  8.50000000E-01  8.00000000E-01
  8.50000000E-01  8.50000000E-01  8.50000000E-01  8.00000000E-01  8.50000000E-01
  8.50000000E-01  8.50000000E-01  8.00000000E-01  8.50000000E-01  8.50000000E-01
  8.50000000E-01  8.00000000E-01  8.50000000E-01  8.50000000E-01  8.50000000E-01
  8.00000000E-01  8.50000000E-01  8.50000000E-01  8.50000000E-01  8.00000000E-01
  8.50000000E-01  8.50000000E-01  8.50000000E-01  8.00000000E-01  8.50000000E-01
  8.50000000E-01  8.50000000E-01  8.00000000E-01  8.50000000E-01  8.50000000E-01
  8.50000000E-01  8.00000000E-01  8.50000000E-01  8.50000000E-01  8.50000000E-01
  8.00000000E-01  8.50000000E-01  8.50000000E-01  8.50000000E-01  8.00000000E-01
  8.50000000E-01  8.50000000E-01  8.50000000E-01  8.00000000E-01  8.50000000E-01
  8.50000000E-01  8.50000000E-01  8.00000000E-01  8.50000000E-01  8.50000000E-01
  8.50000000E-01  8.00000000E-01  8.50000000E-01  8.50000000E-01  8.50000000E-01
  8.00000000E-01  8.50000000E-01  8.50000000E-01  8.50000000E-01  8.00000000E-01
  8.50000000E-01  8.50000000E-01  8.50000000E-01  8.00000000E-01  8.50000000E-01
  8.50000000E-01  8.50000000E-01  8.00000000E-01  8.50000000E-01  8.50000000E-01
  8.50000000E-01  8.00000000E-01  8.50000000E-01  8.50000000E-01  8.50000000E-01
  8.00000000E-01  8.50000000E-01  8.50000000E-01  8.50000000E-01  8.00000000E-01
  8.50000000E-01  8.50000000E-01  8.50000000E-01  8.00000000E-01  8.50000000E-01
  8.50000000E-01  8.50000000E-01  8.00000000E-01  8.50000000E-01  8.50000000E-01
  8.50000000E-01  8.00000000E-01  8.50000000E-01  8.50000000E-01  8.50000000E-01
  8.00000000E-01  8.50000000E-01  8.50000000E-01  8.50000000E-01  8.00000000E-01
  8.50000000E-01  8.50000000E-01  8.50000000E-01  8.00000000E-01  8.50000000E-01
  8.50000000E-01  8.50000000E-01  8.00000000E-01  8.50000000E-01  8.50000000E-01
  8.50000000E-01  8.00000000E-01  8.50000000E-01  8.50000000E-01  8.50000000E-01
  8.00000000E-01  8.50000000E-01  8.50000000E-01  8.50000000E-01  8.00000000E-01
  8.50000000E-01  8.50000000E-01  8.50000000E-01  8.00000000E-01  8.50000000E-01
  8.50000000E-01  8.50000000E-01  8.00000000E-01  8.50000000E-01  8.50000000E-01
  8.50000000E-01  8.00000000E-01  8.50000000E-01  8.50000000E-01  8.50000000E-01
  8.00000000E-01  8.50000000E-01  8.50000000E-01  8.50000000E-01  8.00000000E-01
  8.50000000E-01  8.50000000E-01  8.50000000E-01  8.00000000E-01  8.50000000E-01
  8.50000000E-01  8.50000000E-01  8.00000000E-01  8.50000000E-01  8.50000000E-01
  8.50000000E-01  8.00000000E-01  8.50000000E-01  8.50000000E-01  8.50000000E-01
  8.00000000E-01  8.50000000E-01  8.50000000E-01  8.50000000E-01  8.00000000E-01
  8.50000000E-01  8.50000000E-01  8.50000000E-01  8.00000000E-01  8.50000000E-01
  8.50000000E-01  8.50000000E-01  8.00000000E-01  8.50000000E-01  8.50000000E-01
  8.50000000E-01  8.00000000E-01  8.50000000E-01  8.50000000E-01  8.50000000E-01
  8.00000000E-01  8.50000000E-01  8.50000000E-01  8.50000000E-01  8.00000000E-01
  8.50000000E-01  8.50000000E-01  8.50000000E-01  8.00000000E-01  8.50000000E-01
  8.50000000E-01  8.50000000E-01  8.00000000E-01  8.50000000E-01  8.50000000E-01
  8.50000000E-01  8.00000000E-01  8.50000000E-01  8.50000000E-01  8.50000000E-01
  8.00000000E-01  8.50000000E-01  8.50000000E-01  8.50000000E-01  8.00000000E-01
  8.50000000E-01  8.50000000E-01  8.50000000E-01  8.00000000E-01  8.50000000E-01
  8.50000000E-01  8.50000000E-01  8.00000000E-01  8.50000000E-01  8.50000000E-01
  8.50000000E-01  8.00000000E-01  8.50000000E-01  8.50000000E-01  8.50000000E-01
  8.00000000E-01  8.50000000E-01  8.50000000E-01  8.50000000E-01  8.00000000E-01
  8.50000000E-01  8.50000000E-01  8.50000000E-01  8.00000000E-01  8.50000000E-01
  8.50000000E-01  8.50000000E-01  8.00000000E-01  8.50000000E-01  8.50000000E-01
  8.50000000E-01  8.00000000E-01  8.50000000E-01  8.50000000E-01  8.50000000E-01
  8.00000000E-01  8.50000000E-01  8.50000000E-01  8.50000000E-01  8.00000000E-01
  8.50000000E-01  8.50000000E-01  8.50000000E-01  8.00000000E-01  8.50000000E-01
  8.50000000E-01  8.50000000E-01  8.00000000E-01  8.50000000E-01  8.50000000E-01
  8.50000000E-01  8.00000000E-01  8.50000000E-01  8.50000000E-01  8.50000000E-01
  8.00000000E-01  8.50000000E-01  8.50000000E-01  8.50000000E-01  8.00000000E-01
  8.50000000E-01  8.50000000E-01  8.50000000E-01  8.00000000E-01  8.50000000E-01
  8.50000000E-01  8.50000000E-01  8.00000000E-01  8.50000000E-01  8.50000000E-01
  8.50000000E-01  8.00000000E-01  8.50000000E-01  8.50000000E-01  8.50000000E-01
  8.00000000E-01  8.50000000E-01  8.50000000E-01  8.50000000E-01  8.00000000E-01
  8.50000000E-01  8.50000000E-01  8.50000000E-01  8.00000000E-01  8.50000000E-01
  8.50000000E-01  8.50000000E-01  8.00000000E-01  8.50000000E-01  8.50000000E-01
  8.50000000E-01  8.00000000E-01  8.50000000E-01  8.50000000E-01  8.50000000E-01
  8.00000000E-01  8.50000000E-01  8.50000000E-01  8.50000000E-01  8.00000000E-01
  8.50000000E-01  8.50000000E-01  8.50000000E-01  8.00000000E-01  8.50000000E-01
  8.50000000E-01  8.50000000E-01  8.00000000E-01  8.50000000E-01  8.50000000E-01
  8.50000000E-01  8.00000000E-01  8.50000000E-01  8.50000000E-01  8.50000000E-01
  8.00000000E-01  8.50000000E-01  8.50000000E-01  8.50000000E-01  8.00000000E-01
  8.50000000E-01  8.50000000E-01  8.50000000E-01  8.00000000E-01  8.50000000E-01
  8.50000000E-01  8.50000000E-01  8.00000000E-01  8.50000000E-01  8.50000000E-01
  8.50000000E-01  8.00000000E-01  8.50000000E-01  8.50000000E-01  8.50000000E-01
  8.00000000E-01  8.50000000E-01  8.50000000E-01  8.50000000E-01  8.00000000E-01
  8.50000000E-01  8.50000000E-01  8.50000000E-01  8.00000000E-01  8.50000000E-01
  8.50000000E-01  8.50000000E-01  8.00000000E-01  8.50000000E-01  8.50000000E-01
  8.50000000E-01  8.00000000E-01  8.50000000E-01  8.50000000E-01  8.50000000E-01
  8.00000000E-01  8.50000000E-01  8.50000000E-01  8.50000000E-01  8.00000000E-01
  8.50000000E-01  8.50000000E-01  8.50000000E-01  8.00000000E-01  8.50000000E-01
  8.50000000E-01  8.50000000E-01  8.00000000E-01  8.50000000E-01  8.50000000E-01
  8.50000000E-01  8.00000000E-01  8.50000000E-01  8.50000000E-01  8.50000000E-01
  8.00000000E-01  8.50000000E-01  8.50000000E-01  8.50000000E-01  8.00000000E-01
  8.50000000E-01  8.50000000E-01  8.50000000E-01  8.00000000E-01  8.50000000E-01
  8.50000000E-01  8.50000000E-01  8.00000000E-01  8.50000000E-01  8.50000000E-01
  8.50000000E-01  8.00000000E-01  8.50000000E-01  8.50000000E-01  8.50000000E-01
  8.00000000E-01  8.50000000E-01  8.50000000E-01  8.50000000E-01  8.00000000E-01
  8.50000000E-01  8.50000000E-01  8.50000000E-01  8.00000000E-01  8.50000000E-01
  8.50000000E-01  8.50000000E-01  8.00000000E-01  8.50000000E-01  8.50000000E-01
  8.50000000E-01  8.00000000E-01  8.50000000E-01  8.50000000E-01  8.50000000E-01
  8.00000000E-01  8.50000000E-01  8.50000000E-01  8.50000000E-01  8.00000000E-01
  8.50000000E-01  8.50000000E-01  8.50000000E-01  8.00000000E-01  8.50000000E-01
  8.50000000E-01  8.50000000E-01  8.00000000E-01  8.50000000E-01  8.50000000E-01
  8.50000000E-01  8.00000000E-01  8.50000000E-01  8.50000000E-01  8.50000000E-01
  8.00000000E-01  8.50000000E-01  8.50000000E-01  8.50000000E-01  8.00000000E-01
  8.50000000E-01  8.50000000E-01  8.50000000E-01  8.00000000E-01  8.50000000E-01
  8.50000000E-01  8.50000000E-01  8.00000000E-01  8.50000000E-01  8.50000000E-01
  8.50000000E-01  8.00000000E-01  8.50000000E-01  8.50000000E-01  8.50000000E-01
  8.00000000E-01  8.50000000E-01  8.50000000E-01  8.50000000E-01  8.00000000E-01
  8.50000000E-01  8.50000000E-01  8.50000000E-01  8.00000000E-01  8.50000000E-01
  8.50000000E-01  8.50000000E-01  8.00000000E-01  8.50000000E-01  8.50000000E-01
  8.50000000E-01  8.00000000E-01  8.50000000E-01  8.50000000E-01  8.50000000E-01
  8.00000000E-01  8.50000000E-01  8.50000000E-01  8.50000000E-01  8.00000000E-01
  8.50000000E-01  8.50000000E-01  8.50000000E-01  8.00000000E-01  8.50000000E-01
  8.50000000E-01  8.50000000E-01  8.00000000E-01  8.50000000E-01  8.50000000E-01
  8.50000000E-01  8.00000000E-01  8.50000000E-01  8.50000000E-01  8.50000000E-01
  8.00000000E-01  8.50000000E-01  8.50000000E-01  8.50000000E-01  8.00000000E-01
  8.50000000E-01  8.50000000E-01  8.50000000E-01  8.00000000E-01  8.50000000E-01
  8.50000000E-01  8.50000000E-01  8.00000000E-01  8.50000000E-01  8.50000000E-01
  8.50000000E-01  8.00000000E-01  8.50000000E-01  8.50000000E-01  8.50000000E-01
  8.00000000E-01  8.50000000E-01  8.50000000E-01  8.50000000E-01  8.00000000E-01
  8.50000000E-01  8.50000000E-01  8.50000000E-01  8.00000000E-01  8.50000000E-01
  8.50000000E-01  8.50000000E-01  8.00000000E-01  8.50000000E-01  8.50000000E-01
  8.50000000E-01  8.00000000E-01  8.50000000E-01  8.50000000E-01  8.50000000E-01
  8.00000000E-01  8.50000000E-01  8.50000000E-01  8.50000000E-01  8.00000000E-01
  8.50000000E-01  8.50000000E-01  8.50000000E-01  8.00000000E-01  8.50000000E-01
  8.50000000E-01  8.50000000E-01  8.00000000E-01  8.50000000E-01  8.50000000E-01
  8.50000000E-01  8.00000000E-01  8.50000000E-01  8.50000000E-01  8.50000000E-01
  8.00000000E-01  8.50000000E-01  8.50000000E-01  8.50000000E-01  8.00000000E-01
  8.50000000E-01  8.50000000E-01  8.50000000E-01  8.00000000E-01  8.50000000E-01
  8.50000000E-01  8.50000000E-01  8.00000000E-01  8.50000000E-01  8.50000000E-01
  8.50000000E-01  8.00000000E-01  8.50000000E-01  8.50000000E-01  8.50000000E-01
  8.00000000E-01  8.50000000E-01  8.50000000E-01  8.50000000E-01  8.00000000E-01
  8.50000000E-01  8.50000000E-01  8.50000000E-01  8.00000000E-01  8.50000000E-01
  8.50000000E-01  8.50000000E-01  8.00000000E-01  8.50000000E-01  8.50000000E-01
  8.50000000E-01  8.00000000E-01  8.50000000E-01  8.50000000E-01  8.50000000E-01
  8.00000000E-01  8.50000000E-01  8.50000000E-01  8.50000000E-01  8.00000000E-01
  8.50000000E-01  8.50000000E-01  8.50000000E-01  8.00000000E-01  8.50000000E-01
  8.50000000E-01  8.50000000E-01  8.00000000E-01  8.50000000E-01  8.50000000E-01
  8.50000000E-01  8.00000000E-01  8.50000000E-01  8.50000000E-01  8.50000000E-01
  8.00000000E-01  8.50000000E-01  8.50000000E-01  8.50000000E-01  8.00000000E-01
  8.50000000E-01  8.50000000E-01  8.50000000E-01  8.00000000E-01  8.50000000E-01
  8.50000000E-01  8.50000000E-01  8.00000000E-01  8.50000000E-01  8.50000000E-01
  8.50000000E-01  8.00000000E-01  8.50000000E-01  8.50000000E-01  8.50000000E-01
  8.00000000E-01  8.50000000E-01  8.50000000E-01  8.50000000E-01  8.00000000E-01
  8.50000000E-01  8.50000000E-01  8.50000000E-01  8.00000000E-01  8.50000000E-01
  8.50000000E-01  8.50000000E-01  8.00000000E-01  8.50000000E-01  8.50000000E-01
  8.50000000E-01  8.00000000E-01  8.50000000E-01  8.50000000E-01  8.50000000E-01
  8.00000000E-01  8.50000000E-01  8.50000000E-01  8.50000000E-01  8.00000000E-01
  8.50000000E-01  8.50000000E-01  8.50000000E-01  8.00000000E-01  8.50000000E-01
  8.50000000E-01  8.50000000E-01  8.00000000E-01  8.50000000E-01  8.50000000E-01
  8.50000000E-01  8.00000000E-01  8.50000000E-01  8.50000000E-01  8.50000000E-01
  8.00000000E-01  8.50000000E-01  8.50000000E-01  8.50000000E-01  8.00000000E-01
  8.50000000E-01  8.50000000E-01  8.50000000E-01  8.00000000E-01  8.50000000E-01
  8.50000000E-01  8.50000000E-01  8.00000000E-01  8.50000000E-01  8.50000000E-01
  8.50000000E-01  8.00000000E-01  8.50000000E-01  8.50000000E-01  8.50000000E-01
  8.00000000E-01  8.50000000E-01  8.50000000E-01  8.50000000E-01  8.00000000E-01
  8.50000000E-01  8.50000000E-01  8.50000000E-01  8.00000000E-01  8.50000000E-01
  8.50000000E-01  8.50000000E-01  8.00000000E-01  8.50000000E-01  8.50000000E-01
  8.50000000E-01  8.00000000E-01  8.50000000E-01  8.50000000E-01  8.50000000E-01
  8.00000000E-01  8.50000000E-01  8.50000000E-01  8.50000000E-01  8.00000000E-01
  8.50000000E-01  8.50000000E-01  8.50000000E-01  8.00000000E-01  8.50000000E-01
  8.50000000E-01  8.50000000E-01  8.00000000E-01  8.50000000E-01  8.50000000E-01
  8.50000000E-01  8.00000000E-01  8.50000000E-01  8.50000000E-01  8.50000000E-01
  8.00000000E-01  8.50000000E-01  8.50000000E-01  8.50000000E-01  8.00000000E-01
  8.50000000E-01  8.50000000E-01  8.50000000E-01  8.00000000E-01  8.50000000E-01
  8.50000000E-01  8.50000000E-01  8.00000000E-01  8.50000000E-01  8.50000000E-01
  8.50000000E-01  8.00000000E-01  8.50000000E-01  8.50000000E-01  8.50000000E-01
  8.00000000E-01  8.50000000E-01  8.50000000E-01  8.50000000E-01  8.00000000E-01
  8.50000000E-01  8.50000000E-01  8.50000000E-01  8.00000000E-01  8.50000000E-01
  8.50000000E-01  8.50000000E-01  8.00000000E-01  8.50000000E-01  8.50000000E-01
  8.50000000E-01  8.00000000E-01  8.50000000E-01  8.50000000E-01  8.50000000E-01
  8.00000000E-01  8.50000000E-01  8.50000000E-01  8.50000000E-01  8.00000000E-01
  8.50000000E-01  8.50000000E-01  8.50000000E-01  8.00000000E-01  8.50000000E-01
  8.50000000E-01  8.50000000E-01  8.00000000E-01  8.50000000E-01  8.50000000E-01
  8.50000000E-01  8.00000000E-01  8.50000000E-01  8.50000000E-01  8.50000000E-01
  8.00000000E-01  8.50000000E-01  8.50000000E-01  8.50000000E-01  8.00000000E-01
  8.50000000E-01  8.50000000E-01  8.50000000E-01  8.00000000E-01  8.50000000E-01
  8.50000000E-01  8.50000000E-01  8.00000000E-01  8.50000000E-01  8.50000000E-01
  8.50000000E-01  8.00000000E-01  8.50000000E-01  8.50000000E-01  8.50000000E-01
  8.00000000E-01  8.50000000E-01  8.50000000E-01  8.50000000E-01  8.00000000E-01
  8.50000000E-01  8.50000000E-01  8.50000000E-01  8.00000000E-01  8.50000000E-01
  8.50000000E-01  8.50000000E-01  8.00000000E-01  8.50000000E-01  8.50000000E-01
  8.50000000E-01  8.00000000E-01  8.50000000E-01  8.50000000E-01  8.50000000E-01
  8.00000000E-01  8.50000000E-01  8.50000000E-01  8.50000000E-01  8.00000000E-01
  8.50000000E-01  8.50000000E-01  8.50000000E-01  8.00000000E-01  8.50000000E-01
  8.50000000E-01  8.50000000E-01  8.00000000E-01  8.50000000E-01  8.50000000E-01
  8.50000000E-01  8.00000000E-01  8.50000000E-01  8.50000000E-01  8.50000000E-01
  8.00000000E-01  8.50000000E-01  8.50000000E-01  8.50000000E-01  8.00000000E-01
  8.50000000E-01  8.50000000E-01  8.50000000E-01  8.00000000E-01  8.50000000E-01
  8.50000000E-01  8.50000000E-01  8.00000000E-01  8.50000000E-01  8.50000000E-01
  8.50000000E-01  8.00000000E-01  8.50000000E-01  8.50000000E-01  8.50000000E-01
  8.00000000E-01  8.50000000E-01  8.50000000E-01  8.50000000E-01  8.00000000E-01
  8.50000000E-01  8.50000000E-01  8.50000000E-01  8.00000000E-01  8.50000000E-01
  8.50000000E-01  8.50000000E-01  8.00000000E-01  8.50000000E-01  8.50000000E-01
  8.50000000E-01  8.00000000E-01  8.50000000E-01  8.50000000E-01  8.50000000E-01
  8.00000000E-01  8.50000000E-01  8.50000000E-01  8.50000000E-01  8.00000000E-01
  8.50000000E-01  8.50000000E-01  8.50000000E-01  8.00000000E-01  8.50000000E-01
  8.50000000E-01  8.50000000E-01  8.00000000E-01  8.50000000E-01  8.50000000E-01
  8.50000000E-01  8.00000000E-01  8.50000000E-01  8.50000000E-01  8.50000000E-01
  8.00000000E-01  8.50000000E-01  8.50000000E-01  8.50000000E-01  8.00000000E-01
  8.50000000E-01  8.50000000E-01  8.50000000E-01  8.00000000E-01  8.50000000E-01
  8.50000000E-01  8.50000000E-01  8.00000000E-01  8.50000000E-01  8.50000000E-01
  8.50000000E-01  8.00000000E-01  8.50000000E-01  8.50000000E-01  8.50000000E-01
  8.00000000E-01  8.50000000E-01  8.50000000E-01  8.50000000E-01  8.00000000E-01
  8.50000000E-01  8.50000000E-01  8.50000000E-01  8.00000000E-01  8.50000000E-01
  8.50000000E-01  8.50000000E-01  8.00000000E-01  8.50000000E-01  8.50000000E-01
  8.50000000E-01  8.00000000E-01  8.50000000E-01  8.50000000E-01  8.50000000E-01
  8.00000000E-01  8.50000000E-01  8.50000000E-01  8.50000000E-01  8.00000000E-01
  8.50000000E-01  8.50000000E-01  8.50000000E-01  8.00000000E-01  8.50000000E-01
  8.50000000E-01  8.50000000E-01  8.00000000E-01  8.50000000E-01  8.50000000E-01
  8.50000000E-01  8.00000000E-01  8.50000000E-01  8.50000000E-01  8.50000000E-01
  8.00000000E-01  8.50000000E-01  8.50000000E-01  8.50000000E-01  8.00000000E-01
  8.50000000E-01  8.50000000E-01  8.50000000E-01  8.00000000E-01  8.50000000E-01
  8.50000000E-01  8.50000000E-01  8.00000000E-01  8.50000000E-01  8.50000000E-01
  8.50000000E-01  8.00000000E-01  8.50000000E-01  8.50000000E-01  8.50000000E-01
  8.00000000E-01  8.50000000E-01  8.50000000E-01  8.50000000E-01  8.00000000E-01
  8.50000000E-01  8.50000000E-01  8.50000000E-01  8.00000000E-01  8.50000000E-01
  8.50000000E-01  8.50000000E-01  8.00000000E-01  8.50000000E-01  8.50000000E-01
  8.50000000E-01  8.00000000E-01  8.50000000E-01  8.50000000E-01  8.50000000E-01
  8.00000000E-01  8.50000000E-01  8.50000000E-01  8.50000000E-01  8.00000000E-01
  8.50000000E-01  8.50000000E-01  8.50000000E-01  8.00000000E-01  8.50000000E-01
  8.50000000E-01  8.50000000E-01  8.00000000E-01  8.50000000E-01  8.50000000E-01
  8.50000000E-01  8.00000000E-01  8.50000000E-01  8.50000000E-01  8.50000000E-01
  8.00000000E-01  8.50000000E-01  8.50000000E-01  8.50000000E-01  8.00000000E-01
  8.50000000E-01  8.50000000E-01  8.50000000E-01  8.00000000E-01  8.50000000E-01
  8.50000000E-01  8.50000000E-01  8.00000000E-01  8.50000000E-01  8.50000000E-01
  8.50000000E-01  8.00000000E-01  8.50000000E-01  8.50000000E-01  8.50000000E-01
  8.00000000E-01  8.50000000E-01  8.50000000E-01  8.50000000E-01  8.00000000E-01
  8.50000000E-01  8.50000000E-01  8.50000000E-01  8.00000000E-01  8.50000000E-01
  8.50000000E-01  8.50000000E-01  8.00000000E-01  8.50000000E-01  8.50000000E-01
  8.50000000E-01  8.00000000E-01  8.50000000E-01  8.50000000E-01  8.50000000E-01
  8.00000000E-01  8.50000000E-01  8.50000000E-01  8.50000000E-01  8.00000000E-01
  8.50000000E-01  8.50000000E-01  8.50000000E-01  8.00000000E-01  8.50000000E-01
  8.50000000E-01  8.50000000E-01  8.00000000E-01  8.50000000E-01  8.50000000E-01
  8.50000000E-01  8.00000000E-01  8.50000000E-01  8.50000000E-01  8.50000000E-01
  8.00000000E-01  8.50000000E-01  8.50000000E-01  8.50000000E-01  8.00000000E-01
  8.50000000E-01  8.50000000E-01  8.50000000E-01  8.00000000E-01  8.50000000E-01
  8.50000000E-01  8.50000000E-01  8.00000000E-01  8.50000000E-01  8.50000000E-01
  8.50000000E-01  8.00000000E-01  8.50000000E-01  8.50000000E-01  8.50000000E-01
  8.00000000E-01  8.50000000E-01  8.50000000E-01  8.50000000E-01  8.00000000E-01
  8.50000000E-01  8.50000000E-01  8.50000000E-01  8.00000000E-01  8.50000000E-01
  8.50000000E-01  8.50000000E-01  8.00000000E-01  8.50000000E-01  8.50000000E-01
  8.50000000E-01  8.00000000E-01  8.50000000E-01  8.50000000E-01  8.50000000E-01
  8.00000000E-01  8.50000000E-01  8.50000000E-01  8.50000000E-01  8.00000000E-01
  8.50000000E-01  8.50000000E-01  8.50000000E-01  8.00000000E-01  8.50000000E-01
  8.50000000E-01  8.50000000E-01  8.00000000E-01  8.50000000E-01  8.50000000E-01
  8.50000000E-01  8.00000000E-01  8.50000000E-01  8.50000000E-01  8.50000000E-01
  8.00000000E-01  8.50000000E-01  8.50000000E-01  8.50000000E-01  8.00000000E-01
  8.50000000E-01  8.50000000E-01  8.50000000E-01  8.00000000E-01  8.50000000E-01
  8.50000000E-01  8.50000000E-01  8.00000000E-01  8.50000000E-01  8.50000000E-01
  8.50000000E-01  8.00000000E-01  8.50000000E-01  8.50000000E-01  8.50000000E-01
  8.00000000E-01  8.50000000E-01  8.50000000E-01  8.50000000E-01  8.00000000E-01
  8.50000000E-01  8.50000000E-01  8.50000000E-01  8.00000000E-01  8.50000000E-01
  8.50000000E-01  8.50000000E-01  8.00000000E-01  8.50000000E-01  8.50000000E-01
  8.50000000E-01  8.00000000E-01  8.50000000E-01  8.50000000E-01  8.50000000E-01
  8.00000000E-01  8.50000000E-01  8.50000000E-01  8.50000000E-01  8.00000000E-01
  8.50000000E-01  8.50000000E-01  8.50000000E-01  8.00000000E-01  8.50000000E-01
  8.50000000E-01  8.50000000E-01  8.00000000E-01  8.50000000E-01  8.50000000E-01
  8.50000000E-01  8.00000000E-01  8.50000000E-01  8.50000000E-01  8.50000000E-01
  8.00000000E-01  8.50000000E-01  8.50000000E-01  8.50000000E-01  8.00000000E-01
  8.50000000E-01  8.50000000E-01  8.50000000E-01  8.00000000E-01  8.50000000E-01
  8.50000000E-01  8.50000000E-01  8.00000000E-01  8.50000000E-01  8.50000000E-01
  8.50000000E-01  8.00000000E-01  8.50000000E-01  8.50000000E-01  8.50000000E-01
  8.00000000E-01  8.50000000E-01  8.50000000E-01  8.50000000E-01  8.00000000E-01
  8.50000000E-01  8.50000000E-01  8.50000000E-01  8.00000000E-01  8.50000000E-01
  8.50000000E-01  8.50000000E-01  8.00000000E-01  8.50000000E-01  8.50000000E-01
  8.50000000E-01  8.00000000E-01  8.50000000E-01  8.50000000E-01  8.50000000E-01
  8.00000000E-01  8.50000000E-01  8.50000000E-01  8.50000000E-01  8.00000000E-01
  8.50000000E-01  8.50000000E-01  8.50000000E-01  8.00000000E-01  8.50000000E-01
  8.50000000E-01  8.50000000E-01  8.00000000E-01  8.50000000E-01  8.50000000E-01
  8.50000000E-01  8.00000000E-01  8.50000000E-01  8.50000000E-01  8.50000000E-01
  8.00000000E-01  8.50000000E-01  8.50000000E-01  8.50000000E-01  8.00000000E-01
  8.50000000E-01  8.50000000E-01  8.50000000E-01  8.00000000E-01  8.50000000E-01
  8.50000000E-01  8.50000000E-01  8.00000000E-01  8.50000000E-01  8.50000000E-01
  8.50000000E-01  8.00000000E-01  8.50000000E-01  8.50000000E-01  8.50000000E-01
  8.00000000E-01  8.50000000E-01  8.50000000E-01  8.50000000E-01  8.00000000E-01
  8.50000000E-01  8.50000000E-01  8.50000000E-01  8.00000000E-01  8.50000000E-01
  8.50000000E-01  8.50000000E-01  8.00000000E-01  8.50000000E-01  8.50000000E-01
  8.50000000E-01  8.00000000E-01  8.50000000E-01  8.50000000E-01  8.50000000E-01
  8.00000000E-01  8.50000000E-01  8.50000000E-01  8.50000000E-01  8.00000000E-01
  8.50000000E-01  8.50000000E-01  8.50000000E-01  8.00000000E-01  8.50000000E-01
  8.50000000E-01  8.50000000E-01  8.00000000E-01  8.50000000E-01  8.50000000E-01
  8.50000000E-01  8.00000000E-01  8.50000000E-01  8.50000000E-01  8.50000000E-01
  8.00000000E-01  8.50000000E-01  8.50000000E-01  8.50000000E-01  8.00000000E-01
  8.50000000E-01  8.50000000E-01  8.50000000E-01  8.00000000E-01  8.50000000E-01
  8.50000000E-01  8.50000000E-01  8.00000000E-01  8.50000000E-01  8.50000000E-01
  8.50000000E-01  8.00000000E-01  8.50000000E-01  8.50000000E-01  8.50000000E-01
  8.00000000E-01  8.50000000E-01  8.50000000E-01  8.50000000E-01  8.00000000E-01
  8.50000000E-01  8.50000000E-01  8.50000000E-01  8.00000000E-01  8.50000000E-01
  8.50000000E-01  8.50000000E-01  8.00000000E-01  8.50000000E-01  8.50000000E-01
  8.50000000E-01  8.00000000E-01  8.50000000E-01  8.50000000E-01  8.50000000E-01
  8.00000000E-01  8.50000000E-01  8.50000000E-01  8.50000000E-01  8.00000000E-01
  8.50000000E-01  8.50000000E-01  8.50000000E-01  8.00000000E-01  8.50000000E-01
  8.50000000E-01  8.50000000E-01  8.00000000E-01  8.50000000E-01  8.50000000E-01
  8.50000000E-01  8.00000000E-01  8.50000000E-01  8.50000000E-01  8.50000000E-01
  8.00000000E-01  8.50000000E-01  8.50000000E-01  8.50000000E-01  8.00000000E-01
  8.50000000E-01  8.50000000E-01  8.50000000E-01  8.00000000E-01  8.50000000E-01
  8.50000000E-01  8.50000000E-01  8.00000000E-01  8.50000000E-01  8.50000000E-01
  8.50000000E-01  8.00000000E-01  8.50000000E-01  8.50000000E-01  8.50000000E-01
  8.00000000E-01  8.50000000E-01  8.50000000E-01  8.50000000E-01  8.00000000E-01
  8.50000000E-01  8.50000000E-01  8.50000000E-01  8.00000000E-01  8.50000000E-01
  8.50000000E-01  8.50000000E-01  8.00000000E-01  8.50000000E-01  8.50000000E-01
  8.50000000E-01  8.00000000E-01  8.50000000E-01  8.50000000E-01  8.50000000E-01
  8.00000000E-01  8.50000000E-01  8.50000000E-01  8.50000000E-01  8.00000000E-01
  8.50000000E-01  8.50000000E-01  8.50000000E-01  8.00000000E-01  8.50000000E-01
  8.50000000E-01  8.50000000E-01  8.00000000E-01  8.50000000E-01  8.50000000E-01
  8.50000000E-01  8.00000000E-01  8.50000000E-01  8.50000000E-01  8.50000000E-01
  8.00000000E-01  8.50000000E-01  8.50000000E-01  8.50000000E-01  8.00000000E-01
  8.50000000E-01  8.50000000E-01  8.50000000E-01  8.00000000E-01  8.50000000E-01
  8.50000000E-01  8.50000000E-01  8.00000000E-01  8.50000000E-01  8.50000000E-01
  8.50000000E-01  8.00000000E-01  8.50000000E-01  8.50000000E-01  8.50000000E-01
  8.00000000E-01  8.50000000E-01  8.50000000E-01  8.50000000E-01  8.00000000E-01
  8.50000000E-01  8.50000000E-01  8.50000000E-01  8.00000000E-01  8.50000000E-01
  8.50000000E-01  8.50000000E-01  8.00000000E-01  8.50000000E-01  8.50000000E-01
  8.50000000E-01  8.00000000E-01  8.50000000E-01  8.50000000E-01  8.50000000E-01
  8.00000000E-01  8.50000000E-01  8.50000000E-01  8.50000000E-01  8.00000000E-01
  8.50000000E-01  8.50000000E-01  8.50000000E-01  8.00000000E-01  8.50000000E-01
  8.50000000E-01  8.50000000E-01  8.00000000E-01  8.50000000E-01  8.50000000E-01
  8.50000000E-01  8.00000000E-01  8.50000000E-01  8.50000000E-01  8.50000000E-01
  8.00000000E-01  8.50000000E-01  8.50000000E-01  8.50000000E-01  8.00000000E-01
  8.50000000E-01  8.50000000E-01  8.50000000E-01  8.00000000E-01  8.50000000E-01
  8.50000000E-01  8.50000000E-01  8.00000000E-01  8.50000000E-01  8.50000000E-01
  8.50000000E-01  8.00000000E-01  8.50000000E-01  8.50000000E-01  8.50000000E-01
  8.00000000E-01  8.50000000E-01  8.50000000E-01  8.50000000E-01  8.00000000E-01
  8.50000000E-01  8.50000000E-01  8.50000000E-01  8.00000000E-01  8.50000000E-01
  8.50000000E-01  8.50000000E-01  8.00000000E-01  8.50000000E-01  8.50000000E-01
  8.50000000E-01  8.00000000E-01  8.50000000E-01  8.50000000E-01  8.50000000E-01
  8.00000000E-01  8.50000000E-01  8.50000000E-01  8.50000000E-01  8.00000000E-01
  8.50000000E-01  8.50000000E-01  8.50000000E-01  8.00000000E-01  8.50000000E-01
  8.50000000E-01  8.50000000E-01  8.00000000E-01  8.50000000E-01  8.50000000E-01
  8.50000000E-01  8.00000000E-01  8.50000000E-01  8.50000000E-01  8.50000000E-01
  8.00000000E-01  8.50000000E-01  8.50000000E-01  8.50000000E-01  8.00000000E-01
  8.50000000E-01  8.50000000E-01  8.50000000E-01  8.00000000E-01  8.50000000E-01
  8.50000000E-01  8.50000000E-01  8.00000000E-01  8.50000000E-01  8.50000000E-01
  8.50000000E-01  8.00000000E-01  8.50000000E-01  8.50000000E-01  8.50000000E-01
  8.00000000E-01  8.50000000E-01  8.50000000E-01  8.50000000E-01  8.00000000E-01
  8.50000000E-01  8.50000000E-01  8.50000000E-01  8.00000000E-01  8.50000000E-01
  8.50000000E-01  8.50000000E-01  8.00000000E-01  8.50000000E-01  8.50000000E-01
  8.50000000E-01  8.00000000E-01  8.50000000E-01  8.50000000E-01  8.50000000E-01
  8.00000000E-01  8.50000000E-01  8.50000000E-01  8.50000000E-01  8.00000000E-01
  8.50000000E-01  8.50000000E-01  8.50000000E-01  8.00000000E-01  8.50000000E-01
  8.50000000E-01  8.50000000E-01  8.00000000E-01  8.50000000E-01  8.50000000E-01
  8.50000000E-01  8.00000000E-01  8.50000000E-01  8.50000000E-01  8.50000000E-01
  8.00000000E-01  8.50000000E-01  8.50000000E-01  8.50000000E-01  8.00000000E-01
  8.50000000E-01  8.50000000E-01  8.50000000E-01  8.00000000E-01  8.50000000E-01
  8.50000000E-01  8.50000000E-01  8.00000000E-01  8.50000000E-01  8.50000000E-01
  8.50000000E-01  8.00000000E-01  8.50000000E-01  8.50000000E-01  8.50000000E-01
  8.00000000E-01  8.50000000E-01  8.50000000E-01  8.50000000E-01  8.00000000E-01
  8.50000000E-01  8.50000000E-01  8.50000000E-01  8.00000000E-01  8.50000000E-01
  8.50000000E-01  8.50000000E-01  8.00000000E-01  8.50000000E-01  8.50000000E-01
  8.50000000E-01  8.00000000E-01  8.50000000E-01  8.50000000E-01  8.50000000E-01
  8.00000000E-01  8.50000000E-01  8.50000000E-01  8.50000000E-01  8.00000000E-01
  8.50000000E-01  8.50000000E-01  8.50000000E-01  8.00000000E-01  8.50000000E-01
  8.50000000E-01  8.50000000E-01  8.00000000E-01  8.50000000E-01  8.50000000E-01
  8.50000000E-01  8.00000000E-01  8.50000000E-01  8.50000000E-01  8.50000000E-01
  8.00000000E-01  8.50000000E-01  8.50000000E-01  8.50000000E-01  8.00000000E-01
  8.50000000E-01  8.50000000E-01  8.50000000E-01  8.00000000E-01  8.50000000E-01
  8.50000000E-01  8.50000000E-01  8.00000000E-01  8.50000000E-01  8.50000000E-01
  8.50000000E-01  8.00000000E-01  8.50000000E-01  8.50000000E-01  8.50000000E-01
  8.00000000E-01  8.50000000E-01  8.50000000E-01  8.50000000E-01  8.00000000E-01
  8.50000000E-01  8.50000000E-01  8.50000000E-01  8.00000000E-01  8.50000000E-01
  8.50000000E-01  8.50000000E-01  8.00000000E-01  8.50000000E-01  8.50000000E-01
  8.50000000E-01  8.00000000E-01  8.50000000E-01  8.50000000E-01  8.50000000E-01
  8.00000000E-01  8.50000000E-01  8.50000000E-01  8.50000000E-01  8.00000000E-01
  8.50000000E-01  8.50000000E-01  8.50000000E-01  8.00000000E-01  8.50000000E-01
  8.50000000E-01  8.50000000E-01  8.00000000E-01  8.50000000E-01  8.50000000E-01
  8.50000000E-01  8.00000000E-01  8.50000000E-01  8.50000000E-01  8.50000000E-01
  8.00000000E-01  8.50000000E-01  8.50000000E-01  8.50000000E-01  8.00000000E-01
  8.50000000E-01  8.50000000E-01  8.50000000E-01  8.00000000E-01  8.50000000E-01
  8.50000000E-01  8.50000000E-01  8.00000000E-01  8.50000000E-01  8.50000000E-01
  8.50000000E-01  8.00000000E-01  8.50000000E-01  8.50000000E-01  8.50000000E-01
  8.00000000E-01  8.50000000E-01  8.50000000E-01  8.50000000E-01  8.00000000E-01
  8.50000000E-01  8.50000000E-01  8.50000000E-01  8.00000000E-01  8.50000000E-01
  8.50000000E-01  8.50000000E-01  8.00000000E-01  8.50000000E-01  8.50000000E-01
  8.50000000E-01  8.00000000E-01  8.50000000E-01  8.50000000E-01  8.50000000E-01
  8.00000000E-01  8.50000000E-01  8.50000000E-01  8.50000000E-01  8.00000000E-01
  8.50000000E-01  8.50000000E-01  8.50000000E-01  8.00000000E-01  8.50000000E-01
  8.50000000E-01  8.50000000E-01  8.00000000E-01  8.50000000E-01  8.50000000E-01
  8.50000000E-01  8.00000000E-01  8.50000000E-01  8.50000000E-01  8.50000000E-01
  8.00000000E-01  8.50000000E-01  8.50000000E-01  8.50000000E-01  8.00000000E-01
  8.50000000E-01  8.50000000E-01  8.50000000E-01  8.00000000E-01  8.50000000E-01
  8.50000000E-01  8.50000000E-01  8.00000000E-01  8.50000000E-01  8.50000000E-01
  8.50000000E-01  8.00000000E-01  8.50000000E-01  8.50000000E-01  8.50000000E-01
  8.00000000E-01  8.50000000E-01  8.50000000E-01  8.50000000E-01  8.00000000E-01
  8.50000000E-01  8.50000000E-01  8.50000000E-01  8.00000000E-01  8.50000000E-01
  8.50000000E-01  8.50000000E-01  8.00000000E-01  8.50000000E-01  8.50000000E-01
  8.50000000E-01  8.00000000E-01  8.50000000E-01  8.50000000E-01  8.50000000E-01
  8.00000000E-01  8.50000000E-01  8.50000000E-01  8.50000000E-01  8.00000000E-01
  8.50000000E-01  8.50000000E-01  8.50000000E-01  8.00000000E-01  8.50000000E-01
  8.50000000E-01  8.50000000E-01  8.00000000E-01  8.50000000E-01  8.50000000E-01
  8.50000000E-01  8.00000000E-01  8.50000000E-01  8.50000000E-01  8.50000000E-01
  8.00000000E-01  8.50000000E-01  8.50000000E-01  8.50000000E-01  8.00000000E-01
  8.50000000E-01  8.50000000E-01  8.50000000E-01  8.00000000E-01  8.50000000E-01
  8.50000000E-01  8.50000000E-01  8.00000000E-01  8.50000000E-01  8.50000000E-01
  8.50000000E-01  8.00000000E-01  8.50000000E-01  8.50000000E-01  8.50000000E-01
  8.00000000E-01  8.50000000E-01  8.50000000E-01  8.50000000E-01  8.00000000E-01
  8.50000000E-01  8.50000000E-01  8.50000000E-01  8.00000000E-01  8.50000000E-01
  8.50000000E-01  8.50000000E-01  8.00000000E-01  8.50000000E-01  8.50000000E-01
  8.50000000E-01  8.00000000E-01  8.50000000E-01  8.50000000E-01  8.50000000E-01
  8.00000000E-01  8.50000000E-01  8.50000000E-01  8.50000000E-01  8.00000000E-01
  8.50000000E-01  8.50000000E-01  8.50000000E-01  8.00000000E-01  8.50000000E-01
  8.50000000E-01  8.50000000E-01  8.00000000E-01  8.50000000E-01  8.50000000E-01
  8.50000000E-01  8.00000000E-01  8.50000000E-01  8.50000000E-01  8.50000000E-01
  8.00000000E-01  8.50000000E-01  8.50000000E-01  8.50000000E-01  8.00000000E-01
  8.50000000E-01  8.50000000E-01  8.50000000E-01  8.00000000E-01  8.50000000E-01
  8.50000000E-01  8.50000000E-01  8.00000000E-01  8.50000000E-01  8.50000000E-01
  8.50000000E-01  8.00000000E-01  8.50000000E-01  8.50000000E-01  8.50000000E-01
  8.00000000E-01  8.50000000E-01  8.50000000E-01  8.50000000E-01  8.00000000E-01
  8.50000000E-01  8.50000000E-01  8.50000000E-01  8.00000000E-01  8.50000000E-01
  8.50000000E-01  8.50000000E-01  8.00000000E-01  8.50000000E-01  8.50000000E-01
  8.50000000E-01  8.00000000E-01  8.50000000E-01  8.50000000E-01  8.50000000E-01
  8.00000000E-01  8.50000000E-01  8.50000000E-01  8.50000000E-01  8.00000000E-01
  8.50000000E-01  8.50000000E-01  8.50000000E-01  8.00000000E-01  8.50000000E-01
  8.50000000E-01  8.50000000E-01  8.00000000E-01  8.50000000E-01  8.50000000E-01
  8.50000000E-01  8.00000000E-01  8.50000000E-01  8.50000000E-01  8.50000000E-01
  8.00000000E-01  8.50000000E-01  8.50000000E-01  8.50000000E-01  8.00000000E-01
  8.50000000E-01  8.50000000E-01  8.50000000E-01  8.00000000E-01  8.50000000E-01
  8.50000000E-01  8.50000000E-01  8.00000000E-01  8.50000000E-01  8.50000000E-01
  8.50000000E-01  8.00000000E-01  8.50000000E-01  8.50000000E-01  8.50000000E-01
  8.00000000E-01  8.50000000E-01  8.50000000E-01  8.50000000E-01  8.00000000E-01
  8.50000000E-01  8.50000000E-01  8.50000000E-01  8.00000000E-01  8.50000000E-01
  8.50000000E-01  8.50000000E-01  8.00000000E-01  8.50000000E-01  8.50000000E-01
  8.50000000E-01  8.00000000E-01  8.50000000E-01  8.50000000E-01  8.50000000E-01
  8.00000000E-01  8.50000000E-01  8.50000000E-01  8.50000000E-01  8.00000000E-01
  8.50000000E-01  8.50000000E-01  8.50000000E-01  8.00000000E-01  8.50000000E-01
  8.50000000E-01  8.50000000E-01  8.00000000E-01  8.50000000E-01  8.50000000E-01
  8.50000000E-01  8.00000000E-01  8.50000000E-01  8.50000000E-01  8.50000000E-01
  8.00000000E-01  8.50000000E-01  8.50000000E-01  8.50000000E-01  8.00000000E-01
  8.50000000E-01  8.50000000E-01  8.50000000E-01  8.00000000E-01  8.50000000E-01
  8.50000000E-01  8.50000000E-01  8.00000000E-01  8.50000000E-01  8.50000000E-01
  8.50000000E-01  8.00000000E-01  8.50000000E-01  8.50000000E-01  8.50000000E-01
  8.00000000E-01  8.50000000E-01  8.50000000E-01  8.50000000E-01  8.00000000E-01
  8.50000000E-01  8.50000000E-01  8.50000000E-01  8.00000000E-01  8.50000000E-01
  8.50000000E-01  8.50000000E-01  8.00000000E-01  8.50000000E-01  8.50000000E-01
  8.50000000E-01  8.00000000E-01  8.50000000E-01  8.50000000E-01  8.50000000E-01
  8.00000000E-01  8.50000000E-01  8.50000000E-01  8.50000000E-01  8.00000000E-01
  8.50000000E-01  8.50000000E-01  8.50000000E-01  8.00000000E-01  8.50000000E-01
  8.50000000E-01  8.50000000E-01  8.00000000E-01  8.50000000E-01  8.50000000E-01
  8.50000000E-01  8.00000000E-01  8.50000000E-01  8.50000000E-01  8.50000000E-01
  8.00000000E-01  8.50000000E-01  8.50000000E-01  8.50000000E-01  8.00000000E-01
  8.50000000E-01  8.50000000E-01  8.50000000E-01  8.00000000E-01  8.50000000E-01
  8.50000000E-01  8.50000000E-01  8.00000000E-01  8.50000000E-01  8.50000000E-01
  8.50000000E-01  8.00000000E-01  8.50000000E-01  8.50000000E-01  8.50000000E-01
  8.00000000E-01  8.50000000E-01  8.50000000E-01  8.50000000E-01  8.00000000E-01
  8.50000000E-01  8.50000000E-01  8.50000000E-01  8.00000000E-01  8.50000000E-01
  8.50000000E-01  8.50000000E-01  8.00000000E-01  8.50000000E-01  8.50000000E-01
  8.50000000E-01  8.00000000E-01  8.50000000E-01  8.50000000E-01  8.50000000E-01
  8.00000000E-01  8.50000000E-01  8.50000000E-01  8.50000000E-01  8.00000000E-01
  8.50000000E-01  8.50000000E-01  8.50000000E-01  8.00000000E-01  8.50000000E-01
  8.50000000E-01  8.50000000E-01  8.00000000E-01  8.50000000E-01  8.50000000E-01
  8.50000000E-01  8.00000000E-01  8.50000000E-01  8.50000000E-01  8.50000000E-01
  8.00000000E-01  8.50000000E-01  8.50000000E-01  8.50000000E-01  8.00000000E-01
  8.50000000E-01  8.50000000E-01  8.50000000E-01  8.00000000E-01  8.50000000E-01
  8.50000000E-01  8.50000000E-01  8.00000000E-01  8.50000000E-01  8.50000000E-01
  8.50000000E-01  8.00000000E-01  8.50000000E-01  8.50000000E-01  8.50000000E-01
  8.00000000E-01  8.50000000E-01  8.50000000E-01  8.50000000E-01  8.00000000E-01
  8.50000000E-01  8.50000000E-01  8.50000000E-01  8.00000000E-01  8.50000000E-01
  8.50000000E-01  8.50000000E-01  8.00000000E-01  8.50000000E-01  8.50000000E-01
  8.50000000E-01  8.00000000E-01  8.50000000E-01  8.50000000E-01  8.50000000E-01
  8.00000000E-01  8.50000000E-01  8.50000000E-01  8.50000000E-01  8.00000000E-01
  8.50000000E-01  8.50000000E-01  8.50000000E-01  8.00000000E-01  8.50000000E-01
  8.50000000E-01  8.50000000E-01  8.00000000E-01  8.50000000E-01  8.50000000E-01
  8.50000000E-01  8.00000000E-01  8.50000000E-01  8.50000000E-01  8.50000000E-01
  8.00000000E-01  8.50000000E-01  8.50000000E-01  8.50000000E-01  8.00000000E-01
  8.50000000E-01  8.50000000E-01  8.50000000E-01  8.00000000E-01  8.50000000E-01
  8.50000000E-01  8.50000000E-01  8.00000000E-01  8.50000000E-01  8.50000000E-01
  8.50000000E-01  8.00000000E-01  8.50000000E-01  8.50000000E-01  8.50000000E-01
  8.00000000E-01  8.50000000E-01  8.50000000E-01  8.50000000E-01  8.00000000E-01
  8.50000000E-01  8.50000000E-01  8.50000000E-01  8.00000000E-01  8.50000000E-01
  8.50000000E-01  8.50000000E-01  8.00000000E-01  8.50000000E-01  8.50000000E-01
  8.50000000E-01  8.00000000E-01  8.50000000E-01  8.50000000E-01  8.50000000E-01
  8.00000000E-01  8.50000000E-01  8.50000000E-01  8.50000000E-01  8.00000000E-01
  8.50000000E-01  8.50000000E-01  8.50000000E-01  8.00000000E-01  8.50000000E-01
  8.50000000E-01  8.50000000E-01  8.00000000E-01  8.50000000E-01  8.50000000E-01
  8.50000000E-01  8.00000000E-01  8.50000000E-01  8.50000000E-01  8.50000000E-01
  8.00000000E-01  8.50000000E-01  8.50000000E-01  8.50000000E-01  8.00000000E-01
  8.50000000E-01  8.50000000E-01  8.50000000E-01  8.00000000E-01  8.50000000E-01
  8.50000000E-01  8.50000000E-01  8.00000000E-01  8.50000000E-01  8.50000000E-01
  8.50000000E-01  8.00000000E-01  8.50000000E-01  8.50000000E-01  8.50000000E-01
  8.00000000E-01  8.50000000E-01  8.50000000E-01  8.50000000E-01  8.00000000E-01
  8.50000000E-01  8.50000000E-01  8.50000000E-01  8.00000000E-01  8.50000000E-01
  8.50000000E-01  8.50000000E-01  8.00000000E-01  8.50000000E-01  8.50000000E-01
  8.50000000E-01  8.00000000E-01  8.50000000E-01  8.50000000E-01  8.50000000E-01
  8.00000000E-01  8.50000000E-01  8.50000000E-01  8.50000000E-01  8.00000000E-01
  8.50000000E-01  8.50000000E-01  8.50000000E-01  8.00000000E-01  8.50000000E-01
  8.50000000E-01  8.50000000E-01  8.00000000E-01  8.50000000E-01  8.50000000E-01
  8.50000000E-01  8.00000000E-01  8.50000000E-01  8.50000000E-01  8.50000000E-01
  8.00000000E-01  8.50000000E-01  8.50000000E-01  8.50000000E-01  8.00000000E-01
  8.50000000E-01  8.50000000E-01  8.50000000E-01  8.00000000E-01  8.50000000E-01
  8.50000000E-01  8.50000000E-01  8.00000000E-01  8.50000000E-01  8.50000000E-01
  8.50000000E-01  8.00000000E-01  8.50000000E-01  8.50000000E-01  8.50000000E-01
  8.00000000E-01  8.50000000E-01  8.50000000E-01  8.50000000E-01  8.00000000E-01
  8.50000000E-01  8.50000000E-01  8.50000000E-01  8.00000000E-01  8.50000000E-01
  8.50000000E-01  8.50000000E-01  8.00000000E-01  8.50000000E-01  8.50000000E-01
  8.50000000E-01  8.00000000E-01  8.50000000E-01  8.50000000E-01  8.50000000E-01
  8.00000000E-01  8.50000000E-01  8.50000000E-01  8.50000000E-01  8.00000000E-01
  8.50000000E-01  8.50000000E-01  8.50000000E-01  8.00000000E-01  8.50000000E-01
  8.50000000E-01  8.50000000E-01  8.00000000E-01  8.50000000E-01  8.50000000E-01
  8.50000000E-01  8.00000000E-01  8.50000000E-01  8.50000000E-01  8.50000000E-01
  8.00000000E-01  8.50000000E-01  8.50000000E-01  8.50000000E-01  8.00000000E-01
  8.50000000E-01  8.50000000E-01  8.50000000E-01  8.00000000E-01  8.50000000E-01
  8.50000000E-01  8.50000000E-01  8.00000000E-01  8.50000000E-01  8.50000000E-01
  8.50000000E-01  8.00000000E-01  8.50000000E-01  8.50000000E-01  8.50000000E-01
  8.00000000E-01  8.50000000E-01  8.50000000E-01  8.50000000E-01  8.00000000E-01
  8.50000000E-01  8.50000000E-01  8.50000000E-01  8.00000000E-01  8.50000000E-01
  8.50000000E-01  8.50000000E-01  8.00000000E-01  8.50000000E-01  8.50000000E-01
  8.50000000E-01  8.00000000E-01  8.50000000E-01  8.50000000E-01  8.50000000E-01
  8.00000000E-01  8.50000000E-01  8.50000000E-01  8.50000000E-01  8.00000000E-01
  8.50000000E-01  8.50000000E-01  8.50000000E-01  8.00000000E-01  8.50000000E-01
  8.50000000E-01  8.50000000E-01  8.00000000E-01  8.50000000E-01  8.50000000E-01
  8.50000000E-01  8.00000000E-01  8.50000000E-01  8.50000000E-01  8.50000000E-01
  8.00000000E-01  8.50000000E-01  8.50000000E-01  8.50000000E-01  8.00000000E-01
  8.50000000E-01  8.50000000E-01  8.50000000E-01  8.00000000E-01  8.50000000E-01
  8.50000000E-01  8.50000000E-01  8.00000000E-01  8.50000000E-01  8.50000000E-01
  8.50000000E-01  8.00000000E-01  8.50000000E-01  8.50000000E-01  8.50000000E-01
  8.00000000E-01  8.50000000E-01  8.50000000E-01  8.50000000E-01  8.00000000E-01
  8.50000000E-01  8.50000000E-01  8.50000000E-01  8.00000000E-01  8.50000000E-01
  8.50000000E-01  8.50000000E-01  8.00000000E-01  8.50000000E-01  8.50000000E-01
  8.50000000E-01  8.00000000E-01  8.50000000E-01  8.50000000E-01  8.50000000E-01
  8.00000000E-01  8.50000000E-01  8.50000000E-01  8.50000000E-01  8.00000000E-01
  8.50000000E-01  8.50000000E-01  8.50000000E-01  8.00000000E-01  8.50000000E-01
  8.50000000E-01  8.50000000E-01  8.00000000E-01  8.50000000E-01  8.50000000E-01
  8.50000000E-01  8.00000000E-01  8.50000000E-01  8.50000000E-01  8.50000000E-01
  8.00000000E-01  8.50000000E-01  8.50000000E-01  8.50000000E-01  8.00000000E-01
  8.50000000E-01  8.50000000E-01  8.50000000E-01  8.00000000E-01  8.50000000E-01
  8.50000000E-01  8.50000000E-01  8.00000000E-01  8.50000000E-01  8.50000000E-01
  8.50000000E-01  8.00000000E-01  8.50000000E-01  8.50000000E-01  8.50000000E-01
  8.00000000E-01  8.50000000E-01  8.50000000E-01  8.50000000E-01  8.00000000E-01
  8.50000000E-01  8.50000000E-01  8.50000000E-01  8.00000000E-01  8.50000000E-01
  8.50000000E-01  8.50000000E-01  8.00000000E-01  8.50000000E-01  8.50000000E-01
  8.50000000E-01  8.00000000E-01  8.50000000E-01  8.50000000E-01  8.50000000E-01
  8.00000000E-01  8.50000000E-01  8.50000000E-01  8.50000000E-01  8.00000000E-01
  8.50000000E-01  8.50000000E-01  8.50000000E-01  8.00000000E-01  8.50000000E-01
  8.50000000E-01  8.50000000E-01  8.00000000E-01  8.50000000E-01  8.50000000E-01
  8.50000000E-01  8.00000000E-01  8.50000000E-01  8.50000000E-01  8.50000000E-01
  8.00000000E-01  8.50000000E-01  8.50000000E-01  8.50000000E-01  8.00000000E-01
  8.50000000E-01  8.50000000E-01  8.50000000E-01  8.00000000E-01  8.50000000E-01
  8.50000000E-01  8.50000000E-01  8.00000000E-01  8.50000000E-01  8.50000000E-01
  8.50000000E-01  8.00000000E-01  8.50000000E-01  8.50000000E-01  8.50000000E-01
  8.00000000E-01  8.50000000E-01  8.50000000E-01  8.50000000E-01  8.00000000E-01
  8.50000000E-01  8.50000000E-01  8.50000000E-01  8.00000000E-01  8.50000000E-01
  8.50000000E-01  8.50000000E-01  8.00000000E-01  8.50000000E-01  8.50000000E-01
  8.50000000E-01  8.00000000E-01  8.50000000E-01  8.50000000E-01  8.50000000E-01
  8.00000000E-01  8.50000000E-01  8.50000000E-01  8.50000000E-01  8.00000000E-01
  8.50000000E-01  8.50000000E-01  8.50000000E-01  8.00000000E-01  8.50000000E-01
  8.50000000E-01  8.50000000E-01  8.00000000E-01  8.50000000E-01  8.50000000E-01
  8.50000000E-01  8.00000000E-01  8.50000000E-01  8.50000000E-01  8.50000000E-01
  8.00000000E-01  8.50000000E-01  8.50000000E-01  8.50000000E-01  8.00000000E-01
  8.50000000E-01  8.50000000E-01  8.50000000E-01  8.00000000E-01  8.50000000E-01
  8.50000000E-01  8.50000000E-01  8.00000000E-01  8.50000000E-01  8.50000000E-01
  8.50000000E-01  8.00000000E-01  8.50000000E-01  8.50000000E-01  8.50000000E-01
  8.00000000E-01  8.50000000E-01  8.50000000E-01  8.50000000E-01  8.00000000E-01
  8.50000000E-01  8.50000000E-01  8.50000000E-01  8.00000000E-01  8.50000000E-01
  8.50000000E-01  8.50000000E-01  8.00000000E-01  8.50000000E-01  8.50000000E-01
  8.50000000E-01  8.00000000E-01  8.50000000E-01  8.50000000E-01  8.50000000E-01
  8.00000000E-01  8.50000000E-01  8.50000000E-01  8.50000000E-01  8.00000000E-01
  8.50000000E-01  8.50000000E-01  8.50000000E-01  8.00000000E-01  8.50000000E-01
  8.50000000E-01  8.50000000E-01  8.00000000E-01  8.50000000E-01  8.50000000E-01
  8.50000000E-01  8.00000000E-01  8.50000000E-01  8.50000000E-01  8.50000000E-01
  8.00000000E-01  8.50000000E-01  8.50000000E-01  8.50000000E-01  8.00000000E-01
  8.50000000E-01  8.50000000E-01  8.50000000E-01  8.00000000E-01  8.50000000E-01
  8.50000000E-01  8.50000000E-01  8.00000000E-01  8.50000000E-01  8.50000000E-01
  8.50000000E-01  8.00000000E-01  8.50000000E-01  8.50000000E-01  8.50000000E-01
  8.00000000E-01  8.50000000E-01  8.50000000E-01  8.50000000E-01  8.00000000E-01
  8.50000000E-01  8.50000000E-01  8.50000000E-01  8.00000000E-01  8.50000000E-01
  8.50000000E-01  8.50000000E-01  8.00000000E-01  8.50000000E-01  8.50000000E-01
  8.50000000E-01  8.00000000E-01  8.50000000E-01  8.50000000E-01  8.50000000E-01
  8.00000000E-01  8.50000000E-01  8.50000000E-01  8.50000000E-01  8.00000000E-01
  8.50000000E-01  8.50000000E-01  8.50000000E-01  8.00000000E-01  8.50000000E-01
  8.50000000E-01  8.50000000E-01  8.00000000E-01  8.50000000E-01  8.50000000E-01
  8.50000000E-01  8.00000000E-01  8.50000000E-01  8.50000000E-01  8.50000000E-01
  8.00000000E-01  8.50000000E-01  8.50000000E-01  8.50000000E-01  8.00000000E-01
  8.50000000E-01  8.50000000E-01  8.50000000E-01  8.00000000E-01  8.50000000E-01
  8.50000000E-01  8.50000000E-01  8.00000000E-01  8.50000000E-01  8.50000000E-01
  8.50000000E-01  8.00000000E-01  8.50000000E-01  8.50000000E-01  8.50000000E-01
  8.00000000E-01  8.50000000E-01  8.50000000E-01  8.50000000E-01  8.00000000E-01
  8.50000000E-01  8.50000000E-01  8.50000000E-01  8.00000000E-01  8.50000000E-01
  8.50000000E-01  8.50000000E-01  8.00000000E-01  8.50000000E-01  8.50000000E-01
  8.50000000E-01  8.00000000E-01  8.50000000E-01  8.50000000E-01  8.50000000E-01
  8.00000000E-01  8.50000000E-01  8.50000000E-01  8.50000000E-01  8.00000000E-01
  8.50000000E-01  8.50000000E-01  8.50000000E-01  8.00000000E-01  8.50000000E-01
  8.50000000E-01  8.50000000E-01  8.00000000E-01  8.50000000E-01  8.50000000E-01
  8.50000000E-01  8.00000000E-01  8.50000000E-01  8.50000000E-01  8.50000000E-01
  8.00000000E-01  8.50000000E-01  8.50000000E-01  8.50000000E-01  8.00000000E-01
  8.50000000E-01  8.50000000E-01  8.50000000E-01  8.00000000E-01  8.50000000E-01
  8.50000000E-01  8.50000000E-01  8.00000000E-01  8.50000000E-01  8.50000000E-01
  8.50000000E-01  8.00000000E-01  8.50000000E-01  8.50000000E-01  8.50000000E-01
  8.00000000E-01  8.50000000E-01  8.50000000E-01  8.50000000E-01  8.00000000E-01
  8.50000000E-01  8.50000000E-01  8.50000000E-01  8.00000000E-01  8.50000000E-01
  8.50000000E-01  8.50000000E-01  8.00000000E-01  8.50000000E-01  8.50000000E-01
  8.50000000E-01  8.00000000E-01  8.50000000E-01  8.50000000E-01  8.50000000E-01
  8.00000000E-01  8.50000000E-01  8.50000000E-01  8.50000000E-01  8.00000000E-01
  8.50000000E-01  8.50000000E-01  8.50000000E-01  8.00000000E-01  8.50000000E-01
  8.50000000E-01  8.50000000E-01  8.00000000E-01  8.50000000E-01  8.50000000E-01
  8.50000000E-01  8.00000000E-01  8.50000000E-01  8.50000000E-01  8.50000000E-01
  8.00000000E-01  8.50000000E-01  8.50000000E-01  8.50000000E-01  8.00000000E-01
  8.50000000E-01  8.50000000E-01  8.50000000E-01  8.00000000E-01  8.50000000E-01
  8.50000000E-01  8.50000000E-01  8.00000000E-01  8.50000000E-01  8.50000000E-01
  8.50000000E-01  8.00000000E-01  8.50000000E-01  8.50000000E-01  8.50000000E-01
  8.00000000E-01  8.50000000E-01  8.50000000E-01  8.50000000E-01  8.00000000E-01
  8.50000000E-01  8.50000000E-01  8.50000000E-01  8.00000000E-01  8.50000000E-01
  8.50000000E-01  8.50000000E-01  8.00000000E-01  8.50000000E-01  8.50000000E-01
  8.50000000E-01  8.00000000E-01  8.50000000E-01  8.50000000E-01  8.50000000E-01
  8.00000000E-01  8.50000000E-01  8.50000000E-01  8.50000000E-01  8.00000000E-01
  8.50000000E-01  8.50000000E-01  8.50000000E-01  8.00000000E-01  8.50000000E-01
  8.50000000E-01  8.50000000E-01  8.00000000E-01  8.50000000E-01  8.50000000E-01
  8.50000000E-01  8.00000000E-01  8.50000000E-01  8.50000000E-01  8.50000000E-01
  8.00000000E-01  8.50000000E-01  8.50000000E-01  8.50000000E-01  8.00000000E-01
  8.50000000E-01  8.50000000E-01  8.50000000E-01  8.00000000E-01  8.50000000E-01
  8.50000000E-01  8.50000000E-01  8.00000000E-01  8.50000000E-01  8.50000000E-01
  8.50000000E-01  8.00000000E-01  8.50000000E-01  8.50000000E-01  8.50000000E-01
  8.00000000E-01  8.50000000E-01  8.50000000E-01  8.50000000E-01  8.00000000E-01
  8.50000000E-01  8.50000000E-01  8.50000000E-01  8.00000000E-01  8.50000000E-01
  8.50000000E-01  8.50000000E-01  8.00000000E-01  8.50000000E-01  8.50000000E-01
  8.50000000E-01  8.00000000E-01  8.50000000E-01  8.50000000E-01  8.50000000E-01
  8.00000000E-01  8.50000000E-01  8.50000000E-01  8.50000000E-01  8.00000000E-01
  8.50000000E-01  8.50000000E-01  8.50000000E-01  8.00000000E-01  8.50000000E-01
  8.50000000E-01  8.50000000E-01  8.00000000E-01  8.50000000E-01  8.50000000E-01
  8.50000000E-01  8.00000000E-01  8.50000000E-01  8.50000000E-01  8.50000000E-01
  8.00000000E-01  8.50000000E-01  8.50000000E-01  8.50000000E-01  8.00000000E-01
  8.50000000E-01  8.50000000E-01  8.50000000E-01  8.00000000E-01  8.50000000E-01
  8.50000000E-01  8.50000000E-01  8.00000000E-01  8.50000000E-01  8.50000000E-01
  8.50000000E-01  8.00000000E-01  8.50000000E-01  8.50000000E-01  8.50000000E-01
  8.00000000E-01  8.50000000E-01  8.50000000E-01  8.50000000E-01  8.00000000E-01
  8.50000000E-01  8.50000000E-01  8.50000000E-01  8.00000000E-01  8.50000000E-01
  8.50000000E-01  8.50000000E-01  8.00000000E-01  8.50000000E-01  8.50000000E-01
  8.50000000E-01  8.00000000E-01  8.50000000E-01  8.50000000E-01  8.50000000E-01
  8.00000000E-01  8.50000000E-01  8.50000000E-01  8.50000000E-01  8.00000000E-01
  8.50000000E-01  8.50000000E-01  8.50000000E-01  8.00000000E-01  8.50000000E-01
  8.50000000E-01  8.50000000E-01  8.00000000E-01  8.50000000E-01  8.50000000E-01
  8.50000000E-01  8.00000000E-01  8.50000000E-01  8.50000000E-01  8.50000000E-01
  8.00000000E-01  8.50000000E-01  8.50000000E-01  8.50000000E-01  8.00000000E-01
  8.50000000E-01  8.50000000E-01  8.50000000E-01  8.00000000E-01  8.50000000E-01
  8.50000000E-01  8.50000000E-01  8.00000000E-01  8.50000000E-01  8.50000000E-01
  8.50000000E-01  8.00000000E-01  8.50000000E-01  8.50000000E-01  8.50000000E-01
  8.00000000E-01  8.50000000E-01  8.50000000E-01  8.50000000E-01  8.00000000E-01
  8.50000000E-01  8.50000000E-01  8.50000000E-01  8.00000000E-01  8.50000000E-01
  8.50000000E-01  8.50000000E-01  8.00000000E-01  8.50000000E-01  8.50000000E-01
  8.50000000E-01  8.00000000E-01  8.50000000E-01  8.50000000E-01  8.50000000E-01
  8.00000000E-01  8.50000000E-01  8.50000000E-01  8.50000000E-01  8.00000000E-01
  8.50000000E-01  8.50000000E-01  8.50000000E-01  8.00000000E-01  8.50000000E-01
  8.50000000E-01  8.50000000E-01  8.00000000E-01  8.50000000E-01  8.50000000E-01
  8.50000000E-01  8.00000000E-01  8.50000000E-01  8.50000000E-01  8.50000000E-01
  8.00000000E-01  8.50000000E-01  8.50000000E-01  8.50000000E-01  8.00000000E-01
  8.50000000E-01  8.50000000E-01  8.50000000E-01  8.00000000E-01  8.50000000E-01
  8.50000000E-01  8.50000000E-01  8.00000000E-01  8.50000000E-01  8.50000000E-01
  8.50000000E-01  8.00000000E-01  8.50000000E-01  8.50000000E-01  8.50000000E-01
  8.00000000E-01  8.50000000E-01  8.50000000E-01  8.50000000E-01  8.00000000E-01
  8.50000000E-01  8.50000000E-01  8.50000000E-01  8.00000000E-01  8.50000000E-01
  8.50000000E-01  8.50000000E-01  8.00000000E-01  8.50000000E-01  8.50000000E-01
  8.50000000E-01  8.00000000E-01  8.50000000E-01  8.50000000E-01  8.50000000E-01
  8.00000000E-01  8.50000000E-01  8.50000000E-01  8.50000000E-01  8.00000000E-01
  8.50000000E-01  8.50000000E-01  8.50000000E-01  8.00000000E-01  8.50000000E-01
  8.50000000E-01  8.50000000E-01  8.00000000E-01  8.50000000E-01  8.50000000E-01
  8.50000000E-01  8.00000000E-01  8.50000000E-01  8.50000000E-01  8.50000000E-01
  8.00000000E-01  8.50000000E-01  8.50000000E-01  8.50000000E-01  8.00000000E-01
  8.50000000E-01  8.50000000E-01  8.50000000E-01  8.00000000E-01  8.50000000E-01
  8.50000000E-01  8.50000000E-01  8.00000000E-01  8.50000000E-01  8.50000000E-01
  8.50000000E-01  8.00000000E-01  8.50000000E-01  8.50000000E-01  8.50000000E-01
  8.00000000E-01  8.50000000E-01  8.50000000E-01  8.50000000E-01  8.00000000E-01
  8.50000000E-01  8.50000000E-01  8.50000000E-01  8.00000000E-01  8.50000000E-01
  8.50000000E-01  8.50000000E-01  8.00000000E-01  8.50000000E-01  8.50000000E-01
  8.50000000E-01  8.00000000E-01  8.50000000E-01  8.50000000E-01  8.50000000E-01
  8.00000000E-01  8.50000000E-01  8.50000000E-01  8.50000000E-01  8.00000000E-01
  8.50000000E-01  8.50000000E-01  8.50000000E-01  8.00000000E-01  8.50000000E-01
  8.50000000E-01  8.50000000E-01  8.00000000E-01  8.50000000E-01  8.50000000E-01
  8.50000000E-01  8.00000000E-01  8.50000000E-01  8.50000000E-01  8.50000000E-01
  8.00000000E-01  8.50000000E-01  8.50000000E-01  8.50000000E-01  8.00000000E-01
  8.50000000E-01  8.50000000E-01  8.50000000E-01  8.00000000E-01  8.50000000E-01
  8.50000000E-01  8.50000000E-01  8.00000000E-01  8.50000000E-01  8.50000000E-01
  8.50000000E-01  8.00000000E-01  8.50000000E-01  8.50000000E-01  8.50000000E-01
  8.00000000E-01  8.50000000E-01  8.50000000E-01  8.50000000E-01  8.00000000E-01
  8.50000000E-01  8.50000000E-01  8.50000000E-01  8.00000000E-01  8.50000000E-01
  8.50000000E-01  8.50000000E-01  8.00000000E-01  8.50000000E-01  8.50000000E-01
  8.50000000E-01  8.00000000E-01  8.50000000E-01  8.50000000E-01  8.50000000E-01
  8.00000000E-01  8.50000000E-01  8.50000000E-01  8.50000000E-01  8.00000000E-01
  8.50000000E-01  8.50000000E-01  8.50000000E-01  8.00000000E-01  8.50000000E-01
  8.50000000E-01  8.50000000E-01  8.00000000E-01  8.50000000E-01  8.50000000E-01
  8.50000000E-01  8.00000000E-01  8.50000000E-01  8.50000000E-01  8.50000000E-01
  8.00000000E-01  8.50000000E-01  8.50000000E-01  8.50000000E-01  8.00000000E-01
  8.50000000E-01  8.50000000E-01  8.50000000E-01  8.00000000E-01  8.50000000E-01
  8.50000000E-01  8.50000000E-01  8.00000000E-01  8.50000000E-01  8.50000000E-01
  8.50000000E-01  8.00000000E-01  8.50000000E-01  8.50000000E-01  8.50000000E-01
  8.00000000E-01  8.50000000E-01  8.50000000E-01  8.50000000E-01  8.00000000E-01
  8.50000000E-01  8.50000000E-01  8.50000000E-01  8.00000000E-01  8.50000000E-01
  8.50000000E-01  8.50000000E-01  8.00000000E-01  8.50000000E-01  8.50000000E-01
  8.50000000E-01  8.00000000E-01  8.50000000E-01  8.50000000E-01  8.50000000E-01
  8.00000000E-01  8.50000000E-01  8.50000000E-01  8.50000000E-01  8.00000000E-01
  8.50000000E-01  8.50000000E-01  8.50000000E-01  8.00000000E-01  8.50000000E-01
  8.50000000E-01  8.50000000E-01  8.00000000E-01  8.50000000E-01  8.50000000E-01
  8.50000000E-01  8.00000000E-01  8.50000000E-01  8.50000000E-01  8.50000000E-01
  8.00000000E-01  8.50000000E-01  8.50000000E-01  8.50000000E-01  8.00000000E-01
  8.50000000E-01  8.50000000E-01  8.50000000E-01  8.00000000E-01  8.50000000E-01
  8.50000000E-01  8.50000000E-01  8.00000000E-01  8.50000000E-01  8.50000000E-01
  8.50000000E-01  8.00000000E-01  8.50000000E-01  8.50000000E-01  8.50000000E-01
  8.00000000E-01  8.50000000E-01  8.50000000E-01  8.50000000E-01  8.00000000E-01
  8.50000000E-01  8.50000000E-01  8.50000000E-01  8.00000000E-01  8.50000000E-01
  8.50000000E-01  8.50000000E-01  8.00000000E-01  8.50000000E-01  8.50000000E-01
  8.50000000E-01  8.00000000E-01  8.50000000E-01  8.50000000E-01  8.50000000E-01
  8.00000000E-01  8.50000000E-01  8.50000000E-01  8.50000000E-01  8.00000000E-01
  8.50000000E-01  8.50000000E-01  8.50000000E-01  8.00000000E-01  8.50000000E-01
  8.50000000E-01  8.50000000E-01  8.00000000E-01  8.50000000E-01  8.50000000E-01
  8.50000000E-01  8.00000000E-01  8.50000000E-01  8.50000000E-01  8.50000000E-01
  8.00000000E-01  8.50000000E-01  8.50000000E-01  8.50000000E-01  8.00000000E-01
  8.50000000E-01  8.50000000E-01  8.50000000E-01  8.00000000E-01  8.50000000E-01
  8.50000000E-01  8.50000000E-01  8.00000000E-01  8.50000000E-01  8.50000000E-01
  8.50000000E-01  8.00000000E-01  8.50000000E-01  8.50000000E-01  8.50000000E-01
  8.00000000E-01  8.50000000E-01  8.50000000E-01  8.50000000E-01  8.00000000E-01
  8.50000000E-01  8.50000000E-01  8.50000000E-01  8.00000000E-01  8.50000000E-01
  8.50000000E-01  8.50000000E-01  8.00000000E-01  8.50000000E-01  8.50000000E-01
  8.50000000E-01  8.00000000E-01  8.50000000E-01  8.50000000E-01  8.50000000E-01
  8.00000000E-01  8.50000000E-01  8.50000000E-01  8.50000000E-01  8.00000000E-01
  8.50000000E-01  8.50000000E-01  8.50000000E-01  8.00000000E-01  8.50000000E-01
  8.50000000E-01  8.50000000E-01  8.00000000E-01  8.50000000E-01  8.50000000E-01
  8.50000000E-01  8.00000000E-01  8.50000000E-01  8.50000000E-01  8.50000000E-01
  8.00000000E-01  8.50000000E-01  8.50000000E-01  8.50000000E-01  8.00000000E-01
  8.50000000E-01  8.50000000E-01  8.50000000E-01  8.00000000E-01  8.50000000E-01
  8.50000000E-01  8.50000000E-01  8.00000000E-01  8.50000000E-01  8.50000000E-01
  8.50000000E-01  8.00000000E-01  8.50000000E-01  8.50000000E-01  8.50000000E-01
  8.00000000E-01  8.50000000E-01  8.50000000E-01  8.50000000E-01  8.00000000E-01
  8.50000000E-01  8.50000000E-01  8.50000000E-01  8.00000000E-01  8.50000000E-01
  8.50000000E-01  8.50000000E-01  8.00000000E-01  8.50000000E-01  8.50000000E-01
  8.50000000E-01  8.00000000E-01  8.50000000E-01  8.50000000E-01  8.50000000E-01
  8.00000000E-01  8.50000000E-01  8.50000000E-01  8.50000000E-01  8.00000000E-01
  8.50000000E-01  8.50000000E-01  8.50000000E-01  8.00000000E-01  8.50000000E-01
  8.50000000E-01  8.50000000E-01  8.00000000E-01  8.50000000E-01  8.50000000E-01
  8.50000000E-01  8.00000000E-01  8.50000000E-01  8.50000000E-01  8.50000000E-01
  8.00000000E-01  8.50000000E-01  8.50000000E-01  8.50000000E-01  8.00000000E-01
  8.50000000E-01  8.50000000E-01  8.50000000E-01  8.00000000E-01  8.50000000E-01
  8.50000000E-01  8.50000000E-01  8.00000000E-01  8.50000000E-01  8.50000000E-01
  8.50000000E-01  8.00000000E-01  8.50000000E-01  8.50000000E-01  8.50000000E-01
  8.00000000E-01  8.50000000E-01  8.50000000E-01  8.50000000E-01  8.00000000E-01
  8.50000000E-01  8.50000000E-01  8.50000000E-01  8.00000000E-01  8.50000000E-01
  8.50000000E-01  8.50000000E-01  8.00000000E-01  8.50000000E-01  8.50000000E-01
  8.50000000E-01  8.00000000E-01  8.50000000E-01  8.50000000E-01  8.50000000E-01
  8.00000000E-01  8.50000000E-01  8.50000000E-01  8.50000000E-01  8.00000000E-01
  8.50000000E-01  8.50000000E-01  8.50000000E-01  8.00000000E-01  8.50000000E-01
  8.50000000E-01  8.50000000E-01  8.00000000E-01  8.50000000E-01  8.50000000E-01
  8.50000000E-01  8.00000000E-01  8.50000000E-01  8.50000000E-01  8.50000000E-01
  8.00000000E-01  8.50000000E-01  8.50000000E-01  8.50000000E-01  8.00000000E-01
  8.50000000E-01  8.50000000E-01  8.50000000E-01  8.00000000E-01  8.50000000E-01
  8.50000000E-01  8.50000000E-01  8.00000000E-01  8.50000000E-01  8.50000000E-01
  8.50000000E-01  8.00000000E-01  8.50000000E-01  8.50000000E-01  8.50000000E-01
  8.00000000E-01  8.50000000E-01  8.50000000E-01  8.50000000E-01  8.00000000E-01
  8.50000000E-01  8.50000000E-01  8.50000000E-01  8.00000000E-01  8.50000000E-01
  8.50000000E-01  8.50000000E-01  8.00000000E-01  8.50000000E-01  8.50000000E-01
  8.50000000E-01  8.00000000E-01  8.50000000E-01  8.50000000E-01  8.50000000E-01
  8.00000000E-01  8.50000000E-01  8.50000000E-01  8.50000000E-01  8.00000000E-01
  8.50000000E-01  8.50000000E-01  8.50000000E-01  8.00000000E-01  8.50000000E-01
  8.50000000E-01  8.50000000E-01  8.00000000E-01  8.50000000E-01  8.50000000E-01
  8.50000000E-01  8.00000000E-01  8.50000000E-01  8.50000000E-01  8.50000000E-01
  8.00000000E-01  8.50000000E-01  8.50000000E-01  8.50000000E-01  8.00000000E-01
  8.50000000E-01  8.50000000E-01  8.50000000E-01  8.00000000E-01  8.50000000E-01
  8.50000000E-01  8.50000000E-01  8.00000000E-01  8.50000000E-01  8.50000000E-01
  8.50000000E-01  8.00000000E-01  8.50000000E-01  8.50000000E-01  8.50000000E-01
  8.00000000E-01  8.50000000E-01  8.50000000E-01  8.50000000E-01  8.00000000E-01
  8.50000000E-01  8.50000000E-01  8.50000000E-01  8.00000000E-01  8.50000000E-01
  8.50000000E-01  8.50000000E-01  8.00000000E-01  8.50000000E-01  8.50000000E-01
  8.50000000E-01  8.00000000E-01  8.50000000E-01  8.50000000E-01  8.50000000E-01
  8.00000000E-01  8.50000000E-01  8.50000000E-01  8.50000000E-01  8.00000000E-01
  8.50000000E-01  8.50000000E-01  8.50000000E-01  8.00000000E-01  8.50000000E-01
  8.50000000E-01  8.50000000E-01  8.00000000E-01  8.50000000E-01  8.50000000E-01
  8.50000000E-01  8.00000000E-01  8.50000000E-01  8.50000000E-01  8.50000000E-01
  8.00000000E-01  8.50000000E-01  8.50000000E-01  8.50000000E-01  8.00000000E-01
  8.50000000E-01  8.50000000E-01  8.50000000E-01  8.00000000E-01  8.50000000E-01
  8.50000000E-01  8.50000000E-01  8.00000000E-01  8.50000000E-01  8.50000000E-01
  8.50000000E-01  8.00000000E-01  8.50000000E-01  8.50000000E-01  8.50000000E-01
  8.00000000E-01  8.50000000E-01  8.50000000E-01  8.50000000E-01  8.00000000E-01
  8.50000000E-01  8.50000000E-01  8.50000000E-01  8.00000000E-01  8.50000000E-01
  8.50000000E-01  8.50000000E-01  8.00000000E-01  8.50000000E-01  8.50000000E-01
  8.50000000E-01  8.00000000E-01  8.50000000E-01  8.50000000E-01  8.50000000E-01
  8.00000000E-01  8.50000000E-01  8.50000000E-01  8.50000000E-01  8.00000000E-01
  8.50000000E-01  8.50000000E-01  8.50000000E-01  8.00000000E-01  8.50000000E-01
  8.50000000E-01  8.50000000E-01  8.00000000E-01  8.50000000E-01  8.50000000E-01
  8.50000000E-01  8.00000000E-01  8.50000000E-01  8.50000000E-01  8.50000000E-01
  8.00000000E-01  8.50000000E-01  8.50000000E-01  8.50000000E-01  8.00000000E-01
  8.50000000E-01  8.50000000E-01  8.50000000E-01  8.00000000E-01  8.50000000E-01
  8.50000000E-01  8.50000000E-01  8.00000000E-01  8.50000000E-01  8.50000000E-01
  8.50000000E-01  8.00000000E-01  8.50000000E-01  8.50000000E-01  8.50000000E-01
  8.00000000E-01  8.50000000E-01  8.50000000E-01  8.50000000E-01  8.00000000E-01
  8.50000000E-01  8.50000000E-01  8.50000000E-01  8.00000000E-01  8.50000000E-01
  8.50000000E-01  8.50000000E-01  8.00000000E-01  8.50000000E-01  8.50000000E-01
  8.50000000E-01  8.00000000E-01  8.50000000E-01  8.50000000E-01  8.50000000E-01
  8.00000000E-01  8.50000000E-01  8.50000000E-01  8.50000000E-01  8.00000000E-01
  8.50000000E-01  8.50000000E-01  8.50000000E-01  8.00000000E-01  8.50000000E-01
  8.50000000E-01  8.50000000E-01  8.00000000E-01  8.50000000E-01  8.50000000E-01
  8.50000000E-01  8.00000000E-01  8.50000000E-01  8.50000000E-01  8.50000000E-01
  8.00000000E-01  8.50000000E-01  8.50000000E-01  8.50000000E-01  8.00000000E-01
  8.50000000E-01  8.50000000E-01  8.50000000E-01  8.00000000E-01  8.50000000E-01
  8.50000000E-01  8.50000000E-01  8.00000000E-01  8.50000000E-01  8.50000000E-01
  8.50000000E-01  8.00000000E-01  8.50000000E-01  8.50000000E-01  8.50000000E-01
  8.00000000E-01  8.50000000E-01  8.50000000E-01  8.50000000E-01  8.00000000E-01
  8.50000000E-01  8.50000000E-01  8.50000000E-01  8.00000000E-01  8.50000000E-01
  8.50000000E-01  8.50000000E-01  8.00000000E-01  8.50000000E-01  8.50000000E-01
  8.50000000E-01  8.00000000E-01  8.50000000E-01  8.50000000E-01  8.50000000E-01
  8.00000000E-01  8.50000000E-01  8.50000000E-01  8.50000000E-01  8.00000000E-01
  8.50000000E-01  8.50000000E-01  8.50000000E-01  8.00000000E-01  8.50000000E-01
  8.50000000E-01  8.50000000E-01  8.00000000E-01  8.50000000E-01  8.50000000E-01
  8.50000000E-01  8.00000000E-01  8.50000000E-01  8.50000000E-01  8.50000000E-01
  8.00000000E-01  8.50000000E-01  8.50000000E-01  8.50000000E-01  8.00000000E-01
  8.50000000E-01  8.50000000E-01  8.50000000E-01  8.00000000E-01  8.50000000E-01
  8.50000000E-01  8.50000000E-01  8.00000000E-01  8.50000000E-01  8.50000000E-01
  8.50000000E-01  8.00000000E-01  8.50000000E-01  8.50000000E-01  8.50000000E-01
  8.00000000E-01  8.50000000E-01  8.50000000E-01  8.50000000E-01  8.00000000E-01
  8.50000000E-01  8.50000000E-01  8.50000000E-01  8.00000000E-01  8.50000000E-01
  8.50000000E-01  8.50000000E-01  8.00000000E-01  8.50000000E-01  8.50000000E-01
  8.50000000E-01  8.00000000E-01  8.50000000E-01  8.50000000E-01  8.50000000E-01
  8.00000000E-01  8.50000000E-01  8.50000000E-01  8.50000000E-01  8.00000000E-01
  8.50000000E-01  8.50000000E-01  8.50000000E-01  8.00000000E-01  8.50000000E-01
  8.50000000E-01  8.50000000E-01  8.00000000E-01  8.50000000E-01  8.50000000E-01
  8.50000000E-01  8.00000000E-01  8.50000000E-01  8.50000000E-01  8.50000000E-01
  8.00000000E-01  8.50000000E-01  8.50000000E-01  8.50000000E-01  8.00000000E-01
  8.50000000E-01  8.50000000E-01  8.50000000E-01  8.00000000E-01  8.50000000E-01
  8.50000000E-01  8.50000000E-01  8.00000000E-01  8.50000000E-01  8.50000000E-01
  8.50000000E-01  8.00000000E-01  8.50000000E-01  8.50000000E-01  8.50000000E-01
  8.00000000E-01  8.50000000E-01  8.50000000E-01  8.50000000E-01  8.00000000E-01
  8.50000000E-01  8.50000000E-01  8.50000000E-01  8.00000000E-01  8.50000000E-01
  8.50000000E-01  8.50000000E-01  8.00000000E-01  8.50000000E-01  8.50000000E-01
  8.50000000E-01  8.00000000E-01  8.50000000E-01  8.50000000E-01  8.50000000E-01
  8.00000000E-01  8.50000000E-01  8.50000000E-01  8.50000000E-01  8.00000000E-01
  8.50000000E-01  8.50000000E-01  8.50000000E-01  8.00000000E-01  8.50000000E-01
  8.50000000E-01  8.50000000E-01  8.00000000E-01  8.50000000E-01  8.50000000E-01
  8.50000000E-01  8.00000000E-01  8.50000000E-01  8.50000000E-01  8.50000000E-01
  8.00000000E-01  8.50000000E-01  8.50000000E-01  8.50000000E-01  8.00000000E-01
  8.50000000E-01  8.50000000E-01  8.50000000E-01  8.00000000E-01  8.50000000E-01
  8.50000000E-01  8.50000000E-01  8.00000000E-01  8.50000000E-01  8.50000000E-01
  8.50000000E-01  8.00000000E-01  8.50000000E-01  8.50000000E-01  8.50000000E-01
  8.00000000E-01  8.50000000E-01  8.50000000E-01  8.50000000E-01  8.00000000E-01
  8.50000000E-01  8.50000000E-01  8.50000000E-01  8.00000000E-01  8.50000000E-01
  8.50000000E-01  8.50000000E-01  8.00000000E-01  8.50000000E-01  8.50000000E-01
  8.50000000E-01  8.00000000E-01  8.50000000E-01  8.50000000E-01  8.50000000E-01
  8.00000000E-01  8.50000000E-01  8.50000000E-01  8.50000000E-01  8.00000000E-01
  8.50000000E-01  8.50000000E-01  8.50000000E-01  8.00000000E-01  8.50000000E-01
  8.50000000E-01  8.50000000E-01  8.00000000E-01  8.50000000E-01  8.50000000E-01
  8.50000000E-01  8.00000000E-01  8.50000000E-01  8.50000000E-01  8.50000000E-01
  8.00000000E-01  8.50000000E-01  8.50000000E-01  8.50000000E-01  8.00000000E-01
  8.50000000E-01  8.50000000E-01  8.50000000E-01  8.00000000E-01  8.50000000E-01
  8.50000000E-01  8.50000000E-01  8.00000000E-01  8.50000000E-01  8.50000000E-01
  8.50000000E-01  8.00000000E-01  8.50000000E-01  8.50000000E-01  8.50000000E-01
  8.00000000E-01  8.50000000E-01  8.50000000E-01  8.50000000E-01  8.00000000E-01
  8.50000000E-01  8.50000000E-01  8.50000000E-01  8.00000000E-01  8.50000000E-01
  8.50000000E-01  8.50000000E-01  8.00000000E-01  8.50000000E-01  8.50000000E-01
  8.50000000E-01  8.00000000E-01  8.50000000E-01  8.50000000E-01  8.50000000E-01
  8.00000000E-01  8.50000000E-01  8.50000000E-01  8.50000000E-01  8.00000000E-01
  8.50000000E-01  8.50000000E-01  8.50000000E-01  8.00000000E-01  8.50000000E-01
  8.50000000E-01  8.50000000E-01  8.00000000E-01  8.50000000E-01  8.50000000E-01
  8.50000000E-01  8.00000000E-01  8.50000000E-01  8.50000000E-01  8.50000000E-01
  8.00000000E-01  8.50000000E-01  8.50000000E-01  8.50000000E-01  8.00000000E-01
  8.50000000E-01  8.50000000E-01  8.50000000E-01  8.00000000E-01  8.50000000E-01
  8.50000000E-01  8.50000000E-01  8.00000000E-01  8.50000000E-01  8.50000000E-01
  8.50000000E-01  8.00000000E-01  8.50000000E-01  8.50000000E-01  8.50000000E-01
  8.00000000E-01  8.50000000E-01  8.50000000E-01  8.50000000E-01  8.00000000E-01
  8.50000000E-01  8.50000000E-01  8.50000000E-01  8.00000000E-01  8.50000000E-01
  8.50000000E-01  8.50000000E-01  8.00000000E-01  8.50000000E-01  8.50000000E-01
  8.50000000E-01  8.00000000E-01  8.50000000E-01  8.50000000E-01  8.50000000E-01
  8.00000000E-01  8.50000000E-01  8.50000000E-01  8.50000000E-01  8.00000000E-01
  8.50000000E-01  8.50000000E-01  8.50000000E-01  8.00000000E-01  8.50000000E-01
  8.50000000E-01  8.50000000E-01  8.00000000E-01  8.50000000E-01  8.50000000E-01
  8.50000000E-01  8.00000000E-01  8.50000000E-01  8.50000000E-01  8.50000000E-01
  8.00000000E-01  8.50000000E-01  8.50000000E-01  8.50000000E-01  8.00000000E-01
  8.50000000E-01  8.50000000E-01  8.50000000E-01  8.00000000E-01  8.50000000E-01
  8.50000000E-01  8.50000000E-01  8.00000000E-01  8.50000000E-01  8.50000000E-01
  8.50000000E-01  8.00000000E-01  8.50000000E-01  8.50000000E-01  8.50000000E-01
  8.00000000E-01  8.50000000E-01  8.50000000E-01  8.50000000E-01  8.00000000E-01
  8.50000000E-01  8.50000000E-01  8.50000000E-01  8.00000000E-01  8.50000000E-01
  8.50000000E-01  8.50000000E-01  8.00000000E-01  8.50000000E-01  8.50000000E-01
  8.50000000E-01  8.00000000E-01  8.50000000E-01  8.50000000E-01  8.50000000E-01
  8.00000000E-01  8.50000000E-01  8.50000000E-01  8.50000000E-01  8.00000000E-01
  8.50000000E-01  8.50000000E-01  8.50000000E-01  8.00000000E-01  8.50000000E-01
  8.50000000E-01  8.50000000E-01  8.00000000E-01  8.50000000E-01  8.50000000E-01
  8.50000000E-01  8.00000000E-01  8.50000000E-01  8.50000000E-01  8.50000000E-01
  8.00000000E-01  8.50000000E-01  8.50000000E-01  8.50000000E-01  8.00000000E-01
  8.50000000E-01  8.50000000E-01  8.50000000E-01  8.00000000E-01  8.50000000E-01
  8.50000000E-01  8.50000000E-01  8.00000000E-01  8.50000000E-01  8.50000000E-01
  8.50000000E-01  8.00000000E-01  8.50000000E-01  8.50000000E-01  8.50000000E-01
  8.00000000E-01  8.50000000E-01  8.50000000E-01  8.50000000E-01  8.00000000E-01
  8.50000000E-01  8.50000000E-01  8.50000000E-01  8.00000000E-01  8.50000000E-01
  8.50000000E-01  8.50000000E-01  8.00000000E-01  8.50000000E-01  8.50000000E-01
  8.50000000E-01  8.00000000E-01  8.50000000E-01  8.50000000E-01  8.50000000E-01
  8.00000000E-01  8.50000000E-01  8.50000000E-01  8.50000000E-01  8.00000000E-01
  8.50000000E-01  8.50000000E-01  8.50000000E-01  8.00000000E-01  8.50000000E-01
  8.50000000E-01  8.50000000E-01  8.00000000E-01  8.50000000E-01  8.50000000E-01
  8.50000000E-01  8.00000000E-01  8.50000000E-01  8.50000000E-01  8.50000000E-01
  8.00000000E-01  8.50000000E-01  8.50000000E-01  8.50000000E-01  8.00000000E-01
  8.50000000E-01  8.50000000E-01  8.50000000E-01  8.00000000E-01  8.50000000E-01
  8.50000000E-01  8.50000000E-01  8.00000000E-01  8.50000000E-01  8.50000000E-01
  8.50000000E-01  8.00000000E-01  8.50000000E-01  8.50000000E-01  8.50000000E-01
  8.00000000E-01  8.50000000E-01  8.50000000E-01  8.50000000E-01  8.00000000E-01
  8.50000000E-01  8.50000000E-01  8.50000000E-01  8.00000000E-01  8.50000000E-01
  8.50000000E-01  8.50000000E-01  8.00000000E-01  8.50000000E-01  8.50000000E-01
  8.50000000E-01  8.00000000E-01  8.50000000E-01  8.50000000E-01  8.50000000E-01
  8.00000000E-01  8.50000000E-01  8.50000000E-01  8.50000000E-01  8.00000000E-01
  8.50000000E-01  8.50000000E-01  8.50000000E-01  8.00000000E-01  8.50000000E-01
  8.50000000E-01  8.50000000E-01  8.00000000E-01  8.50000000E-01  8.50000000E-01
  8.50000000E-01  8.00000000E-01  8.50000000E-01  8.50000000E-01  8.50000000E-01
  8.00000000E-01  8.50000000E-01  8.50000000E-01  8.50000000E-01  8.00000000E-01
  8.50000000E-01  8.50000000E-01  8.50000000E-01  8.00000000E-01  8.50000000E-01
  8.50000000E-01  8.50000000E-01  8.00000000E-01  8.50000000E-01  8.50000000E-01
  8.50000000E-01  8.00000000E-01  8.50000000E-01  8.50000000E-01  8.50000000E-01
  8.00000000E-01  8.50000000E-01  8.50000000E-01  8.50000000E-01  8.00000000E-01
  8.50000000E-01  8.50000000E-01  8.50000000E-01  8.00000000E-01  8.50000000E-01
  8.50000000E-01  8.50000000E-01  8.00000000E-01  8.50000000E-01  8.50000000E-01
  8.50000000E-01  8.00000000E-01  8.50000000E-01  8.50000000E-01  8.50000000E-01
  8.00000000E-01  8.50000000E-01  8.50000000E-01  8.50000000E-01  8.00000000E-01
  8.50000000E-01  8.50000000E-01  8.50000000E-01  8.00000000E-01  8.50000000E-01
  8.50000000E-01  8.50000000E-01  8.00000000E-01  8.50000000E-01  8.50000000E-01
  8.50000000E-01  8.00000000E-01  8.50000000E-01  8.50000000E-01  8.50000000E-01
  8.00000000E-01  8.50000000E-01  8.50000000E-01  8.50000000E-01  8.00000000E-01
  8.50000000E-01  8.50000000E-01  8.50000000E-01  8.00000000E-01  8.50000000E-01
  8.50000000E-01  8.50000000E-01  8.00000000E-01  8.50000000E-01  8.50000000E-01
  8.50000000E-01  8.00000000E-01  8.50000000E-01  8.50000000E-01  8.50000000E-01
  8.00000000E-01  8.50000000E-01  8.50000000E-01  8.50000000E-01  8.00000000E-01
  8.50000000E-01  8.50000000E-01  8.50000000E-01  8.00000000E-01  8.50000000E-01
  8.50000000E-01  8.50000000E-01  8.00000000E-01  8.50000000E-01  8.50000000E-01
  8.50000000E-01  8.00000000E-01  8.50000000E-01  8.50000000E-01  8.50000000E-01
  8.00000000E-01  8.50000000E-01  8.50000000E-01  8.50000000E-01  8.00000000E-01
  8.50000000E-01  8.50000000E-01  8.50000000E-01  8.00000000E-01  8.50000000E-01
  8.50000000E-01  8.50000000E-01  8.00000000E-01  8.50000000E-01  8.50000000E-01
  8.50000000E-01  8.00000000E-01  8.50000000E-01  8.50000000E-01  8.50000000E-01
  8.00000000E-01  8.50000000E-01  8.50000000E-01  8.50000000E-01  8.00000000E-01
  8.50000000E-01  8.50000000E-01  8.50000000E-01  8.00000000E-01  8.50000000E-01
  8.50000000E-01  8.50000000E-01  8.00000000E-01  8.50000000E-01  8.50000000E-01
  8.50000000E-01  8.00000000E-01  8.50000000E-01  8.50000000E-01  8.50000000E-01
  8.00000000E-01  8.50000000E-01  8.50000000E-01  8.50000000E-01  8.00000000E-01
  8.50000000E-01  8.50000000E-01  8.50000000E-01  8.00000000E-01  8.50000000E-01
  8.50000000E-01  8.50000000E-01  8.00000000E-01  8.50000000E-01  8.50000000E-01
  8.50000000E-01  8.00000000E-01  8.50000000E-01  8.50000000E-01  8.50000000E-01
  8.00000000E-01  8.50000000E-01  8.50000000E-01  8.50000000E-01  8.00000000E-01
  8.50000000E-01  8.50000000E-01  8.50000000E-01  8.00000000E-01  8.50000000E-01
  8.50000000E-01  8.50000000E-01  8.00000000E-01  8.50000000E-01  8.50000000E-01
  8.50000000E-01  8.00000000E-01  8.50000000E-01  8.50000000E-01  8.50000000E-01
  8.00000000E-01  8.50000000E-01  8.50000000E-01  8.50000000E-01  8.00000000E-01
  8.50000000E-01  8.50000000E-01  8.50000000E-01  8.00000000E-01  8.50000000E-01
  8.50000000E-01  8.50000000E-01  8.00000000E-01  8.50000000E-01  8.50000000E-01
  8.50000000E-01  8.00000000E-01  8.50000000E-01  8.50000000E-01  8.50000000E-01
  8.00000000E-01  8.50000000E-01  8.50000000E-01  8.50000000E-01  8.00000000E-01
  8.50000000E-01  8.50000000E-01  8.50000000E-01  8.00000000E-01  8.50000000E-01
  8.50000000E-01  8.50000000E-01  8.00000000E-01  8.50000000E-01  8.50000000E-01
  8.50000000E-01  8.00000000E-01  8.50000000E-01  8.50000000E-01  8.50000000E-01
  8.00000000E-01  8.50000000E-01  8.50000000E-01  8.50000000E-01  8.00000000E-01
  8.50000000E-01  8.50000000E-01  8.50000000E-01  8.00000000E-01  8.50000000E-01
  8.50000000E-01  8.50000000E-01  8.00000000E-01  8.50000000E-01  8.50000000E-01
  8.50000000E-01  8.00000000E-01  8.50000000E-01  8.50000000E-01  8.50000000E-01
  8.00000000E-01  8.50000000E-01  8.50000000E-01  8.50000000E-01  8.00000000E-01
  8.50000000E-01  8.50000000E-01  8.50000000E-01  8.00000000E-01  8.50000000E-01
  8.50000000E-01  8.50000000E-01  8.00000000E-01  8.50000000E-01  8.50000000E-01
  8.50000000E-01  8.00000000E-01  8.50000000E-01  8.50000000E-01  8.50000000E-01
  8.00000000E-01  8.50000000E-01  8.50000000E-01  8.50000000E-01  8.00000000E-01
  8.50000000E-01  8.50000000E-01  8.50000000E-01  8.00000000E-01  8.50000000E-01
  8.50000000E-01  8.50000000E-01  8.00000000E-01  8.50000000E-01  8.50000000E-01
  8.50000000E-01  8.00000000E-01  8.50000000E-01  8.50000000E-01  8.50000000E-01
  8.00000000E-01  8.50000000E-01  8.50000000E-01  8.50000000E-01  8.00000000E-01
  8.50000000E-01  8.50000000E-01  8.50000000E-01  8.00000000E-01  8.50000000E-01
  8.50000000E-01  8.50000000E-01  8.00000000E-01  8.50000000E-01  8.50000000E-01
  8.50000000E-01  8.00000000E-01  8.50000000E-01  8.50000000E-01  8.50000000E-01
  8.00000000E-01  8.50000000E-01  8.50000000E-01  8.50000000E-01  8.00000000E-01
  8.50000000E-01  8.50000000E-01  8.50000000E-01  8.00000000E-01  8.50000000E-01
  8.50000000E-01  8.50000000E-01  8.00000000E-01  8.50000000E-01  8.50000000E-01
  8.50000000E-01  8.00000000E-01  8.50000000E-01  8.50000000E-01  8.50000000E-01
  8.00000000E-01  8.50000000E-01  8.50000000E-01  8.50000000E-01  8.00000000E-01
  8.50000000E-01  8.50000000E-01  8.50000000E-01  8.00000000E-01  8.50000000E-01
  8.50000000E-01  8.50000000E-01  8.00000000E-01  8.50000000E-01  8.50000000E-01
  8.50000000E-01  8.00000000E-01  8.50000000E-01  8.50000000E-01  8.50000000E-01
  8.00000000E-01  8.50000000E-01  8.50000000E-01  8.50000000E-01  8.00000000E-01
  8.50000000E-01  8.50000000E-01  8.50000000E-01  8.00000000E-01  8.50000000E-01
  8.50000000E-01  8.50000000E-01  8.00000000E-01  8.50000000E-01  8.50000000E-01
  8.50000000E-01  8.00000000E-01  8.50000000E-01  8.50000000E-01  8.50000000E-01
  8.00000000E-01  8.50000000E-01  8.50000000E-01  8.50000000E-01  8.00000000E-01
  8.50000000E-01  8.50000000E-01  8.50000000E-01  8.00000000E-01  8.50000000E-01
  8.50000000E-01  8.50000000E-01  8.00000000E-01  8.50000000E-01  8.50000000E-01
  8.50000000E-01  8.00000000E-01  8.50000000E-01  8.50000000E-01  8.50000000E-01
  8.00000000E-01  8.50000000E-01  8.50000000E-01  8.50000000E-01  8.00000000E-01
  8.50000000E-01  8.50000000E-01  8.50000000E-01  8.00000000E-01  8.50000000E-01
  8.50000000E-01  8.50000000E-01  8.00000000E-01  8.50000000E-01  8.50000000E-01
  8.50000000E-01  8.00000000E-01  8.50000000E-01  8.50000000E-01  8.50000000E-01
  8.00000000E-01  8.50000000E-01  8.50000000E-01  8.50000000E-01  8.00000000E-01
  8.50000000E-01  8.50000000E-01  8.50000000E-01  8.00000000E-01  8.50000000E-01
  8.50000000E-01  8.50000000E-01  8.00000000E-01  8.50000000E-01  8.50000000E-01
  8.50000000E-01  8.00000000E-01  8.50000000E-01  8.50000000E-01  8.50000000E-01
  8.00000000E-01  8.50000000E-01  8.50000000E-01  8.50000000E-01  8.00000000E-01
  8.50000000E-01  8.50000000E-01  8.50000000E-01  8.00000000E-01  8.50000000E-01
  8.50000000E-01  8.50000000E-01  8.00000000E-01  8.50000000E-01  8.50000000E-01
  8.50000000E-01  8.00000000E-01  8.50000000E-01  8.50000000E-01  8.50000000E-01
  8.00000000E-01  8.50000000E-01  8.50000000E-01  8.50000000E-01  8.00000000E-01
  8.50000000E-01  8.50000000E-01  8.50000000E-01  8.00000000E-01  8.50000000E-01
  8.50000000E-01  8.50000000E-01  8.00000000E-01  8.50000000E-01  8.50000000E-01
  8.50000000E-01  8.00000000E-01  8.50000000E-01  8.50000000E-01  8.50000000E-01
  8.00000000E-01  8.50000000E-01  8.50000000E-01  8.50000000E-01  8.00000000E-01
  8.50000000E-01  8.50000000E-01  8.50000000E-01  8.00000000E-01  8.50000000E-01
  8.50000000E-01  8.50000000E-01  8.00000000E-01  8.50000000E-01  8.50000000E-01
  8.50000000E-01  8.00000000E-01  8.50000000E-01  8.50000000E-01  8.50000000E-01
  8.00000000E-01  8.50000000E-01  8.50000000E-01  8.50000000E-01  8.00000000E-01
  8.50000000E-01  8.50000000E-01  8.50000000E-01  8.00000000E-01  8.50000000E-01
  8.50000000E-01  8.50000000E-01  8.00000000E-01  8.50000000E-01  8.50000000E-01
  8.50000000E-01  8.00000000E-01  8.50000000E-01  8.50000000E-01  8.50000000E-01
  8.00000000E-01  8.50000000E-01  8.50000000E-01  8.50000000E-01  8.00000000E-01
  8.50000000E-01  8.50000000E-01  8.50000000E-01  8.00000000E-01  8.50000000E-01
  8.50000000E-01  8.50000000E-01  8.00000000E-01  8.50000000E-01  8.50000000E-01
  8.50000000E-01  8.00000000E-01  8.50000000E-01  8.50000000E-01  8.50000000E-01
  8.00000000E-01  8.50000000E-01  8.50000000E-01  8.50000000E-01  8.00000000E-01
  8.50000000E-01  8.50000000E-01  8.50000000E-01  8.00000000E-01  8.50000000E-01
  8.50000000E-01  8.50000000E-01  8.00000000E-01  8.50000000E-01  8.50000000E-01
  8.50000000E-01  8.00000000E-01  8.50000000E-01  8.50000000E-01  8.50000000E-01
  8.00000000E-01  8.50000000E-01  8.50000000E-01  8.50000000E-01  8.00000000E-01
  8.50000000E-01  8.50000000E-01  8.50000000E-01  8.00000000E-01  8.50000000E-01
  8.50000000E-01  8.50000000E-01  8.00000000E-01  8.50000000E-01  8.50000000E-01
  8.50000000E-01  8.00000000E-01  8.50000000E-01  8.50000000E-01  8.50000000E-01
  8.00000000E-01  8.50000000E-01  8.50000000E-01  8.50000000E-01  8.00000000E-01
  8.50000000E-01  8.50000000E-01  8.50000000E-01  8.00000000E-01  8.50000000E-01
  8.50000000E-01  8.50000000E-01  8.00000000E-01  8.50000000E-01  8.50000000E-01
  8.50000000E-01  8.00000000E-01  8.50000000E-01  8.50000000E-01  8.50000000E-01
  8.00000000E-01  8.50000000E-01  8.50000000E-01  8.50000000E-01  8.00000000E-01
  8.50000000E-01  8.50000000E-01  8.50000000E-01  8.00000000E-01  8.50000000E-01
  8.50000000E-01  8.50000000E-01  8.00000000E-01  8.50000000E-01  8.50000000E-01
  8.50000000E-01  8.00000000E-01  8.50000000E-01  8.50000000E-01  8.50000000E-01
  8.00000000E-01  8.50000000E-01  8.50000000E-01  8.50000000E-01  8.00000000E-01
  8.50000000E-01  8.50000000E-01  8.50000000E-01  8.00000000E-01  8.50000000E-01
  8.50000000E-01  8.50000000E-01  8.00000000E-01  8.50000000E-01  8.50000000E-01
  8.50000000E-01  8.00000000E-01  8.50000000E-01  8.50000000E-01  8.50000000E-01
  8.00000000E-01  8.50000000E-01  8.50000000E-01  8.50000000E-01  8.00000000E-01
  8.50000000E-01  8.50000000E-01  8.50000000E-01  8.00000000E-01  8.50000000E-01
  8.50000000E-01  8.50000000E-01  8.00000000E-01  8.50000000E-01  8.50000000E-01
  8.50000000E-01  8.00000000E-01  8.50000000E-01  8.50000000E-01  8.50000000E-01
  8.00000000E-01  8.50000000E-01  8.50000000E-01  8.50000000E-01  8.00000000E-01
  8.50000000E-01  8.50000000E-01  8.50000000E-01  8.00000000E-01  8.50000000E-01
  8.50000000E-01  8.50000000E-01  8.00000000E-01  8.50000000E-01  8.50000000E-01
  8.50000000E-01  8.00000000E-01  8.50000000E-01  8.50000000E-01  8.50000000E-01
  8.00000000E-01  8.50000000E-01  8.50000000E-01  8.50000000E-01  8.00000000E-01
  8.50000000E-01  8.50000000E-01  8.50000000E-01  8.00000000E-01  8.50000000E-01
  8.50000000E-01  8.50000000E-01  8.00000000E-01  8.50000000E-01  8.50000000E-01
  8.50000000E-01  8.00000000E-01  8.50000000E-01  8.50000000E-01  8.50000000E-01
  8.00000000E-01  8.50000000E-01  8.50000000E-01  8.50000000E-01  8.00000000E-01
  8.50000000E-01  8.50000000E-01  8.50000000E-01  8.00000000E-01  8.50000000E-01
  8.50000000E-01  8.50000000E-01  8.00000000E-01  8.50000000E-01  8.50000000E-01
  8.50000000E-01  8.00000000E-01  8.50000000E-01  8.50000000E-01  8.50000000E-01
  8.00000000E-01  8.50000000E-01  8.50000000E-01  8.50000000E-01  8.00000000E-01
  8.50000000E-01  8.50000000E-01  8.50000000E-01  8.00000000E-01  8.50000000E-01
  8.50000000E-01  8.50000000E-01  8.00000000E-01  8.50000000E-01  8.50000000E-01
  8.50000000E-01  8.00000000E-01  8.50000000E-01  8.50000000E-01  8.50000000E-01
  8.00000000E-01  8.50000000E-01  8.50000000E-01  8.50000000E-01  8.00000000E-01
  8.50000000E-01  8.50000000E-01  8.50000000E-01  8.00000000E-01  8.50000000E-01
  8.50000000E-01  8.50000000E-01  8.00000000E-01  8.50000000E-01  8.50000000E-01
  8.50000000E-01  8.00000000E-01  8.50000000E-01  8.50000000E-01  8.50000000E-01
  8.00000000E-01  8.50000000E-01  8.50000000E-01  8.50000000E-01  8.00000000E-01
  8.50000000E-01  8.50000000E-01  8.50000000E-01  8.00000000E-01  8.50000000E-01
  8.50000000E-01  8.50000000E-01  8.00000000E-01  8.50000000E-01  8.50000000E-01
  8.50000000E-01  8.00000000E-01  8.50000000E-01  8.50000000E-01  8.50000000E-01
  8.00000000E-01  8.50000000E-01  8.50000000E-01  8.50000000E-01  8.00000000E-01
  8.50000000E-01  8.50000000E-01  8.50000000E-01  8.00000000E-01  8.50000000E-01
  8.50000000E-01  8.50000000E-01  8.00000000E-01  8.50000000E-01  8.50000000E-01
  8.50000000E-01  8.00000000E-01  8.50000000E-01  8.50000000E-01  8.50000000E-01
  8.00000000E-01  8.50000000E-01  8.50000000E-01  8.50000000E-01  8.00000000E-01
  8.50000000E-01  8.50000000E-01  8.50000000E-01  8.00000000E-01  8.50000000E-01
  8.50000000E-01  8.50000000E-01  8.00000000E-01  8.50000000E-01  8.50000000E-01
  8.50000000E-01  8.00000000E-01  8.50000000E-01  8.50000000E-01  8.50000000E-01
  8.00000000E-01  8.50000000E-01  8.50000000E-01  8.50000000E-01  8.00000000E-01
  8.50000000E-01  8.50000000E-01  8.50000000E-01  8.00000000E-01  8.50000000E-01
  8.50000000E-01  8.50000000E-01  8.00000000E-01  8.50000000E-01  8.50000000E-01
  8.50000000E-01  8.00000000E-01  8.50000000E-01  8.50000000E-01  8.50000000E-01
  8.00000000E-01  8.50000000E-01  8.50000000E-01  8.50000000E-01  8.00000000E-01
  8.50000000E-01  8.50000000E-01  8.50000000E-01  8.00000000E-01  8.50000000E-01
  8.50000000E-01  8.50000000E-01  8.00000000E-01  8.50000000E-01  8.50000000E-01
  8.50000000E-01  8.00000000E-01  8.50000000E-01  8.50000000E-01  8.50000000E-01
  8.00000000E-01  8.50000000E-01  8.50000000E-01  8.50000000E-01  8.00000000E-01
  8.50000000E-01  8.50000000E-01  8.50000000E-01  8.00000000E-01  8.50000000E-01
  8.50000000E-01  8.50000000E-01  8.00000000E-01  8.50000000E-01  8.50000000E-01
  8.50000000E-01  8.00000000E-01  8.50000000E-01  8.50000000E-01  8.50000000E-01
  8.00000000E-01  8.50000000E-01  8.50000000E-01  8.50000000E-01  8.00000000E-01
  8.50000000E-01  8.50000000E-01  8.50000000E-01  8.00000000E-01  8.50000000E-01
  8.50000000E-01  8.50000000E-01  8.00000000E-01  8.50000000E-01  8.50000000E-01
  8.50000000E-01  8.00000000E-01  8.50000000E-01  8.50000000E-01  8.50000000E-01
  8.00000000E-01  8.50000000E-01  8.50000000E-01  8.50000000E-01  8.00000000E-01
  8.50000000E-01  8.50000000E-01  8.50000000E-01  8.00000000E-01  8.50000000E-01
  8.50000000E-01  8.50000000E-01  8.00000000E-01  8.50000000E-01  8.50000000E-01
  8.50000000E-01  8.00000000E-01  8.50000000E-01  8.50000000E-01  8.50000000E-01
  8.00000000E-01  8.50000000E-01  8.50000000E-01  8.50000000E-01  8.00000000E-01
  8.50000000E-01  8.50000000E-01  8.50000000E-01  8.00000000E-01  8.50000000E-01
  8.50000000E-01  8.50000000E-01  8.00000000E-01  8.50000000E-01  8.50000000E-01
  8.50000000E-01  8.00000000E-01  8.50000000E-01  8.50000000E-01  8.50000000E-01
  8.00000000E-01  8.50000000E-01  8.50000000E-01  8.50000000E-01  8.00000000E-01
  8.50000000E-01  8.50000000E-01  8.50000000E-01  8.00000000E-01  8.50000000E-01
  8.50000000E-01  8.50000000E-01  8.00000000E-01  8.50000000E-01  8.50000000E-01
  8.50000000E-01  8.00000000E-01  8.50000000E-01  8.50000000E-01  8.50000000E-01
  8.00000000E-01  8.50000000E-01  8.50000000E-01  8.50000000E-01  8.00000000E-01
  8.50000000E-01  8.50000000E-01  8.50000000E-01  8.00000000E-01  8.50000000E-01
  8.50000000E-01  8.50000000E-01  8.00000000E-01  8.50000000E-01  8.50000000E-01
  8.50000000E-01  8.00000000E-01  8.50000000E-01  8.50000000E-01  8.50000000E-01
  8.00000000E-01  8.50000000E-01  8.50000000E-01  8.50000000E-01  8.00000000E-01
  8.50000000E-01  8.50000000E-01  8.50000000E-01  8.00000000E-01  8.50000000E-01
  8.50000000E-01  8.50000000E-01  8.00000000E-01  8.50000000E-01  8.50000000E-01
  8.50000000E-01  8.00000000E-01  8.50000000E-01  8.50000000E-01  8.50000000E-01
  8.00000000E-01  8.50000000E-01  8.50000000E-01  8.50000000E-01  8.00000000E-01
  8.50000000E-01  8.50000000E-01  8.50000000E-01  8.00000000E-01  8.50000000E-01
  8.50000000E-01  8.50000000E-01  8.00000000E-01  8.50000000E-01  8.50000000E-01
  8.50000000E-01  8.00000000E-01  8.50000000E-01  8.50000000E-01  8.50000000E-01
  8.00000000E-01  8.50000000E-01  8.50000000E-01  8.50000000E-01  8.00000000E-01
  8.50000000E-01  8.50000000E-01  8.50000000E-01  8.00000000E-01  8.50000000E-01
  8.50000000E-01  8.50000000E-01  8.00000000E-01  8.50000000E-01  8.50000000E-01
  8.50000000E-01  8.00000000E-01  8.50000000E-01  8.50000000E-01  8.50000000E-01
  8.00000000E-01  8.50000000E-01  8.50000000E-01  8.50000000E-01  8.00000000E-01
  8.50000000E-01  8.50000000E-01  8.50000000E-01  8.00000000E-01  8.50000000E-01
  8.50000000E-01  8.50000000E-01  8.00000000E-01  8.50000000E-01  8.50000000E-01
  8.50000000E-01  8.00000000E-01  8.50000000E-01  8.50000000E-01  8.50000000E-01
  8.00000000E-01  8.50000000E-01  8.50000000E-01  8.50000000E-01  8.00000000E-01
  8.50000000E-01  8.50000000E-01  8.50000000E-01  8.00000000E-01  8.50000000E-01
  8.50000000E-01  8.50000000E-01  8.00000000E-01  8.50000000E-01  8.50000000E-01
  8.50000000E-01  8.00000000E-01  8.50000000E-01  8.50000000E-01  8.50000000E-01
  8.00000000E-01  8.50000000E-01  8.50000000E-01  8.50000000E-01  8.00000000E-01
  8.50000000E-01  8.50000000E-01  8.50000000E-01  8.00000000E-01  8.50000000E-01
  8.50000000E-01  8.50000000E-01  8.00000000E-01  8.50000000E-01  8.50000000E-01
  8.50000000E-01  8.00000000E-01  8.50000000E-01  8.50000000E-01  8.50000000E-01
  8.00000000E-01  8.50000000E-01  8.50000000E-01  8.50000000E-01  8.00000000E-01
  8.50000000E-01  8.50000000E-01  8.50000000E-01  8.00000000E-01  8.50000000E-01
  8.50000000E-01  8.50000000E-01  8.00000000E-01  8.50000000E-01  8.50000000E-01
  8.50000000E-01  8.00000000E-01  8.50000000E-01  8.50000000E-01  8.50000000E-01
  8.00000000E-01  8.50000000E-01  8.50000000E-01  8.50000000E-01  8.00000000E-01
  8.50000000E-01  8.50000000E-01  8.50000000E-01  8.00000000E-01  8.50000000E-01
  8.50000000E-01  8.50000000E-01  8.00000000E-01  8.50000000E-01  8.50000000E-01
  8.50000000E-01  8.00000000E-01  8.50000000E-01  8.50000000E-01  8.50000000E-01
  8.00000000E-01  8.50000000E-01  8.50000000E-01  8.50000000E-01  8.00000000E-01
  8.50000000E-01  8.50000000E-01  8.50000000E-01  8.00000000E-01  8.50000000E-01
  8.50000000E-01  8.50000000E-01  8.00000000E-01  8.50000000E-01  8.50000000E-01
  8.50000000E-01  8.00000000E-01  8.50000000E-01  8.50000000E-01  8.50000000E-01
  8.00000000E-01  8.50000000E-01  8.50000000E-01  8.50000000E-01  8.00000000E-01
  8.50000000E-01  8.50000000E-01  8.50000000E-01  8.00000000E-01  8.50000000E-01
  8.50000000E-01  8.50000000E-01  8.00000000E-01  8.50000000E-01  8.50000000E-01
  8.50000000E-01  8.00000000E-01  8.50000000E-01  8.50000000E-01  8.50000000E-01
  8.00000000E-01  8.50000000E-01  8.50000000E-01  8.50000000E-01  8.00000000E-01
  8.50000000E-01  8.50000000E-01  8.50000000E-01  8.00000000E-01  8.50000000E-01
  8.50000000E-01  8.50000000E-01  8.00000000E-01  8.50000000E-01  8.50000000E-01
  8.50000000E-01  8.00000000E-01  8.50000000E-01  8.50000000E-01  8.50000000E-01
  8.00000000E-01  8.50000000E-01  8.50000000E-01  8.50000000E-01  8.00000000E-01
  8.50000000E-01  8.50000000E-01  8.50000000E-01  8.00000000E-01  8.50000000E-01
  8.50000000E-01  8.50000000E-01  8.00000000E-01  8.50000000E-01  8.50000000E-01
  8.50000000E-01  8.00000000E-01  8.50000000E-01  8.50000000E-01  8.50000000E-01
  8.00000000E-01  8.50000000E-01  8.50000000E-01  8.50000000E-01  8.00000000E-01
  8.50000000E-01  8.50000000E-01  8.50000000E-01  8.00000000E-01  8.50000000E-01
  8.50000000E-01  8.50000000E-01  8.00000000E-01  8.50000000E-01  8.50000000E-01
  8.50000000E-01  8.00000000E-01  8.50000000E-01  8.50000000E-01  8.50000000E-01
  8.00000000E-01  8.50000000E-01  8.50000000E-01  8.50000000E-01  8.00000000E-01
  8.50000000E-01  8.50000000E-01  8.50000000E-01  8.00000000E-01  8.50000000E-01
  8.50000000E-01  8.50000000E-01  8.00000000E-01  8.50000000E-01  8.50000000E-01
  8.50000000E-01  8.00000000E-01  8.50000000E-01  8.50000000E-01  8.50000000E-01
  8.00000000E-01  8.50000000E-01  8.50000000E-01  8.50000000E-01  8.00000000E-01
  8.50000000E-01  8.50000000E-01  8.50000000E-01  8.00000000E-01  8.50000000E-01
  8.50000000E-01  8.50000000E-01  8.00000000E-01  8.50000000E-01  8.50000000E-01
  8.50000000E-01  8.00000000E-01  8.50000000E-01  8.50000000E-01  8.50000000E-01
  8.00000000E-01  8.50000000E-01  8.50000000E-01  8.50000000E-01  8.00000000E-01
  8.50000000E-01  8.50000000E-01  8.50000000E-01  8.00000000E-01  8.50000000E-01
  8.50000000E-01  8.50000000E-01  8.00000000E-01  8.50000000E-01  8.50000000E-01
  8.50000000E-01  8.00000000E-01  8.50000000E-01  8.50000000E-01  8.50000000E-01
  8.00000000E-01  8.50000000E-01  8.50000000E-01  8.50000000E-01  8.00000000E-01
  8.50000000E-01  8.50000000E-01  8.50000000E-01  8.00000000E-01  8.50000000E-01
  8.50000000E-01  8.50000000E-01  8.00000000E-01  8.50000000E-01  8.50000000E-01
  8.50000000E-01  8.00000000E-01  8.50000000E-01  8.50000000E-01  8.50000000E-01
  8.00000000E-01  8.50000000E-01  8.50000000E-01  8.50000000E-01  8.00000000E-01
  8.50000000E-01  8.50000000E-01  8.50000000E-01  8.00000000E-01  8.50000000E-01
  8.50000000E-01  8.50000000E-01  8.00000000E-01  8.50000000E-01  8.50000000E-01
  8.50000000E-01  8.00000000E-01  8.50000000E-01  8.50000000E-01  8.50000000E-01
  8.00000000E-01  8.50000000E-01  8.50000000E-01  8.50000000E-01  8.00000000E-01
  8.50000000E-01  8.50000000E-01  8.50000000E-01  8.00000000E-01  8.50000000E-01
  8.50000000E-01  8.50000000E-01  8.00000000E-01  8.50000000E-01  8.50000000E-01
  8.50000000E-01  8.00000000E-01  8.50000000E-01  8.50000000E-01  8.50000000E-01
  8.00000000E-01  8.50000000E-01  8.50000000E-01  8.50000000E-01  8.00000000E-01
  8.50000000E-01  8.50000000E-01  8.50000000E-01  8.00000000E-01  8.50000000E-01
  8.50000000E-01  8.50000000E-01  8.00000000E-01  8.50000000E-01  8.50000000E-01
  8.50000000E-01  8.00000000E-01  8.50000000E-01  8.50000000E-01  8.50000000E-01
  8.00000000E-01  8.50000000E-01  8.50000000E-01  8.50000000E-01  8.00000000E-01
  8.50000000E-01  8.50000000E-01  8.50000000E-01  8.00000000E-01  8.50000000E-01
  8.50000000E-01  8.50000000E-01  8.00000000E-01  8.50000000E-01  8.50000000E-01
  8.50000000E-01  8.00000000E-01  8.50000000E-01  8.50000000E-01  8.50000000E-01
  8.00000000E-01  8.50000000E-01  8.50000000E-01  8.50000000E-01  8.00000000E-01
  8.50000000E-01  8.50000000E-01  8.50000000E-01  8.00000000E-01  8.50000000E-01
  8.50000000E-01  8.50000000E-01  8.00000000E-01  8.50000000E-01  8.50000000E-01
  8.50000000E-01  8.00000000E-01  8.50000000E-01  8.50000000E-01  8.50000000E-01
  8.00000000E-01  8.50000000E-01  8.50000000E-01  8.50000000E-01  8.00000000E-01
  8.50000000E-01  8.50000000E-01  8.50000000E-01  8.00000000E-01  8.50000000E-01
  8.50000000E-01  8.50000000E-01  8.00000000E-01  8.50000000E-01  8.50000000E-01
  8.50000000E-01  8.00000000E-01  8.50000000E-01  8.50000000E-01  8.50000000E-01
  8.00000000E-01  8.50000000E-01  8.50000000E-01  8.50000000E-01  8.00000000E-01
  8.50000000E-01  8.50000000E-01  8.50000000E-01  8.00000000E-01  8.50000000E-01
  8.50000000E-01  8.50000000E-01  8.00000000E-01  8.50000000E-01  8.50000000E-01
  8.50000000E-01  8.00000000E-01  8.50000000E-01  8.50000000E-01  8.50000000E-01
  8.00000000E-01  8.50000000E-01  8.50000000E-01  8.50000000E-01  8.00000000E-01
  8.50000000E-01  8.50000000E-01  8.50000000E-01  8.00000000E-01  8.50000000E-01
  8.50000000E-01  8.50000000E-01  8.00000000E-01  8.50000000E-01  8.50000000E-01
  8.50000000E-01  8.00000000E-01  8.50000000E-01  8.50000000E-01  8.50000000E-01
  8.00000000E-01  8.50000000E-01  8.50000000E-01  8.50000000E-01  8.00000000E-01
  8.50000000E-01  8.50000000E-01  8.50000000E-01  8.00000000E-01  8.50000000E-01
  8.50000000E-01  8.50000000E-01  8.00000000E-01  8.50000000E-01  8.50000000E-01
  8.50000000E-01  8.00000000E-01  8.50000000E-01  8.50000000E-01  8.50000000E-01
  8.00000000E-01  8.50000000E-01  8.50000000E-01  8.50000000E-01  8.00000000E-01
  8.50000000E-01  8.50000000E-01  8.50000000E-01  8.00000000E-01  8.50000000E-01
  8.50000000E-01  8.50000000E-01  8.00000000E-01  8.50000000E-01  8.50000000E-01
  8.50000000E-01  8.00000000E-01  8.50000000E-01  8.50000000E-01  8.50000000E-01
  8.00000000E-01  8.50000000E-01  8.50000000E-01  8.50000000E-01  8.00000000E-01
  8.50000000E-01  8.50000000E-01  8.50000000E-01  8.00000000E-01  8.50000000E-01
  8.50000000E-01  8.50000000E-01  8.00000000E-01  8.50000000E-01  8.50000000E-01
  8.50000000E-01  8.00000000E-01  8.50000000E-01  8.50000000E-01  8.50000000E-01
  8.00000000E-01  8.50000000E-01  8.50000000E-01  8.50000000E-01  8.00000000E-01
  8.50000000E-01  8.50000000E-01  8.50000000E-01  8.00000000E-01  8.50000000E-01
  8.50000000E-01  8.50000000E-01  8.00000000E-01  8.50000000E-01  8.50000000E-01
  8.50000000E-01  8.00000000E-01  8.50000000E-01  8.50000000E-01  8.50000000E-01
  8.00000000E-01  8.50000000E-01  8.50000000E-01  8.50000000E-01  8.00000000E-01
  8.50000000E-01  8.50000000E-01  8.50000000E-01  8.00000000E-01  8.50000000E-01
  8.50000000E-01  8.50000000E-01  8.00000000E-01  8.50000000E-01  8.50000000E-01
  8.50000000E-01  8.00000000E-01  8.50000000E-01  8.50000000E-01  8.50000000E-01
  8.00000000E-01  8.50000000E-01  8.50000000E-01  8.50000000E-01  8.00000000E-01
  8.50000000E-01  8.50000000E-01  8.50000000E-01  8.00000000E-01  8.50000000E-01
  8.50000000E-01  8.50000000E-01  8.00000000E-01  8.50000000E-01  8.50000000E-01
  8.50000000E-01  8.00000000E-01  8.50000000E-01  8.50000000E-01  8.50000000E-01
  8.00000000E-01  8.50000000E-01  8.50000000E-01  8.50000000E-01  8.00000000E-01
  8.50000000E-01  8.50000000E-01  8.50000000E-01  8.00000000E-01  8.50000000E-01
  8.50000000E-01  8.50000000E-01  8.00000000E-01  8.50000000E-01  8.50000000E-01
  8.50000000E-01  8.00000000E-01  8.50000000E-01  8.50000000E-01  8.50000000E-01
  8.00000000E-01  8.50000000E-01  8.50000000E-01  8.50000000E-01  8.00000000E-01
  8.50000000E-01  8.50000000E-01  8.50000000E-01  8.00000000E-01  8.50000000E-01
  8.50000000E-01  8.50000000E-01  8.00000000E-01  8.50000000E-01  8.50000000E-01
  8.50000000E-01  8.00000000E-01  8.50000000E-01  8.50000000E-01  8.50000000E-01
  8.00000000E-01  8.50000000E-01  8.50000000E-01  8.50000000E-01  8.00000000E-01
  8.50000000E-01  8.50000000E-01  8.50000000E-01  8.00000000E-01  8.50000000E-01
  8.50000000E-01  8.50000000E-01  8.00000000E-01  8.50000000E-01  8.50000000E-01
  8.50000000E-01  8.00000000E-01  8.50000000E-01  8.50000000E-01  8.50000000E-01
  8.00000000E-01  8.50000000E-01  8.50000000E-01  8.50000000E-01  8.00000000E-01
  8.50000000E-01  8.50000000E-01  8.50000000E-01  8.00000000E-01  8.50000000E-01
  8.50000000E-01  8.50000000E-01  8.00000000E-01  8.50000000E-01  8.50000000E-01
  8.50000000E-01  8.00000000E-01  8.50000000E-01  8.50000000E-01  8.50000000E-01
  8.00000000E-01  8.50000000E-01  8.50000000E-01  8.50000000E-01  8.00000000E-01
  8.50000000E-01  8.50000000E-01  8.50000000E-01  8.00000000E-01  8.50000000E-01
  8.50000000E-01  8.50000000E-01  8.00000000E-01  8.50000000E-01  8.50000000E-01
  8.50000000E-01  8.00000000E-01  8.50000000E-01  8.50000000E-01  8.50000000E-01
  8.00000000E-01  8.50000000E-01  8.50000000E-01  8.50000000E-01  8.00000000E-01
  8.50000000E-01  8.50000000E-01  8.50000000E-01  8.00000000E-01  8.50000000E-01
  8.50000000E-01  8.50000000E-01  8.00000000E-01  8.50000000E-01  8.50000000E-01
  8.50000000E-01  8.00000000E-01  8.50000000E-01  8.50000000E-01  8.50000000E-01
  8.00000000E-01  8.50000000E-01  8.50000000E-01  8.50000000E-01  8.00000000E-01
  8.50000000E-01  8.50000000E-01  8.50000000E-01  8.00000000E-01  8.50000000E-01
  8.50000000E-01  8.50000000E-01  8.00000000E-01  8.50000000E-01  8.50000000E-01
  8.50000000E-01  8.00000000E-01  8.50000000E-01  8.50000000E-01  8.50000000E-01
  8.00000000E-01  8.50000000E-01  8.50000000E-01  8.50000000E-01  8.00000000E-01
  8.50000000E-01  8.50000000E-01  8.50000000E-01  8.00000000E-01  8.50000000E-01
  8.50000000E-01  8.50000000E-01  8.00000000E-01  8.50000000E-01  8.50000000E-01
  8.50000000E-01  8.00000000E-01  8.50000000E-01  8.50000000E-01  8.50000000E-01
  8.00000000E-01  8.50000000E-01  8.50000000E-01  8.50000000E-01  8.00000000E-01
  8.50000000E-01  8.50000000E-01  8.50000000E-01  8.00000000E-01  8.50000000E-01
  8.50000000E-01  8.50000000E-01  8.00000000E-01  8.50000000E-01  8.50000000E-01
  8.50000000E-01  8.00000000E-01  8.50000000E-01  8.50000000E-01  8.50000000E-01
  8.00000000E-01  8.50000000E-01  8.50000000E-01  8.50000000E-01  8.00000000E-01
  8.50000000E-01  8.50000000E-01  8.50000000E-01  8.00000000E-01  8.50000000E-01
  8.50000000E-01  8.50000000E-01  8.00000000E-01  8.50000000E-01  8.50000000E-01
  8.50000000E-01  8.00000000E-01  8.50000000E-01  8.50000000E-01  8.50000000E-01
  8.00000000E-01  8.50000000E-01  8.50000000E-01  8.50000000E-01  8.00000000E-01
  8.50000000E-01  8.50000000E-01  8.50000000E-01  8.00000000E-01  8.50000000E-01
  8.50000000E-01  8.50000000E-01  8.00000000E-01  8.50000000E-01  8.50000000E-01
  8.50000000E-01  8.00000000E-01  8.50000000E-01  8.50000000E-01  8.50000000E-01
  8.00000000E-01  8.50000000E-01  8.50000000E-01  8.50000000E-01  8.00000000E-01
  8.50000000E-01  8.50000000E-01  8.50000000E-01  8.00000000E-01  8.50000000E-01
  8.50000000E-01  8.50000000E-01  8.00000000E-01  8.50000000E-01  8.50000000E-01
  8.50000000E-01  8.00000000E-01  8.50000000E-01  8.50000000E-01  8.50000000E-01
  8.00000000E-01  8.50000000E-01  8.50000000E-01  8.50000000E-01  8.00000000E-01
  8.50000000E-01  8.50000000E-01  8.50000000E-01  8.00000000E-01  8.50000000E-01
  8.50000000E-01  8.50000000E-01  8.00000000E-01  8.50000000E-01  8.50000000E-01
  8.50000000E-01  8.00000000E-01  8.50000000E-01  8.50000000E-01  8.50000000E-01
  8.00000000E-01  8.50000000E-01  8.50000000E-01  8.50000000E-01  8.00000000E-01
  8.50000000E-01  8.50000000E-01  8.50000000E-01  8.00000000E-01  8.50000000E-01
  8.50000000E-01  8.50000000E-01  8.00000000E-01  8.50000000E-01  8.50000000E-01
  8.50000000E-01  8.00000000E-01  8.50000000E-01  8.50000000E-01  8.50000000E-01
  8.00000000E-01  8.50000000E-01  8.50000000E-01  8.50000000E-01  8.00000000E-01
  8.50000000E-01  8.50000000E-01  8.50000000E-01  8.00000000E-01  8.50000000E-01
  8.50000000E-01  8.50000000E-01  8.00000000E-01  8.50000000E-01  8.50000000E-01
  8.50000000E-01  8.00000000E-01  8.50000000E-01  8.50000000E-01  8.50000000E-01
  8.00000000E-01  8.50000000E-01  8.50000000E-01  8.50000000E-01  8.00000000E-01
  8.50000000E-01  8.50000000E-01  8.50000000E-01  8.00000000E-01  8.50000000E-01
  8.50000000E-01  8.50000000E-01  8.00000000E-01  8.50000000E-01  8.50000000E-01
  8.50000000E-01  8.00000000E-01  8.50000000E-01  8.50000000E-01  8.50000000E-01
  8.00000000E-01  8.50000000E-01  8.50000000E-01  8.50000000E-01  8.00000000E-01
  8.50000000E-01  8.50000000E-01  8.50000000E-01  8.00000000E-01  8.50000000E-01
  8.50000000E-01  8.50000000E-01  8.00000000E-01  8.50000000E-01  8.50000000E-01
  8.50000000E-01  8.00000000E-01  8.50000000E-01  8.50000000E-01  8.50000000E-01
  8.00000000E-01  8.50000000E-01  8.50000000E-01  8.50000000E-01  8.00000000E-01
  8.50000000E-01  8.50000000E-01  8.50000000E-01  8.00000000E-01  8.50000000E-01
  8.50000000E-01  8.50000000E-01  8.00000000E-01  8.50000000E-01  8.50000000E-01
  8.50000000E-01  8.00000000E-01  8.50000000E-01  8.50000000E-01  8.50000000E-01
  8.00000000E-01  8.50000000E-01  8.50000000E-01  8.50000000E-01  8.00000000E-01
  8.50000000E-01  8.50000000E-01  8.50000000E-01  8.00000000E-01  8.50000000E-01
  8.50000000E-01  8.50000000E-01  8.00000000E-01  8.50000000E-01  8.50000000E-01
  8.50000000E-01  8.00000000E-01  8.50000000E-01  8.50000000E-01  8.50000000E-01
  8.00000000E-01  8.50000000E-01  8.50000000E-01  8.50000000E-01  8.00000000E-01
  8.50000000E-01  8.50000000E-01  8.50000000E-01  8.00000000E-01  8.50000000E-01
  8.50000000E-01  8.50000000E-01  8.00000000E-01  8.50000000E-01  8.50000000E-01
  8.50000000E-01  8.00000000E-01  8.50000000E-01  8.50000000E-01  8.50000000E-01
  8.00000000E-01  8.50000000E-01  8.50000000E-01  8.50000000E-01  8.00000000E-01
  8.50000000E-01  8.50000000E-01  8.50000000E-01  8.00000000E-01  8.50000000E-01
  8.50000000E-01  8.50000000E-01  8.00000000E-01  8.50000000E-01  8.50000000E-01
  8.50000000E-01  8.00000000E-01  8.50000000E-01  8.50000000E-01  8.50000000E-01
  8.00000000E-01  8.50000000E-01  8.50000000E-01  8.50000000E-01  8.00000000E-01
  8.50000000E-01  8.50000000E-01  8.50000000E-01  8.00000000E-01  8.50000000E-01
  8.50000000E-01  8.50000000E-01  8.00000000E-01  8.50000000E-01  8.50000000E-01
  8.50000000E-01  8.00000000E-01  8.50000000E-01  8.50000000E-01  8.50000000E-01
  8.00000000E-01  8.50000000E-01  8.50000000E-01  8.50000000E-01  8.00000000E-01
  8.50000000E-01  8.50000000E-01  8.50000000E-01  8.00000000E-01  8.50000000E-01
  8.50000000E-01  8.50000000E-01  8.00000000E-01  8.50000000E-01  8.50000000E-01
  8.50000000E-01  8.00000000E-01  8.50000000E-01  8.50000000E-01  8.50000000E-01
  8.00000000E-01  8.50000000E-01  8.50000000E-01  8.50000000E-01  8.00000000E-01
  8.50000000E-01  8.50000000E-01  8.50000000E-01  8.00000000E-01  8.50000000E-01
  8.50000000E-01  8.50000000E-01  8.00000000E-01  8.50000000E-01  8.50000000E-01
  8.50000000E-01  8.00000000E-01  8.50000000E-01  8.50000000E-01  8.50000000E-01
  8.00000000E-01  8.50000000E-01  8.50000000E-01  8.50000000E-01  8.00000000E-01
  8.50000000E-01  8.50000000E-01  8.50000000E-01  8.00000000E-01  8.50000000E-01
  8.50000000E-01  8.50000000E-01  8.00000000E-01  8.50000000E-01  8.50000000E-01
  8.50000000E-01  8.00000000E-01  8.50000000E-01  8.50000000E-01  8.50000000E-01
  8.00000000E-01  8.50000000E-01  8.50000000E-01  8.50000000E-01  8.00000000E-01
  8.50000000E-01  8.50000000E-01  8.50000000E-01  8.00000000E-01  8.50000000E-01
  8.50000000E-01  8.50000000E-01  8.00000000E-01  8.50000000E-01  8.50000000E-01
  8.50000000E-01  8.00000000E-01  8.50000000E-01  8.50000000E-01  8.50000000E-01
  8.00000000E-01  8.50000000E-01  8.50000000E-01  8.50000000E-01  8.00000000E-01
  8.50000000E-01  8.50000000E-01  8.50000000E-01  8.00000000E-01  8.50000000E-01
  8.50000000E-01  8.50000000E-01  8.00000000E-01  8.50000000E-01  8.50000000E-01
  8.50000000E-01  8.00000000E-01  8.50000000E-01  8.50000000E-01  8.50000000E-01
  8.00000000E-01  8.50000000E-01  8.50000000E-01  8.50000000E-01  8.00000000E-01
  8.50000000E-01  8.50000000E-01  8.50000000E-01  8.00000000E-01  8.50000000E-01
  8.50000000E-01  8.50000000E-01  8.00000000E-01  8.50000000E-01  8.50000000E-01
  8.50000000E-01  8.00000000E-01  8.50000000E-01  8.50000000E-01  8.50000000E-01
  8.00000000E-01  8.50000000E-01  8.50000000E-01  8.50000000E-01  8.00000000E-01
  8.50000000E-01  8.50000000E-01  8.50000000E-01  8.00000000E-01  8.50000000E-01
  8.50000000E-01  8.50000000E-01  8.00000000E-01  8.50000000E-01  8.50000000E-01
  8.50000000E-01  8.00000000E-01  8.50000000E-01  8.50000000E-01  8.50000000E-01
  8.00000000E-01  8.50000000E-01  8.50000000E-01  8.50000000E-01  8.00000000E-01
  8.50000000E-01  8.50000000E-01  8.50000000E-01  8.00000000E-01  8.50000000E-01
  8.50000000E-01  8.50000000E-01  8.00000000E-01  8.50000000E-01  8.50000000E-01
  8.50000000E-01  8.00000000E-01  8.50000000E-01  8.50000000E-01  8.50000000E-01
  8.00000000E-01  8.50000000E-01  8.50000000E-01  8.50000000E-01  8.00000000E-01
  8.50000000E-01  8.50000000E-01  8.50000000E-01  8.00000000E-01  8.50000000E-01
  8.50000000E-01  8.50000000E-01  8.00000000E-01  8.50000000E-01  8.50000000E-01
  8.50000000E-01  8.00000000E-01  8.50000000E-01  8.50000000E-01  8.50000000E-01
  8.00000000E-01  8.50000000E-01  8.50000000E-01  8.50000000E-01  8.00000000E-01
  8.50000000E-01  8.50000000E-01  8.50000000E-01  8.00000000E-01  8.50000000E-01
  8.50000000E-01  8.50000000E-01  8.00000000E-01  8.50000000E-01  8.50000000E-01
  8.50000000E-01  8.00000000E-01  8.50000000E-01  8.50000000E-01  8.50000000E-01
  8.00000000E-01  8.50000000E-01  8.50000000E-01  8.50000000E-01  8.00000000E-01
  8.50000000E-01  8.50000000E-01  8.50000000E-01  8.00000000E-01  8.50000000E-01
  8.50000000E-01  8.50000000E-01  8.00000000E-01  8.50000000E-01  8.50000000E-01
  8.50000000E-01  8.00000000E-01  8.50000000E-01  8.50000000E-01  8.50000000E-01
  8.00000000E-01  8.50000000E-01  8.50000000E-01  8.50000000E-01  8.00000000E-01
  8.50000000E-01  8.50000000E-01  8.50000000E-01  8.00000000E-01  8.50000000E-01
  8.50000000E-01  8.50000000E-01  8.00000000E-01  8.50000000E-01  8.50000000E-01
  8.50000000E-01  8.00000000E-01  8.50000000E-01  8.50000000E-01  8.50000000E-01
  8.00000000E-01  8.50000000E-01  8.50000000E-01  8.50000000E-01  8.00000000E-01
  8.50000000E-01  8.50000000E-01  8.50000000E-01  8.00000000E-01  8.50000000E-01
  8.50000000E-01  8.50000000E-01  8.00000000E-01  8.50000000E-01  8.50000000E-01
  8.50000000E-01  8.00000000E-01  8.50000000E-01  8.50000000E-01  8.50000000E-01
  8.00000000E-01  8.50000000E-01  8.50000000E-01  8.50000000E-01  8.00000000E-01
  8.50000000E-01  8.50000000E-01  8.50000000E-01  8.00000000E-01  8.50000000E-01
  8.50000000E-01  8.50000000E-01  8.00000000E-01  8.50000000E-01  8.50000000E-01
  8.50000000E-01  8.00000000E-01  8.50000000E-01  8.50000000E-01  8.50000000E-01
  8.00000000E-01  8.50000000E-01  8.50000000E-01  8.50000000E-01  8.00000000E-01
  8.50000000E-01  8.50000000E-01  8.50000000E-01  8.00000000E-01  8.50000000E-01
  8.50000000E-01  8.50000000E-01  8.00000000E-01  8.50000000E-01  8.50000000E-01
  8.50000000E-01  8.00000000E-01  8.50000000E-01  8.50000000E-01  8.50000000E-01
  8.00000000E-01  8.50000000E-01  8.50000000E-01  8.50000000E-01  8.00000000E-01
  8.50000000E-01  8.50000000E-01  8.50000000E-01  8.00000000E-01  8.50000000E-01
  8.50000000E-01  8.50000000E-01  8.00000000E-01  8.50000000E-01  8.50000000E-01
  8.50000000E-01  8.00000000E-01  8.50000000E-01  8.50000000E-01  8.50000000E-01
  8.00000000E-01  8.50000000E-01  8.50000000E-01  8.50000000E-01  8.00000000E-01
  8.50000000E-01  8.50000000E-01  8.50000000E-01  8.00000000E-01  8.50000000E-01
  8.50000000E-01  8.50000000E-01  8.00000000E-01  8.50000000E-01  8.50000000E-01
  8.50000000E-01  8.00000000E-01  8.50000000E-01  8.50000000E-01  8.50000000E-01
  8.00000000E-01  8.50000000E-01  8.50000000E-01  8.50000000E-01  8.00000000E-01
  8.50000000E-01  8.50000000E-01  8.50000000E-01  8.00000000E-01  8.50000000E-01
  8.50000000E-01  8.50000000E-01  8.00000000E-01  8.50000000E-01  8.50000000E-01
  8.50000000E-01  8.00000000E-01  8.50000000E-01  8.50000000E-01  8.50000000E-01
  8.00000000E-01  8.50000000E-01  8.50000000E-01  8.50000000E-01  8.00000000E-01
  8.50000000E-01  8.50000000E-01  8.50000000E-01  8.00000000E-01  8.50000000E-01
  8.50000000E-01  8.50000000E-01  8.00000000E-01  8.50000000E-01  8.50000000E-01
  8.50000000E-01  8.00000000E-01  8.50000000E-01  8.50000000E-01  8.50000000E-01
  8.00000000E-01  8.50000000E-01  8.50000000E-01  8.50000000E-01  8.00000000E-01
  8.50000000E-01  8.50000000E-01  8.50000000E-01  8.00000000E-01  8.50000000E-01
  8.50000000E-01  8.50000000E-01  8.00000000E-01  8.50000000E-01  8.50000000E-01
  8.50000000E-01  8.00000000E-01  8.50000000E-01  8.50000000E-01  8.50000000E-01
  8.00000000E-01  8.50000000E-01  8.50000000E-01  8.50000000E-01  8.00000000E-01
  8.50000000E-01  8.50000000E-01  8.50000000E-01  8.00000000E-01  8.50000000E-01
  8.50000000E-01  8.50000000E-01  8.00000000E-01  8.50000000E-01  8.50000000E-01
  8.50000000E-01  8.00000000E-01  8.50000000E-01  8.50000000E-01  8.50000000E-01
  8.00000000E-01  8.50000000E-01  8.50000000E-01  8.50000000E-01  8.00000000E-01
  8.50000000E-01  8.50000000E-01  8.50000000E-01  8.00000000E-01  8.50000000E-01
  8.50000000E-01  8.50000000E-01  8.00000000E-01  8.50000000E-01  8.50000000E-01
  8.50000000E-01  8.00000000E-01  8.50000000E-01  8.50000000E-01  8.50000000E-01
  8.00000000E-01  8.50000000E-01  8.50000000E-01  8.50000000E-01  8.00000000E-01
  8.50000000E-01  8.50000000E-01  8.50000000E-01  8.00000000E-01  8.50000000E-01
  8.50000000E-01  8.50000000E-01  8.00000000E-01  8.50000000E-01  8.50000000E-01
  8.50000000E-01  8.00000000E-01  8.50000000E-01  8.50000000E-01  8.50000000E-01
  8.00000000E-01  8.50000000E-01  8.50000000E-01  8.50000000E-01  8.00000000E-01
  8.50000000E-01  8.50000000E-01  8.50000000E-01  8.00000000E-01  8.50000000E-01
  8.50000000E-01  8.50000000E-01  8.00000000E-01  8.50000000E-01  8.50000000E-01
  8.50000000E-01  8.00000000E-01  8.50000000E-01  8.50000000E-01  8.50000000E-01
  8.00000000E-01  8.50000000E-01  8.50000000E-01  8.50000000E-01  8.00000000E-01
  8.50000000E-01  8.50000000E-01  8.50000000E-01  8.00000000E-01  8.50000000E-01
  8.50000000E-01  8.50000000E-01  8.00000000E-01  8.50000000E-01  8.50000000E-01
  8.50000000E-01  8.00000000E-01  8.50000000E-01  8.50000000E-01  8.50000000E-01
  8.00000000E-01  8.50000000E-01  8.50000000E-01  8.50000000E-01  8.00000000E-01
  8.50000000E-01  8.50000000E-01  8.50000000E-01  8.00000000E-01  8.50000000E-01
  8.50000000E-01  8.50000000E-01  8.00000000E-01  8.50000000E-01  8.50000000E-01
  8.50000000E-01  8.00000000E-01  8.50000000E-01  8.50000000E-01  8.50000000E-01
  8.00000000E-01  8.50000000E-01  8.50000000E-01  8.50000000E-01  8.00000000E-01
  8.50000000E-01  8.50000000E-01  8.50000000E-01  8.00000000E-01  8.50000000E-01
  8.50000000E-01  8.50000000E-01  8.00000000E-01  8.50000000E-01  8.50000000E-01
  8.50000000E-01  8.00000000E-01  8.50000000E-01  8.50000000E-01  8.50000000E-01
  8.00000000E-01  8.50000000E-01  8.50000000E-01  8.50000000E-01  8.00000000E-01
  8.50000000E-01  8.50000000E-01  8.50000000E-01  8.00000000E-01  8.50000000E-01
  8.50000000E-01  8.50000000E-01  8.00000000E-01  8.50000000E-01  8.50000000E-01
  8.50000000E-01  8.00000000E-01  8.50000000E-01  8.50000000E-01  8.50000000E-01
  8.00000000E-01  8.50000000E-01  8.50000000E-01  8.50000000E-01  8.00000000E-01
  8.50000000E-01  8.50000000E-01  8.50000000E-01  8.00000000E-01  8.50000000E-01
  8.50000000E-01  8.50000000E-01  8.00000000E-01  8.50000000E-01  8.50000000E-01
  8.50000000E-01  8.00000000E-01  8.50000000E-01  8.50000000E-01  8.50000000E-01
  8.00000000E-01  8.50000000E-01  8.50000000E-01  8.50000000E-01  8.00000000E-01
  8.50000000E-01  8.50000000E-01  8.50000000E-01  8.00000000E-01  8.50000000E-01
  8.50000000E-01  8.50000000E-01  8.00000000E-01  8.50000000E-01  8.50000000E-01
  8.50000000E-01  8.00000000E-01  8.50000000E-01  8.50000000E-01  8.50000000E-01
  8.00000000E-01  8.50000000E-01  8.50000000E-01  8.50000000E-01  8.00000000E-01
  8.50000000E-01  8.50000000E-01  8.50000000E-01  8.00000000E-01  8.50000000E-01
  8.50000000E-01  8.50000000E-01  8.00000000E-01  8.50000000E-01  8.50000000E-01
  8.50000000E-01  8.00000000E-01  8.50000000E-01  8.50000000E-01  8.50000000E-01
  8.00000000E-01  8.50000000E-01  8.50000000E-01  8.50000000E-01  8.00000000E-01
  8.50000000E-01  8.50000000E-01  8.50000000E-01  8.00000000E-01  8.50000000E-01
  8.50000000E-01  8.50000000E-01  8.00000000E-01  8.50000000E-01  8.50000000E-01
  8.50000000E-01  8.00000000E-01  8.50000000E-01  8.50000000E-01  8.50000000E-01
  8.00000000E-01  8.50000000E-01  8.50000000E-01  8.50000000E-01  8.00000000E-01
  8.50000000E-01  8.50000000E-01  8.50000000E-01  8.00000000E-01  8.50000000E-01
  8.50000000E-01  8.50000000E-01  8.00000000E-01  8.50000000E-01  8.50000000E-01
  8.50000000E-01  8.00000000E-01  8.50000000E-01  8.50000000E-01  8.50000000E-01
  8.00000000E-01  8.50000000E-01  8.50000000E-01  8.50000000E-01  8.00000000E-01
  8.50000000E-01  8.50000000E-01  8.50000000E-01  8.00000000E-01  8.50000000E-01
  8.50000000E-01  8.50000000E-01  8.00000000E-01  8.50000000E-01  8.50000000E-01
  8.50000000E-01  8.00000000E-01  8.50000000E-01  8.50000000E-01  8.50000000E-01
  8.00000000E-01  8.50000000E-01  8.50000000E-01  8.50000000E-01  8.00000000E-01
  8.50000000E-01  8.50000000E-01  8.50000000E-01  8.00000000E-01  8.50000000E-01
  8.50000000E-01  8.50000000E-01  8.00000000E-01  8.50000000E-01  8.50000000E-01
  8.50000000E-01  8.00000000E-01  8.50000000E-01  8.50000000E-01  8.50000000E-01
  8.00000000E-01  8.50000000E-01  8.50000000E-01  8.50000000E-01  8.00000000E-01
  8.50000000E-01  8.50000000E-01  8.50000000E-01  8.00000000E-01  8.50000000E-01
  8.50000000E-01  8.50000000E-01  8.00000000E-01  8.50000000E-01  8.50000000E-01
  8.50000000E-01  8.00000000E-01  8.50000000E-01  8.50000000E-01  8.50000000E-01
  8.00000000E-01  8.50000000E-01  8.50000000E-01  8.50000000E-01  8.00000000E-01
  8.50000000E-01  8.50000000E-01  8.50000000E-01  8.00000000E-01  8.50000000E-01
  8.50000000E-01  8.50000000E-01  8.00000000E-01  8.50000000E-01  8.50000000E-01
  8.50000000E-01  8.00000000E-01  8.50000000E-01  8.50000000E-01  8.50000000E-01
  8.00000000E-01  8.50000000E-01  8.50000000E-01  8.50000000E-01  8.00000000E-01
  8.50000000E-01  8.50000000E-01  8.50000000E-01  8.00000000E-01  8.50000000E-01
  8.50000000E-01  8.50000000E-01  8.00000000E-01  8.50000000E-01  8.50000000E-01
  8.50000000E-01  8.00000000E-01  8.50000000E-01  8.50000000E-01  8.50000000E-01
  8.00000000E-01  8.50000000E-01  8.50000000E-01  8.50000000E-01  8.00000000E-01
  8.50000000E-01  8.50000000E-01  8.50000000E-01  8.00000000E-01  8.50000000E-01
  8.50000000E-01  8.50000000E-01  8.00000000E-01  8.50000000E-01  8.50000000E-01
  8.50000000E-01  8.00000000E-01  8.50000000E-01  8.50000000E-01  8.50000000E-01
  8.00000000E-01  8.50000000E-01  8.50000000E-01  8.50000000E-01  8.00000000E-01
  8.50000000E-01  8.50000000E-01  8.50000000E-01  8.00000000E-01  8.50000000E-01
  8.50000000E-01  8.50000000E-01  8.00000000E-01  8.50000000E-01  8.50000000E-01
  8.50000000E-01  8.00000000E-01  8.50000000E-01  8.50000000E-01  8.50000000E-01
  8.00000000E-01  8.50000000E-01  8.50000000E-01  8.50000000E-01  8.00000000E-01
  8.50000000E-01  8.50000000E-01  8.50000000E-01  8.00000000E-01  8.50000000E-01
  8.50000000E-01  8.50000000E-01  8.00000000E-01  8.50000000E-01  8.50000000E-01
  8.50000000E-01  8.00000000E-01  8.50000000E-01  8.50000000E-01  8.50000000E-01
  8.00000000E-01  8.50000000E-01  8.50000000E-01  8.50000000E-01  8.00000000E-01
  8.50000000E-01  8.50000000E-01  8.50000000E-01  8.00000000E-01  8.50000000E-01
  8.50000000E-01  8.50000000E-01  8.00000000E-01  8.50000000E-01  8.50000000E-01
  8.50000000E-01  8.00000000E-01  8.50000000E-01  8.50000000E-01  8.50000000E-01
  8.00000000E-01  8.50000000E-01  8.50000000E-01  8.50000000E-01  8.00000000E-01
  8.50000000E-01  8.50000000E-01  8.50000000E-01  8.00000000E-01  8.50000000E-01
  8.50000000E-01  8.50000000E-01  8.00000000E-01  8.50000000E-01  8.50000000E-01
  8.50000000E-01  8.00000000E-01  8.50000000E-01  8.50000000E-01  8.50000000E-01
  8.00000000E-01  8.50000000E-01  8.50000000E-01  8.50000000E-01  8.00000000E-01
  8.50000000E-01  8.50000000E-01  8.50000000E-01  8.00000000E-01  8.50000000E-01
  8.50000000E-01  8.50000000E-01  8.00000000E-01  8.50000000E-01  8.50000000E-01
  8.50000000E-01  8.00000000E-01  8.50000000E-01  8.50000000E-01  8.50000000E-01
  8.00000000E-01  8.50000000E-01  8.50000000E-01  8.50000000E-01  8.00000000E-01
  8.50000000E-01  8.50000000E-01  8.50000000E-01  8.00000000E-01  8.50000000E-01
  8.50000000E-01  8.50000000E-01  8.00000000E-01  8.50000000E-01  8.50000000E-01
  8.50000000E-01  8.00000000E-01  8.50000000E-01  8.50000000E-01  8.50000000E-01
  8.00000000E-01  8.50000000E-01  8.50000000E-01  8.50000000E-01  8.00000000E-01
  8.50000000E-01  8.50000000E-01  8.50000000E-01  8.00000000E-01  8.50000000E-01
  8.50000000E-01  8.50000000E-01  8.00000000E-01  8.50000000E-01  8.50000000E-01
  8.50000000E-01  8.00000000E-01  8.50000000E-01  8.50000000E-01  8.50000000E-01
  8.00000000E-01  8.50000000E-01  8.50000000E-01  8.50000000E-01  8.00000000E-01
  8.50000000E-01  8.50000000E-01  8.50000000E-01  8.00000000E-01  8.50000000E-01
  8.50000000E-01  8.50000000E-01  8.00000000E-01  8.50000000E-01  8.50000000E-01
  8.50000000E-01  8.00000000E-01  8.50000000E-01  8.50000000E-01  8.50000000E-01
  8.00000000E-01  8.50000000E-01  8.50000000E-01  8.50000000E-01  8.00000000E-01
  8.50000000E-01  8.50000000E-01  8.50000000E-01  8.00000000E-01  8.50000000E-01
  8.50000000E-01  8.50000000E-01  8.00000000E-01  8.50000000E-01  8.50000000E-01
  8.50000000E-01  8.00000000E-01  8.50000000E-01  8.50000000E-01  8.50000000E-01
  8.00000000E-01  8.50000000E-01  8.50000000E-01  8.50000000E-01  8.00000000E-01
  8.50000000E-01  8.50000000E-01  8.50000000E-01  8.00000000E-01  8.50000000E-01
  8.50000000E-01  8.50000000E-01  8.00000000E-01  8.50000000E-01  8.50000000E-01
  8.50000000E-01  8.00000000E-01  8.50000000E-01  8.50000000E-01  8.50000000E-01
  8.00000000E-01  8.50000000E-01  8.50000000E-01  8.50000000E-01  8.00000000E-01
  8.50000000E-01  8.50000000E-01  8.50000000E-01  8.00000000E-01  8.50000000E-01
  8.50000000E-01  8.50000000E-01  8.00000000E-01  8.50000000E-01  8.50000000E-01
  8.50000000E-01  8.00000000E-01  8.50000000E-01  8.50000000E-01  8.50000000E-01
  8.00000000E-01  8.50000000E-01  8.50000000E-01  8.50000000E-01  8.00000000E-01
  8.50000000E-01  8.50000000E-01  8.50000000E-01  8.00000000E-01  8.50000000E-01
  8.50000000E-01  8.50000000E-01  8.00000000E-01  8.50000000E-01  8.50000000E-01
  8.50000000E-01  8.00000000E-01  8.50000000E-01  8.50000000E-01  8.50000000E-01
  8.00000000E-01  8.50000000E-01  8.50000000E-01  8.50000000E-01  8.00000000E-01
  8.50000000E-01  8.50000000E-01  8.50000000E-01  8.00000000E-01  8.50000000E-01
  8.50000000E-01  8.50000000E-01  8.00000000E-01  8.50000000E-01  8.50000000E-01
  8.50000000E-01  8.00000000E-01  8.50000000E-01  8.50000000E-01  8.50000000E-01
  8.00000000E-01  8.50000000E-01  8.50000000E-01  8.50000000E-01  8.00000000E-01
  8.50000000E-01  8.50000000E-01  8.50000000E-01  8.00000000E-01  8.50000000E-01
  8.50000000E-01  8.50000000E-01  8.00000000E-01  8.50000000E-01  8.50000000E-01
  8.50000000E-01  8.00000000E-01  8.50000000E-01  8.50000000E-01  8.50000000E-01
  8.00000000E-01  8.50000000E-01  8.50000000E-01  8.50000000E-01  8.00000000E-01
  8.50000000E-01  8.50000000E-01  8.50000000E-01  8.00000000E-01  8.50000000E-01
  8.50000000E-01  8.50000000E-01  8.00000000E-01  8.50000000E-01  8.50000000E-01
  8.50000000E-01  8.00000000E-01  8.50000000E-01  8.50000000E-01  8.50000000E-01
  8.00000000E-01  8.50000000E-01  8.50000000E-01  8.50000000E-01  8.00000000E-01
  8.50000000E-01  8.50000000E-01  8.50000000E-01  8.00000000E-01  8.50000000E-01
  8.50000000E-01  8.50000000E-01  8.00000000E-01  8.50000000E-01  8.50000000E-01
  8.50000000E-01  8.00000000E-01  8.50000000E-01  8.50000000E-01  8.50000000E-01
  8.00000000E-01  8.50000000E-01  8.50000000E-01  8.50000000E-01  8.00000000E-01
  8.50000000E-01  8.50000000E-01  8.50000000E-01  8.00000000E-01  8.50000000E-01
  8.50000000E-01  8.50000000E-01  8.00000000E-01  8.50000000E-01  8.50000000E-01
  8.50000000E-01  8.00000000E-01  8.50000000E-01  8.50000000E-01  8.50000000E-01
  8.00000000E-01  8.50000000E-01  8.50000000E-01  8.50000000E-01  8.00000000E-01
  8.50000000E-01  8.50000000E-01  8.50000000E-01  8.00000000E-01  8.50000000E-01
  8.50000000E-01  8.50000000E-01  8.00000000E-01  8.50000000E-01  8.50000000E-01
  8.50000000E-01  8.00000000E-01  8.50000000E-01  8.50000000E-01  8.50000000E-01
  8.00000000E-01  8.50000000E-01  8.50000000E-01  8.50000000E-01  8.00000000E-01
  8.50000000E-01  8.50000000E-01  8.50000000E-01  8.00000000E-01  8.50000000E-01
  8.50000000E-01  8.50000000E-01  8.00000000E-01  8.50000000E-01  8.50000000E-01
  8.50000000E-01  8.00000000E-01  8.50000000E-01  8.50000000E-01  8.50000000E-01
  8.00000000E-01  8.50000000E-01  8.50000000E-01  8.50000000E-01  8.00000000E-01
  8.50000000E-01  8.50000000E-01  8.50000000E-01  8.00000000E-01  8.50000000E-01
  8.50000000E-01  8.50000000E-01  8.00000000E-01  8.50000000E-01  8.50000000E-01
  8.50000000E-01  8.00000000E-01  8.50000000E-01  8.50000000E-01  8.50000000E-01
  8.00000000E-01  8.50000000E-01  8.50000000E-01  8.50000000E-01  8.00000000E-01
  8.50000000E-01  8.50000000E-01  8.50000000E-01  8.00000000E-01  8.50000000E-01
  8.50000000E-01  8.50000000E-01  8.00000000E-01  8.50000000E-01  8.50000000E-01
  8.50000000E-01  8.00000000E-01  8.50000000E-01  8.50000000E-01  8.50000000E-01
  8.00000000E-01  8.50000000E-01  8.50000000E-01  8.50000000E-01  8.00000000E-01
  8.50000000E-01  8.50000000E-01  8.50000000E-01  8.00000000E-01  8.50000000E-01
  8.50000000E-01  8.50000000E-01  8.00000000E-01  8.50000000E-01  8.50000000E-01
  8.50000000E-01  8.00000000E-01  8.50000000E-01  8.50000000E-01  8.50000000E-01
  8.00000000E-01  8.50000000E-01  8.50000000E-01  8.50000000E-01  8.00000000E-01
  8.50000000E-01  8.50000000E-01  8.50000000E-01  8.00000000E-01  8.50000000E-01
  8.50000000E-01  8.50000000E-01  8.00000000E-01  8.50000000E-01  8.50000000E-01
  8.50000000E-01  8.00000000E-01  8.50000000E-01  8.50000000E-01  8.50000000E-01
  8.00000000E-01  8.50000000E-01  8.50000000E-01  8.50000000E-01  8.00000000E-01
  8.50000000E-01  8.50000000E-01  8.50000000E-01  8.00000000E-01  8.50000000E-01
  8.50000000E-01  8.50000000E-01  8.00000000E-01  8.50000000E-01  8.50000000E-01
  8.50000000E-01  8.00000000E-01  8.50000000E-01  8.50000000E-01  8.50000000E-01
  8.00000000E-01  8.50000000E-01  8.50000000E-01  8.50000000E-01  8.00000000E-01
  8.50000000E-01  8.50000000E-01  8.50000000E-01  8.00000000E-01  8.50000000E-01
  8.50000000E-01  8.50000000E-01  8.00000000E-01  8.50000000E-01  8.50000000E-01
  8.50000000E-01  8.00000000E-01  8.50000000E-01  8.50000000E-01  8.50000000E-01
  8.00000000E-01  8.50000000E-01  8.50000000E-01  8.50000000E-01  8.00000000E-01
  8.50000000E-01  8.50000000E-01  8.50000000E-01  8.00000000E-01  8.50000000E-01
  8.50000000E-01  8.50000000E-01  8.00000000E-01  8.50000000E-01  8.50000000E-01
  8.50000000E-01  8.00000000E-01  8.50000000E-01  8.50000000E-01  8.50000000E-01
  8.00000000E-01  8.50000000E-01  8.50000000E-01  8.50000000E-01  8.00000000E-01
  8.50000000E-01  8.50000000E-01  8.50000000E-01  8.00000000E-01  8.50000000E-01
  8.50000000E-01  8.50000000E-01  8.00000000E-01  8.50000000E-01  8.50000000E-01
  8.50000000E-01  8.00000000E-01  8.50000000E-01  8.50000000E-01  8.50000000E-01
  8.00000000E-01  8.50000000E-01  8.50000000E-01  8.50000000E-01  8.00000000E-01
  8.50000000E-01  8.50000000E-01  8.50000000E-01  8.00000000E-01  8.50000000E-01
  8.50000000E-01  8.50000000E-01  8.00000000E-01  8.50000000E-01  8.50000000E-01
  8.50000000E-01  8.00000000E-01  8.50000000E-01  8.50000000E-01  8.50000000E-01
  8.00000000E-01  8.50000000E-01  8.50000000E-01  8.50000000E-01  8.00000000E-01
  8.50000000E-01  8.50000000E-01  8.50000000E-01  8.00000000E-01  8.50000000E-01
  8.50000000E-01  8.50000000E-01  8.00000000E-01  8.50000000E-01  8.50000000E-01
  8.50000000E-01  8.00000000E-01  8.50000000E-01  8.50000000E-01  8.50000000E-01
  8.00000000E-01  8.50000000E-01  8.50000000E-01  8.50000000E-01  8.00000000E-01
  8.50000000E-01  8.50000000E-01  8.50000000E-01  8.00000000E-01  8.50000000E-01
  8.50000000E-01  8.50000000E-01  8.00000000E-01  8.50000000E-01  8.50000000E-01
  8.50000000E-01  8.00000000E-01  8.50000000E-01  8.50000000E-01  8.50000000E-01
  8.00000000E-01  8.50000000E-01  8.50000000E-01  8.50000000E-01  8.00000000E-01
  8.50000000E-01  8.50000000E-01  8.50000000E-01  8.00000000E-01  8.50000000E-01
  8.50000000E-01  8.50000000E-01  8.00000000E-01  8.50000000E-01  8.50000000E-01
  8.50000000E-01  8.00000000E-01  8.50000000E-01  8.50000000E-01  8.50000000E-01
  8.00000000E-01  8.50000000E-01  8.50000000E-01  8.50000000E-01  8.00000000E-01
  8.50000000E-01  8.50000000E-01  8.50000000E-01  8.00000000E-01  8.50000000E-01
  8.50000000E-01  8.50000000E-01  8.00000000E-01  8.50000000E-01  8.50000000E-01
  8.50000000E-01  8.00000000E-01  8.50000000E-01  8.50000000E-01  8.50000000E-01
  8.00000000E-01  8.50000000E-01  8.50000000E-01  8.50000000E-01  8.00000000E-01
  8.50000000E-01  8.50000000E-01  8.50000000E-01  8.00000000E-01  8.50000000E-01
  8.50000000E-01  8.50000000E-01  8.00000000E-01  8.50000000E-01  8.50000000E-01
  8.50000000E-01  8.00000000E-01  8.50000000E-01  8.50000000E-01  8.50000000E-01
  8.00000000E-01  8.50000000E-01  8.50000000E-01  8.50000000E-01  8.00000000E-01
  8.50000000E-01  8.50000000E-01  8.50000000E-01  8.00000000E-01  8.50000000E-01
  8.50000000E-01  8.50000000E-01  8.00000000E-01  8.50000000E-01  8.50000000E-01
  8.50000000E-01  8.00000000E-01  8.50000000E-01  8.50000000E-01  8.50000000E-01
  8.00000000E-01  8.50000000E-01  8.50000000E-01  8.50000000E-01  8.00000000E-01
  8.50000000E-01  8.50000000E-01  8.50000000E-01  8.00000000E-01  8.50000000E-01
  8.50000000E-01  8.50000000E-01  8.00000000E-01  8.50000000E-01  8.50000000E-01
  8.50000000E-01  8.00000000E-01  8.50000000E-01  8.50000000E-01  8.50000000E-01
  8.00000000E-01  8.50000000E-01  8.50000000E-01  8.50000000E-01  8.00000000E-01
  8.50000000E-01  8.50000000E-01  8.50000000E-01  8.00000000E-01  8.50000000E-01
  8.50000000E-01  8.50000000E-01  8.00000000E-01  8.50000000E-01  8.50000000E-01
  8.50000000E-01  8.00000000E-01  8.50000000E-01  8.50000000E-01  8.50000000E-01
  8.00000000E-01  8.50000000E-01  8.50000000E-01  8.50000000E-01  8.00000000E-01
  8.50000000E-01  8.50000000E-01  8.50000000E-01  8.00000000E-01  8.50000000E-01
  8.50000000E-01  8.50000000E-01  8.00000000E-01  8.50000000E-01  8.50000000E-01
  8.50000000E-01  8.00000000E-01  8.50000000E-01  8.50000000E-01  8.50000000E-01
  8.00000000E-01  8.50000000E-01  8.50000000E-01  8.50000000E-01  8.00000000E-01
  8.50000000E-01  8.50000000E-01  8.50000000E-01  8.00000000E-01  8.50000000E-01
  8.50000000E-01  8.50000000E-01  8.00000000E-01  8.50000000E-01  8.50000000E-01
  8.50000000E-01  8.00000000E-01  8.50000000E-01  8.50000000E-01  8.50000000E-01
  8.00000000E-01  8.50000000E-01  8.50000000E-01  8.50000000E-01  8.00000000E-01
  8.50000000E-01  8.50000000E-01  8.50000000E-01  8.00000000E-01  8.50000000E-01
  8.50000000E-01  8.50000000E-01  8.00000000E-01  8.50000000E-01  8.50000000E-01
  8.50000000E-01  8.00000000E-01  8.50000000E-01  8.50000000E-01  8.50000000E-01
  8.00000000E-01  8.50000000E-01  8.50000000E-01  8.50000000E-01  8.00000000E-01
  8.50000000E-01  8.50000000E-01  8.50000000E-01  8.00000000E-01  8.50000000E-01
  8.50000000E-01  8.50000000E-01  8.00000000E-01  8.50000000E-01  8.50000000E-01
  8.50000000E-01  8.00000000E-01  8.50000000E-01  8.50000000E-01  8.50000000E-01
  8.00000000E-01  8.50000000E-01  8.50000000E-01  8.50000000E-01  8.00000000E-01
  8.50000000E-01  8.50000000E-01  8.50000000E-01  8.00000000E-01  8.50000000E-01
  8.50000000E-01  8.50000000E-01  8.00000000E-01  8.50000000E-01  8.50000000E-01
  8.50000000E-01  8.00000000E-01  8.50000000E-01  8.50000000E-01  8.50000000E-01
  8.00000000E-01  8.50000000E-01  8.50000000E-01  8.50000000E-01  8.00000000E-01
  8.50000000E-01  8.50000000E-01  8.50000000E-01  8.00000000E-01  8.50000000E-01
  8.50000000E-01  8.50000000E-01  8.00000000E-01  8.50000000E-01  8.50000000E-01
  8.50000000E-01  8.00000000E-01  8.50000000E-01  8.50000000E-01  8.50000000E-01
  8.00000000E-01  8.50000000E-01  8.50000000E-01  8.50000000E-01  8.00000000E-01
  8.50000000E-01  8.50000000E-01  8.50000000E-01  8.00000000E-01  8.50000000E-01
  8.50000000E-01  8.50000000E-01  8.00000000E-01  8.50000000E-01  8.50000000E-01
  8.50000000E-01  8.00000000E-01  8.50000000E-01  8.50000000E-01  8.50000000E-01
  8.00000000E-01  8.50000000E-01  8.50000000E-01  8.50000000E-01  8.00000000E-01
  8.50000000E-01  8.50000000E-01  8.50000000E-01  8.00000000E-01  8.50000000E-01
  8.50000000E-01  8.50000000E-01  8.00000000E-01  8.50000000E-01  8.50000000E-01
  8.50000000E-01  8.00000000E-01  8.50000000E-01  8.50000000E-01  8.50000000E-01
  8.00000000E-01  8.50000000E-01  8.50000000E-01  8.50000000E-01  8.00000000E-01
  8.50000000E-01  8.50000000E-01  8.50000000E-01  8.00000000E-01  8.50000000E-01
  8.50000000E-01  8.50000000E-01  8.00000000E-01  8.50000000E-01  8.50000000E-01
  8.50000000E-01  8.00000000E-01  8.50000000E-01  8.50000000E-01  8.50000000E-01
  8.00000000E-01  8.50000000E-01  8.50000000E-01  8.50000000E-01  8.00000000E-01
  8.50000000E-01  8.50000000E-01  8.50000000E-01  8.00000000E-01  8.50000000E-01
  8.50000000E-01  8.50000000E-01  8.00000000E-01  8.50000000E-01  8.50000000E-01
  8.50000000E-01  8.00000000E-01  8.50000000E-01  8.50000000E-01  8.50000000E-01
  8.00000000E-01  8.50000000E-01  8.50000000E-01  8.50000000E-01  8.00000000E-01
  8.50000000E-01  8.50000000E-01  8.50000000E-01  8.00000000E-01  8.50000000E-01
  8.50000000E-01  8.50000000E-01  8.00000000E-01  8.50000000E-01  8.50000000E-01
  8.50000000E-01  8.00000000E-01  8.50000000E-01  8.50000000E-01  8.50000000E-01
  8.00000000E-01  8.50000000E-01  8.50000000E-01  8.50000000E-01  8.00000000E-01
  8.50000000E-01  8.50000000E-01  8.50000000E-01  8.00000000E-01  8.50000000E-01
  8.50000000E-01  8.50000000E-01  8.00000000E-01  8.50000000E-01  8.50000000E-01
  8.50000000E-01  8.00000000E-01  8.50000000E-01  8.50000000E-01  8.50000000E-01
  8.00000000E-01  8.50000000E-01  8.50000000E-01  8.50000000E-01  8.00000000E-01
  8.50000000E-01  8.50000000E-01  8.50000000E-01  8.00000000E-01  8.50000000E-01
  8.50000000E-01  8.50000000E-01  8.00000000E-01  8.50000000E-01  8.50000000E-01
  8.50000000E-01  8.00000000E-01  8.50000000E-01  8.50000000E-01  8.50000000E-01
  8.00000000E-01  8.50000000E-01  8.50000000E-01  8.50000000E-01  8.00000000E-01
  8.50000000E-01  8.50000000E-01  8.50000000E-01  8.00000000E-01  8.50000000E-01
  8.50000000E-01  8.50000000E-01  8.00000000E-01  8.50000000E-01  8.50000000E-01
  8.50000000E-01  8.00000000E-01  8.50000000E-01  8.50000000E-01  8.50000000E-01
  8.00000000E-01  8.50000000E-01  8.50000000E-01  8.50000000E-01  8.00000000E-01
  8.50000000E-01  8.50000000E-01  8.50000000E-01  8.00000000E-01  8.50000000E-01
  8.50000000E-01  8.50000000E-01  8.00000000E-01  8.50000000E-01  8.50000000E-01
  8.50000000E-01  8.00000000E-01  8.50000000E-01  8.50000000E-01  8.50000000E-01
  8.00000000E-01  8.50000000E-01  8.50000000E-01  8.50000000E-01  8.00000000E-01
  8.50000000E-01  8.50000000E-01  8.50000000E-01  8.00000000E-01  8.50000000E-01
  8.50000000E-01  8.50000000E-01  8.00000000E-01  8.50000000E-01  8.50000000E-01
  8.50000000E-01  8.00000000E-01  8.50000000E-01  8.50000000E-01  8.50000000E-01
  8.00000000E-01  8.50000000E-01  8.50000000E-01  8.50000000E-01  8.00000000E-01
  8.50000000E-01  8.50000000E-01  8.50000000E-01  8.00000000E-01  8.50000000E-01
  8.50000000E-01  8.50000000E-01  8.00000000E-01  8.50000000E-01  8.50000000E-01
  8.50000000E-01  8.00000000E-01  8.50000000E-01  8.50000000E-01  8.50000000E-01
  8.00000000E-01  8.50000000E-01  8.50000000E-01  8.50000000E-01  8.00000000E-01
  8.50000000E-01  8.50000000E-01  8.50000000E-01  8.00000000E-01  8.50000000E-01
  8.50000000E-01  8.50000000E-01  8.00000000E-01  8.50000000E-01  8.50000000E-01
  8.50000000E-01  8.00000000E-01  8.50000000E-01  8.50000000E-01  8.50000000E-01
  8.00000000E-01  8.50000000E-01  8.50000000E-01  8.50000000E-01  8.00000000E-01
  8.50000000E-01  8.50000000E-01  8.50000000E-01  8.00000000E-01  8.50000000E-01
  8.50000000E-01  8.50000000E-01  8.00000000E-01  8.50000000E-01  8.50000000E-01
  8.50000000E-01  8.00000000E-01  8.50000000E-01  8.50000000E-01  8.50000000E-01
  8.00000000E-01  8.50000000E-01  8.50000000E-01  8.50000000E-01  8.00000000E-01
  8.50000000E-01  8.50000000E-01  8.50000000E-01  8.00000000E-01  8.50000000E-01
  8.50000000E-01  8.50000000E-01  8.00000000E-01  8.50000000E-01  8.50000000E-01
  8.50000000E-01  8.00000000E-01  8.50000000E-01  8.50000000E-01  8.50000000E-01
  8.00000000E-01  8.50000000E-01  8.50000000E-01  8.50000000E-01  8.00000000E-01
  8.50000000E-01  8.50000000E-01  8.50000000E-01  8.00000000E-01  8.50000000E-01
  8.50000000E-01  8.50000000E-01  8.00000000E-01  8.50000000E-01  8.50000000E-01
  8.50000000E-01  8.00000000E-01  8.50000000E-01  8.50000000E-01  8.50000000E-01
  8.00000000E-01  8.50000000E-01  8.50000000E-01  8.50000000E-01  8.00000000E-01
  8.50000000E-01  8.50000000E-01  8.50000000E-01  8.00000000E-01  8.50000000E-01
  8.50000000E-01  8.50000000E-01  8.00000000E-01  8.50000000E-01  8.50000000E-01
  8.50000000E-01  8.00000000E-01  8.50000000E-01  8.50000000E-01  8.50000000E-01
  8.00000000E-01  8.50000000E-01  8.50000000E-01  8.50000000E-01  8.00000000E-01
  8.50000000E-01  8.50000000E-01  8.50000000E-01  8.00000000E-01  8.50000000E-01
  8.50000000E-01  8.50000000E-01  8.00000000E-01  8.50000000E-01  8.50000000E-01
  8.50000000E-01  8.00000000E-01  8.50000000E-01  8.50000000E-01  8.50000000E-01
  8.00000000E-01  8.50000000E-01  8.50000000E-01  8.50000000E-01  8.00000000E-01
  8.50000000E-01  8.50000000E-01  8.50000000E-01  8.00000000E-01  8.50000000E-01
  8.50000000E-01  8.50000000E-01  8.00000000E-01  8.50000000E-01  8.50000000E-01
  8.50000000E-01  8.00000000E-01  8.50000000E-01  8.50000000E-01  8.50000000E-01
  8.00000000E-01  8.50000000E-01  8.50000000E-01  8.50000000E-01  8.00000000E-01
  8.50000000E-01  8.50000000E-01  8.50000000E-01  8.00000000E-01  8.50000000E-01
  8.50000000E-01  8.50000000E-01  8.00000000E-01  8.50000000E-01  8.50000000E-01
  8.50000000E-01  8.00000000E-01  8.50000000E-01  8.50000000E-01  8.50000000E-01
  8.00000000E-01  8.50000000E-01  8.50000000E-01  8.50000000E-01  8.00000000E-01
  8.50000000E-01  8.50000000E-01  8.50000000E-01  8.00000000E-01  8.50000000E-01
  8.50000000E-01  8.50000000E-01  8.00000000E-01  8.50000000E-01  8.50000000E-01
  8.50000000E-01  8.00000000E-01  8.50000000E-01  8.50000000E-01  8.50000000E-01
  8.00000000E-01  8.50000000E-01  8.50000000E-01  8.50000000E-01  8.00000000E-01
  8.50000000E-01  8.50000000E-01  8.50000000E-01  8.00000000E-01  8.50000000E-01
  8.50000000E-01  8.50000000E-01  8.00000000E-01  8.50000000E-01  8.50000000E-01
  8.50000000E-01  8.00000000E-01  8.50000000E-01  8.50000000E-01  8.50000000E-01
  8.00000000E-01  8.50000000E-01  8.50000000E-01  8.50000000E-01  8.00000000E-01
  8.50000000E-01  8.50000000E-01  8.50000000E-01  8.00000000E-01  8.50000000E-01
  8.50000000E-01  8.50000000E-01  8.00000000E-01  8.50000000E-01  8.50000000E-01
  8.50000000E-01  8.00000000E-01  8.50000000E-01  8.50000000E-01  8.50000000E-01
  8.00000000E-01  8.50000000E-01  8.50000000E-01  8.50000000E-01  8.00000000E-01
  8.50000000E-01  8.50000000E-01  8.50000000E-01  8.00000000E-01  8.50000000E-01
  8.50000000E-01  8.50000000E-01  8.00000000E-01  8.50000000E-01  8.50000000E-01
  8.50000000E-01  8.00000000E-01  8.50000000E-01  8.50000000E-01  8.50000000E-01
  8.00000000E-01  8.50000000E-01  8.50000000E-01  8.50000000E-01  8.00000000E-01
  8.50000000E-01  8.50000000E-01  8.50000000E-01  8.00000000E-01  8.50000000E-01
  8.50000000E-01  8.50000000E-01  8.00000000E-01  8.50000000E-01  8.50000000E-01
  8.50000000E-01  8.00000000E-01  8.50000000E-01  8.50000000E-01  8.50000000E-01
  8.00000000E-01  8.50000000E-01  8.50000000E-01  8.50000000E-01  8.00000000E-01
  8.50000000E-01  8.50000000E-01  8.50000000E-01  8.00000000E-01  8.50000000E-01
  8.50000000E-01  8.50000000E-01  8.00000000E-01  8.50000000E-01  8.50000000E-01
  8.50000000E-01  8.00000000E-01  8.50000000E-01  8.50000000E-01  8.50000000E-01
  8.00000000E-01  8.50000000E-01  8.50000000E-01  8.50000000E-01  8.00000000E-01
  8.50000000E-01  8.50000000E-01  8.50000000E-01  8.00000000E-01  8.50000000E-01
  8.50000000E-01  8.50000000E-01  8.00000000E-01  8.50000000E-01  8.50000000E-01
  8.50000000E-01  8.00000000E-01  8.50000000E-01  8.50000000E-01  8.50000000E-01
  8.00000000E-01  8.50000000E-01  8.50000000E-01  8.50000000E-01  8.00000000E-01
  8.50000000E-01  8.50000000E-01  8.50000000E-01  8.00000000E-01  8.50000000E-01
  8.50000000E-01  8.50000000E-01  8.00000000E-01  8.50000000E-01  8.50000000E-01
  8.50000000E-01  8.00000000E-01  8.50000000E-01  8.50000000E-01  8.50000000E-01
  8.00000000E-01  8.50000000E-01  8.50000000E-01  8.50000000E-01  8.00000000E-01
  8.50000000E-01  8.50000000E-01  8.50000000E-01  8.00000000E-01  8.50000000E-01
  8.50000000E-01  8.50000000E-01  8.00000000E-01  8.50000000E-01  8.50000000E-01
  8.50000000E-01  8.00000000E-01  8.50000000E-01  8.50000000E-01  8.50000000E-01
  8.00000000E-01  8.50000000E-01  8.50000000E-01  8.50000000E-01  8.00000000E-01
  8.50000000E-01  8.50000000E-01  8.50000000E-01  8.00000000E-01  8.50000000E-01
  8.50000000E-01  8.50000000E-01  8.00000000E-01  8.50000000E-01  8.50000000E-01
  8.50000000E-01  8.00000000E-01  8.50000000E-01  8.50000000E-01  8.50000000E-01
  8.00000000E-01  8.50000000E-01  8.50000000E-01  8.50000000E-01  8.00000000E-01
  8.50000000E-01  8.50000000E-01  8.50000000E-01  8.00000000E-01  8.50000000E-01
  8.50000000E-01  8.50000000E-01  8.00000000E-01  8.50000000E-01  8.50000000E-01
  8.50000000E-01  8.00000000E-01  8.50000000E-01  8.50000000E-01  8.50000000E-01
  8.00000000E-01  8.50000000E-01  8.50000000E-01  8.50000000E-01  8.00000000E-01
  8.50000000E-01  8.50000000E-01  8.50000000E-01  8.00000000E-01  8.50000000E-01
  8.50000000E-01  8.50000000E-01  8.00000000E-01  8.50000000E-01  8.50000000E-01
  8.50000000E-01  8.00000000E-01  8.50000000E-01  8.50000000E-01  8.50000000E-01
  8.00000000E-01  8.50000000E-01  8.50000000E-01  8.50000000E-01  8.00000000E-01
  8.50000000E-01  8.50000000E-01  8.50000000E-01  8.00000000E-01  8.50000000E-01
  8.50000000E-01  8.50000000E-01  8.00000000E-01  8.50000000E-01  8.50000000E-01
  8.50000000E-01  8.00000000E-01  8.50000000E-01  8.50000000E-01  8.50000000E-01
  8.00000000E-01  8.50000000E-01  8.50000000E-01  8.50000000E-01  8.00000000E-01
  8.50000000E-01  8.50000000E-01  8.50000000E-01  8.00000000E-01  8.50000000E-01
  8.50000000E-01  8.50000000E-01  8.00000000E-01  8.50000000E-01  8.50000000E-01
  8.50000000E-01  8.00000000E-01  8.50000000E-01  8.50000000E-01  8.50000000E-01
  8.00000000E-01  8.50000000E-01  8.50000000E-01  8.50000000E-01  8.00000000E-01
  8.50000000E-01  8.50000000E-01  8.50000000E-01  8.00000000E-01  8.50000000E-01
  8.50000000E-01  8.50000000E-01  8.00000000E-01  8.50000000E-01  8.50000000E-01
  8.50000000E-01  8.00000000E-01  8.50000000E-01  8.50000000E-01  8.50000000E-01
  8.00000000E-01  8.50000000E-01  8.50000000E-01  8.50000000E-01  8.00000000E-01
  8.50000000E-01  8.50000000E-01  8.50000000E-01  8.00000000E-01  8.50000000E-01
  8.50000000E-01  8.50000000E-01  8.00000000E-01  8.50000000E-01  8.50000000E-01
  8.50000000E-01  8.00000000E-01  8.50000000E-01  8.50000000E-01  8.50000000E-01
  8.00000000E-01  8.50000000E-01  8.50000000E-01  8.50000000E-01  8.00000000E-01
  8.50000000E-01  8.50000000E-01  8.50000000E-01  8.00000000E-01  8.50000000E-01
  8.50000000E-01  8.50000000E-01  8.00000000E-01  8.50000000E-01  8.50000000E-01
  8.50000000E-01  8.00000000E-01  8.50000000E-01  8.50000000E-01  8.50000000E-01
  8.00000000E-01  8.50000000E-01  8.50000000E-01  8.50000000E-01  8.00000000E-01
  8.50000000E-01  8.50000000E-01  8.50000000E-01  8.00000000E-01  8.50000000E-01
  8.50000000E-01  8.50000000E-01  8.00000000E-01  8.50000000E-01  8.50000000E-01
  8.50000000E-01  8.00000000E-01  8.50000000E-01  8.50000000E-01  8.50000000E-01
  8.00000000E-01  8.50000000E-01  8.50000000E-01  8.50000000E-01  8.00000000E-01
  8.50000000E-01  8.50000000E-01  8.50000000E-01  8.00000000E-01  8.50000000E-01
  8.50000000E-01  8.50000000E-01  8.00000000E-01  8.50000000E-01  8.50000000E-01
  8.50000000E-01  8.00000000E-01  8.50000000E-01  8.50000000E-01  8.50000000E-01
  8.00000000E-01  8.50000000E-01  8.50000000E-01  8.50000000E-01  8.00000000E-01
  8.50000000E-01  8.50000000E-01  8.50000000E-01  8.00000000E-01  8.50000000E-01
  8.50000000E-01  8.50000000E-01  8.00000000E-01  8.50000000E-01  8.50000000E-01
  8.50000000E-01  8.00000000E-01  8.50000000E-01  8.50000000E-01  8.50000000E-01
  8.00000000E-01  8.50000000E-01  8.50000000E-01  8.50000000E-01  8.00000000E-01
  8.50000000E-01  8.50000000E-01  8.50000000E-01  8.00000000E-01  8.50000000E-01
  8.50000000E-01  8.50000000E-01  8.00000000E-01  8.50000000E-01  8.50000000E-01
  8.50000000E-01  8.00000000E-01  8.50000000E-01  8.50000000E-01  8.50000000E-01
  8.00000000E-01  8.50000000E-01  8.50000000E-01  8.50000000E-01  8.00000000E-01
  8.50000000E-01  8.50000000E-01  8.50000000E-01  8.00000000E-01  8.50000000E-01
  8.50000000E-01  8.50000000E-01  8.00000000E-01  8.50000000E-01  8.50000000E-01
  8.50000000E-01  8.00000000E-01  8.50000000E-01  8.50000000E-01  8.50000000E-01
  8.00000000E-01  8.50000000E-01  8.50000000E-01  8.50000000E-01  8.00000000E-01
  8.50000000E-01  8.50000000E-01  8.50000000E-01  8.00000000E-01  8.50000000E-01
  8.50000000E-01  8.50000000E-01  8.00000000E-01  8.50000000E-01  8.50000000E-01
  8.50000000E-01  8.00000000E-01  8.50000000E-01  8.50000000E-01  8.50000000E-01
  8.00000000E-01  8.50000000E-01  8.50000000E-01  8.50000000E-01  8.00000000E-01
  8.50000000E-01  8.50000000E-01  8.50000000E-01  8.00000000E-01  8.50000000E-01
  8.50000000E-01  8.50000000E-01  8.00000000E-01  8.50000000E-01  8.50000000E-01
  8.50000000E-01  8.00000000E-01  8.50000000E-01  8.50000000E-01  8.50000000E-01
  8.00000000E-01  8.50000000E-01  8.50000000E-01  8.50000000E-01  8.00000000E-01
  8.50000000E-01  8.50000000E-01  8.50000000E-01  8.00000000E-01  8.50000000E-01
  8.50000000E-01  8.50000000E-01  8.00000000E-01  8.50000000E-01  8.50000000E-01
  8.50000000E-01  8.00000000E-01  8.50000000E-01  8.50000000E-01  8.50000000E-01
  8.00000000E-01  8.50000000E-01  8.50000000E-01  8.50000000E-01  8.00000000E-01
  8.50000000E-01  8.50000000E-01  8.50000000E-01  8.00000000E-01  8.50000000E-01
  8.50000000E-01  8.50000000E-01  8.00000000E-01  8.50000000E-01  8.50000000E-01
  8.50000000E-01  8.00000000E-01  8.50000000E-01  8.50000000E-01  8.50000000E-01
  8.00000000E-01  8.50000000E-01  8.50000000E-01  8.50000000E-01  8.00000000E-01
  8.50000000E-01  8.50000000E-01  8.50000000E-01  8.00000000E-01  8.50000000E-01
  8.50000000E-01  8.50000000E-01  8.00000000E-01  8.50000000E-01  8.50000000E-01
  8.50000000E-01  8.00000000E-01  8.50000000E-01  8.50000000E-01  8.50000000E-01
  8.00000000E-01  8.50000000E-01  8.50000000E-01  8.50000000E-01  8.00000000E-01
  8.50000000E-01  8.50000000E-01  8.50000000E-01  8.00000000E-01  8.50000000E-01
  8.50000000E-01  8.50000000E-01  8.00000000E-01  8.50000000E-01  8.50000000E-01
  8.50000000E-01  8.00000000E-01  8.50000000E-01  8.50000000E-01  8.50000000E-01
  8.00000000E-01  8.50000000E-01  8.50000000E-01  8.50000000E-01  8.00000000E-01
  8.50000000E-01  8.50000000E-01  8.50000000E-01  8.00000000E-01  8.50000000E-01
  8.50000000E-01  8.50000000E-01  8.00000000E-01  8.50000000E-01  8.50000000E-01
  8.50000000E-01  8.00000000E-01  8.50000000E-01  8.50000000E-01  8.50000000E-01
  8.00000000E-01  8.50000000E-01  8.50000000E-01  8.50000000E-01  8.00000000E-01
  8.50000000E-01  8.50000000E-01  8.50000000E-01  8.00000000E-01  8.50000000E-01
  8.50000000E-01  8.50000000E-01  8.00000000E-01  8.50000000E-01  8.50000000E-01
  8.50000000E-01  8.00000000E-01  8.50000000E-01  8.50000000E-01  8.50000000E-01
  8.00000000E-01  8.50000000E-01  8.50000000E-01  8.50000000E-01  8.00000000E-01
  8.50000000E-01  8.50000000E-01  8.50000000E-01  8.00000000E-01  8.50000000E-01
  8.50000000E-01  8.50000000E-01  8.00000000E-01  8.50000000E-01  8.50000000E-01
  8.50000000E-01  8.00000000E-01  8.50000000E-01  8.50000000E-01  8.50000000E-01
  8.00000000E-01  8.50000000E-01  8.50000000E-01  8.50000000E-01  8.00000000E-01
  8.50000000E-01  8.50000000E-01  8.50000000E-01  8.00000000E-01  8.50000000E-01
  8.50000000E-01  8.50000000E-01  8.00000000E-01  8.50000000E-01  8.50000000E-01
  8.50000000E-01  8.00000000E-01  8.50000000E-01  8.50000000E-01  8.50000000E-01
  8.00000000E-01  8.50000000E-01  8.50000000E-01  8.50000000E-01  8.00000000E-01
  8.50000000E-01  8.50000000E-01  8.50000000E-01  8.00000000E-01  8.50000000E-01
  8.50000000E-01  8.50000000E-01  8.00000000E-01  8.50000000E-01  8.50000000E-01
  8.50000000E-01  8.00000000E-01  8.50000000E-01  8.50000000E-01  8.50000000E-01
  8.00000000E-01  8.50000000E-01  8.50000000E-01  8.50000000E-01  8.00000000E-01
  8.50000000E-01  8.50000000E-01  8.50000000E-01  8.00000000E-01  8.50000000E-01
  8.50000000E-01  8.50000000E-01  8.00000000E-01  8.50000000E-01  8.50000000E-01
  8.50000000E-01  8.00000000E-01  8.50000000E-01  8.50000000E-01  8.50000000E-01
  8.00000000E-01  8.50000000E-01  8.50000000E-01  8.50000000E-01  8.00000000E-01
  8.50000000E-01  8.50000000E-01  8.50000000E-01  8.00000000E-01  8.50000000E-01
  8.50000000E-01  8.50000000E-01  8.00000000E-01  8.50000000E-01  8.50000000E-01
  8.50000000E-01  8.00000000E-01  8.50000000E-01  8.50000000E-01  8.50000000E-01
  8.00000000E-01  8.50000000E-01  8.50000000E-01  8.50000000E-01  8.00000000E-01
  8.50000000E-01  8.50000000E-01  8.50000000E-01  8.00000000E-01  8.50000000E-01
  8.50000000E-01  8.50000000E-01  8.00000000E-01  8.50000000E-01  8.50000000E-01
  8.50000000E-01  8.00000000E-01  8.50000000E-01  8.50000000E-01  8.50000000E-01
  8.00000000E-01  8.50000000E-01  8.50000000E-01  8.50000000E-01  8.00000000E-01
  8.50000000E-01  8.50000000E-01  8.50000000E-01  8.00000000E-01  8.50000000E-01
  8.50000000E-01  8.50000000E-01  8.00000000E-01  8.50000000E-01  8.50000000E-01
  8.50000000E-01  8.00000000E-01  8.50000000E-01  8.50000000E-01  8.50000000E-01
  8.00000000E-01  8.50000000E-01  8.50000000E-01  8.50000000E-01  8.00000000E-01
  8.50000000E-01  8.50000000E-01  8.50000000E-01  8.00000000E-01  8.50000000E-01
  8.50000000E-01  8.50000000E-01  8.00000000E-01  8.50000000E-01  8.50000000E-01
  8.50000000E-01  8.00000000E-01  8.50000000E-01  8.50000000E-01  8.50000000E-01
  8.00000000E-01  8.50000000E-01  8.50000000E-01  8.50000000E-01  8.00000000E-01
  8.50000000E-01  8.50000000E-01  8.50000000E-01  8.00000000E-01  8.50000000E-01
  8.50000000E-01  8.50000000E-01  8.00000000E-01  8.50000000E-01  8.50000000E-01
  8.50000000E-01  8.00000000E-01  8.50000000E-01  8.50000000E-01  8.50000000E-01
  8.00000000E-01  8.50000000E-01  8.50000000E-01  8.50000000E-01  8.00000000E-01
  8.50000000E-01  8.50000000E-01  8.50000000E-01  8.00000000E-01  8.50000000E-01
  8.50000000E-01  8.50000000E-01  8.00000000E-01  8.50000000E-01  8.50000000E-01
  8.50000000E-01  8.00000000E-01  8.50000000E-01  8.50000000E-01  8.50000000E-01
  8.00000000E-01  8.50000000E-01  8.50000000E-01  8.50000000E-01  8.00000000E-01
  8.50000000E-01  8.50000000E-01  8.50000000E-01  8.00000000E-01  8.50000000E-01
  8.50000000E-01  8.50000000E-01  8.00000000E-01  8.50000000E-01  8.50000000E-01
  8.50000000E-01  8.00000000E-01  8.50000000E-01  8.50000000E-01  8.50000000E-01
  8.00000000E-01  8.50000000E-01  8.50000000E-01  8.50000000E-01  8.00000000E-01
  8.50000000E-01  8.50000000E-01  8.50000000E-01  8.00000000E-01  8.50000000E-01
  8.50000000E-01  8.50000000E-01  8.00000000E-01  8.50000000E-01  8.50000000E-01
  8.50000000E-01  8.00000000E-01  8.50000000E-01  8.50000000E-01  8.50000000E-01
  8.00000000E-01  8.50000000E-01  8.50000000E-01  8.50000000E-01  8.00000000E-01
  8.50000000E-01  8.50000000E-01  8.50000000E-01  8.00000000E-01  8.50000000E-01
  8.50000000E-01  8.50000000E-01  8.00000000E-01  8.50000000E-01  8.50000000E-01
  8.50000000E-01  8.00000000E-01  8.50000000E-01  8.50000000E-01  8.50000000E-01
  8.00000000E-01  8.50000000E-01  8.50000000E-01  8.50000000E-01  8.00000000E-01
  8.50000000E-01  8.50000000E-01  8.50000000E-01  8.00000000E-01  8.50000000E-01
  8.50000000E-01  8.50000000E-01  8.00000000E-01  8.50000000E-01  8.50000000E-01
  8.50000000E-01  8.00000000E-01  8.50000000E-01  8.50000000E-01  8.50000000E-01
  8.00000000E-01  8.50000000E-01  8.50000000E-01  8.50000000E-01  8.00000000E-01
  8.50000000E-01  8.50000000E-01  8.50000000E-01  8.00000000E-01  8.50000000E-01
  8.50000000E-01  8.50000000E-01  8.00000000E-01  8.50000000E-01  8.50000000E-01
  8.50000000E-01  8.00000000E-01  8.50000000E-01  8.50000000E-01  8.50000000E-01
  8.00000000E-01  8.50000000E-01  8.50000000E-01  8.50000000E-01  8.00000000E-01
  8.50000000E-01  8.50000000E-01  8.50000000E-01  8.00000000E-01  8.50000000E-01
  8.50000000E-01  8.50000000E-01  8.00000000E-01  8.50000000E-01  8.50000000E-01
  8.50000000E-01  8.00000000E-01  8.50000000E-01  8.50000000E-01  8.50000000E-01
  8.00000000E-01  8.50000000E-01  8.50000000E-01  8.50000000E-01  8.00000000E-01
  8.50000000E-01  8.50000000E-01  8.50000000E-01  8.00000000E-01  8.50000000E-01
  8.50000000E-01  8.50000000E-01  8.00000000E-01  8.50000000E-01  8.50000000E-01
  8.50000000E-01  8.00000000E-01  8.50000000E-01  8.50000000E-01  8.50000000E-01
  8.00000000E-01  8.50000000E-01  8.50000000E-01  8.50000000E-01  8.00000000E-01
  8.50000000E-01  8.50000000E-01  8.50000000E-01  8.00000000E-01  8.50000000E-01
  8.50000000E-01  8.50000000E-01  8.00000000E-01  8.50000000E-01  8.50000000E-01
  8.50000000E-01  8.00000000E-01  8.50000000E-01  8.50000000E-01  8.50000000E-01
  8.00000000E-01  8.50000000E-01  8.50000000E-01  8.50000000E-01  8.00000000E-01
  8.50000000E-01  8.50000000E-01  8.50000000E-01  8.00000000E-01  8.50000000E-01
  8.50000000E-01  8.50000000E-01  8.00000000E-01  8.50000000E-01  8.50000000E-01
  8.50000000E-01  8.00000000E-01  8.50000000E-01  8.50000000E-01  8.50000000E-01
  8.00000000E-01  8.50000000E-01  8.50000000E-01  8.50000000E-01  8.00000000E-01
  8.50000000E-01  8.50000000E-01  8.50000000E-01  8.00000000E-01  8.50000000E-01
  8.50000000E-01  8.50000000E-01  8.00000000E-01  8.50000000E-01  8.50000000E-01
  8.50000000E-01  8.00000000E-01  8.50000000E-01  8.50000000E-01  8.50000000E-01
  8.00000000E-01  8.50000000E-01  8.50000000E-01  8.50000000E-01  8.00000000E-01
  8.50000000E-01  8.50000000E-01  8.50000000E-01  8.00000000E-01  8.50000000E-01
  8.50000000E-01  8.50000000E-01  8.00000000E-01  8.50000000E-01  8.50000000E-01
  8.50000000E-01  8.00000000E-01  8.50000000E-01  8.50000000E-01  8.50000000E-01
  8.00000000E-01  8.50000000E-01  8.50000000E-01  8.50000000E-01  8.00000000E-01
  8.50000000E-01  8.50000000E-01  8.50000000E-01  8.00000000E-01  8.50000000E-01
  8.50000000E-01  8.50000000E-01  8.00000000E-01  8.50000000E-01  8.50000000E-01
  8.50000000E-01  8.00000000E-01  8.50000000E-01  8.50000000E-01  8.50000000E-01
  8.00000000E-01  8.50000000E-01  8.50000000E-01  8.50000000E-01  8.00000000E-01
  8.50000000E-01  8.50000000E-01  8.50000000E-01  8.00000000E-01  8.50000000E-01
  8.50000000E-01  8.50000000E-01  8.00000000E-01  8.50000000E-01  8.50000000E-01
  8.50000000E-01  8.00000000E-01  8.50000000E-01  8.50000000E-01  8.50000000E-01
  8.00000000E-01  8.50000000E-01  8.50000000E-01  8.50000000E-01  8.00000000E-01
  8.50000000E-01  8.50000000E-01  8.50000000E-01  8.00000000E-01  8.50000000E-01
  8.50000000E-01  8.50000000E-01  8.00000000E-01  8.50000000E-01  8.50000000E-01
  8.50000000E-01  8.00000000E-01  8.50000000E-01  8.50000000E-01  8.50000000E-01
  8.00000000E-01  8.50000000E-01  8.50000000E-01  8.50000000E-01  8.00000000E-01
  8.50000000E-01  8.50000000E-01  8.50000000E-01  8.00000000E-01  8.50000000E-01
  8.50000000E-01  8.50000000E-01  8.00000000E-01  8.50000000E-01  8.50000000E-01
  8.50000000E-01  8.00000000E-01  8.50000000E-01  8.50000000E-01  8.50000000E-01
  8.00000000E-01  8.50000000E-01  8.50000000E-01  8.50000000E-01  8.00000000E-01
  8.50000000E-01  8.50000000E-01  8.50000000E-01  8.00000000E-01  8.50000000E-01
  8.50000000E-01  8.50000000E-01  8.00000000E-01  8.50000000E-01  8.50000000E-01
  8.50000000E-01  8.00000000E-01  8.50000000E-01  8.50000000E-01  8.50000000E-01
  8.00000000E-01  8.50000000E-01  8.50000000E-01  8.50000000E-01  8.00000000E-01
  8.50000000E-01  8.50000000E-01  8.50000000E-01  8.00000000E-01  8.50000000E-01
  8.50000000E-01  8.50000000E-01  8.00000000E-01  8.50000000E-01  8.50000000E-01
  8.50000000E-01  8.00000000E-01  8.50000000E-01  8.50000000E-01  8.50000000E-01
  8.00000000E-01  8.50000000E-01  8.50000000E-01  8.50000000E-01  8.00000000E-01
  8.50000000E-01  8.50000000E-01  8.50000000E-01  8.00000000E-01  8.50000000E-01
  8.50000000E-01  8.50000000E-01  8.00000000E-01  8.50000000E-01  8.50000000E-01
  8.50000000E-01  8.00000000E-01  8.50000000E-01  8.50000000E-01  8.50000000E-01
  8.00000000E-01  8.50000000E-01  8.50000000E-01  8.50000000E-01  8.00000000E-01
  8.50000000E-01  8.50000000E-01  8.50000000E-01  8.00000000E-01  8.50000000E-01
  8.50000000E-01  8.50000000E-01  8.00000000E-01  8.50000000E-01  8.50000000E-01
  8.50000000E-01  8.00000000E-01  8.50000000E-01  8.50000000E-01  8.50000000E-01
  8.00000000E-01  8.50000000E-01  8.50000000E-01  8.50000000E-01  8.00000000E-01
  8.50000000E-01  8.50000000E-01  8.50000000E-01  8.00000000E-01  8.50000000E-01
  8.50000000E-01  8.50000000E-01  8.00000000E-01  8.50000000E-01  8.50000000E-01
  8.50000000E-01  8.00000000E-01  8.50000000E-01  8.50000000E-01  8.50000000E-01
  8.00000000E-01  8.50000000E-01  8.50000000E-01  8.50000000E-01  8.00000000E-01
  8.50000000E-01  8.50000000E-01  8.50000000E-01  8.00000000E-01  8.50000000E-01
  8.50000000E-01  8.50000000E-01  8.00000000E-01  8.50000000E-01  8.50000000E-01
  8.50000000E-01  8.00000000E-01  8.50000000E-01  8.50000000E-01  8.50000000E-01
  8.00000000E-01  8.50000000E-01  8.50000000E-01  8.50000000E-01  8.00000000E-01
  8.50000000E-01  8.50000000E-01  8.50000000E-01  8.00000000E-01  8.50000000E-01
  8.50000000E-01  8.50000000E-01  8.00000000E-01  8.50000000E-01  8.50000000E-01
  8.50000000E-01  8.00000000E-01  8.50000000E-01  8.50000000E-01  8.50000000E-01
  8.00000000E-01  8.50000000E-01  8.50000000E-01  8.50000000E-01  8.00000000E-01
  8.50000000E-01  8.50000000E-01  8.50000000E-01  8.00000000E-01  8.50000000E-01
  8.50000000E-01  8.50000000E-01  8.00000000E-01  8.50000000E-01  8.50000000E-01
  8.50000000E-01  8.00000000E-01  8.50000000E-01  8.50000000E-01  8.50000000E-01
  8.00000000E-01  8.50000000E-01  8.50000000E-01  8.50000000E-01  8.00000000E-01
  8.50000000E-01  8.50000000E-01  8.50000000E-01  8.00000000E-01  8.50000000E-01
  8.50000000E-01  8.50000000E-01  8.00000000E-01  8.50000000E-01  8.50000000E-01
  8.50000000E-01  8.00000000E-01  8.50000000E-01  8.50000000E-01  8.50000000E-01
  8.00000000E-01  8.50000000E-01  8.50000000E-01  8.50000000E-01  8.00000000E-01
  8.50000000E-01  8.50000000E-01  8.50000000E-01  8.00000000E-01  8.50000000E-01
  8.50000000E-01  8.50000000E-01  8.00000000E-01  8.50000000E-01  8.50000000E-01
  8.50000000E-01  8.00000000E-01  8.50000000E-01  8.50000000E-01  8.50000000E-01
  8.00000000E-01  8.50000000E-01  8.50000000E-01  8.50000000E-01  8.00000000E-01
  8.50000000E-01  8.50000000E-01  8.50000000E-01  8.00000000E-01  8.50000000E-01
  8.50000000E-01  8.50000000E-01  8.00000000E-01  8.50000000E-01  8.50000000E-01
  8.50000000E-01  8.00000000E-01  8.50000000E-01  8.50000000E-01  8.50000000E-01
  8.00000000E-01  8.50000000E-01  8.50000000E-01  8.50000000E-01  8.00000000E-01
  8.50000000E-01  8.50000000E-01  8.50000000E-01  8.00000000E-01  8.50000000E-01
  8.50000000E-01  8.50000000E-01  8.00000000E-01  8.50000000E-01  8.50000000E-01
  8.50000000E-01  8.00000000E-01  8.50000000E-01  8.50000000E-01  8.50000000E-01
  8.00000000E-01  8.50000000E-01  8.50000000E-01  8.50000000E-01  8.00000000E-01
  8.50000000E-01  8.50000000E-01  8.50000000E-01  8.00000000E-01  8.50000000E-01
  8.50000000E-01  8.50000000E-01  8.00000000E-01  8.50000000E-01  8.50000000E-01
  8.50000000E-01  8.00000000E-01  8.50000000E-01  8.50000000E-01  8.50000000E-01
  8.00000000E-01  8.50000000E-01  8.50000000E-01  8.50000000E-01  8.00000000E-01
  8.50000000E-01  8.50000000E-01  8.50000000E-01  8.00000000E-01  8.50000000E-01
  8.50000000E-01  8.50000000E-01  8.00000000E-01  8.50000000E-01  8.50000000E-01
  8.50000000E-01  8.00000000E-01  8.50000000E-01  8.50000000E-01  8.50000000E-01
  8.00000000E-01  8.50000000E-01  8.50000000E-01  8.50000000E-01  8.00000000E-01
  8.50000000E-01  8.50000000E-01  8.50000000E-01  8.00000000E-01  8.50000000E-01
  8.50000000E-01  8.50000000E-01  8.00000000E-01  8.50000000E-01  8.50000000E-01
  8.50000000E-01  8.00000000E-01  8.50000000E-01  8.50000000E-01  8.50000000E-01
  8.00000000E-01  8.50000000E-01  8.50000000E-01  8.50000000E-01  8.00000000E-01
  8.50000000E-01  8.50000000E-01  8.50000000E-01  8.00000000E-01  8.50000000E-01
  8.50000000E-01  8.50000000E-01  8.00000000E-01  8.50000000E-01  8.50000000E-01
  8.50000000E-01  8.00000000E-01  8.50000000E-01  8.50000000E-01  8.50000000E-01
  8.00000000E-01  8.50000000E-01  8.50000000E-01  8.50000000E-01  8.00000000E-01
  8.50000000E-01  8.50000000E-01  8.50000000E-01  8.00000000E-01  8.50000000E-01
  8.50000000E-01  8.50000000E-01  8.00000000E-01  8.50000000E-01  8.50000000E-01
  8.50000000E-01  8.00000000E-01  8.50000000E-01  8.50000000E-01  8.50000000E-01
  8.00000000E-01  8.50000000E-01  8.50000000E-01  8.50000000E-01  8.00000000E-01
  8.50000000E-01  8.50000000E-01  8.50000000E-01  8.00000000E-01  8.50000000E-01
  8.50000000E-01  8.50000000E-01  8.00000000E-01  8.50000000E-01  8.50000000E-01
  8.50000000E-01  8.00000000E-01  8.50000000E-01  8.50000000E-01  8.50000000E-01
  8.00000000E-01  8.50000000E-01  8.50000000E-01  8.50000000E-01  8.00000000E-01
  8.50000000E-01  8.50000000E-01  8.50000000E-01  8.00000000E-01  8.50000000E-01
  8.50000000E-01  8.50000000E-01  8.00000000E-01  8.50000000E-01  8.50000000E-01
  8.50000000E-01  8.00000000E-01  8.50000000E-01  8.50000000E-01  8.50000000E-01
  8.00000000E-01  8.50000000E-01  8.50000000E-01  8.50000000E-01  8.00000000E-01
  8.50000000E-01  8.50000000E-01  8.50000000E-01  8.00000000E-01  8.50000000E-01
  8.50000000E-01  8.50000000E-01  8.00000000E-01  8.50000000E-01  8.50000000E-01
  8.50000000E-01  8.00000000E-01  8.50000000E-01  8.50000000E-01  8.50000000E-01
  8.00000000E-01  8.50000000E-01  8.50000000E-01  8.50000000E-01  8.00000000E-01
  8.50000000E-01  8.50000000E-01  8.50000000E-01  8.00000000E-01  8.50000000E-01
  8.50000000E-01  8.50000000E-01  8.00000000E-01  8.50000000E-01  8.50000000E-01
  8.50000000E-01  8.00000000E-01  8.50000000E-01  8.50000000E-01  8.50000000E-01
  8.00000000E-01  8.50000000E-01  8.50000000E-01  8.50000000E-01  8.00000000E-01
  8.50000000E-01  8.50000000E-01  8.50000000E-01  8.00000000E-01  8.50000000E-01
  8.50000000E-01  8.50000000E-01  8.00000000E-01  8.50000000E-01  8.50000000E-01
  8.50000000E-01  8.00000000E-01  8.50000000E-01  8.50000000E-01  8.50000000E-01
  8.00000000E-01  8.50000000E-01  8.50000000E-01  8.50000000E-01  8.00000000E-01
  8.50000000E-01  8.50000000E-01  8.50000000E-01  8.00000000E-01  8.50000000E-01
  8.50000000E-01  8.50000000E-01  8.00000000E-01  8.50000000E-01  8.50000000E-01
  8.50000000E-01  8.00000000E-01  8.50000000E-01  8.50000000E-01  8.50000000E-01
  8.00000000E-01  8.50000000E-01  8.50000000E-01  8.50000000E-01  8.00000000E-01
  8.50000000E-01  8.50000000E-01  8.50000000E-01  8.00000000E-01  8.50000000E-01
  8.50000000E-01  8.50000000E-01  8.00000000E-01  8.50000000E-01  8.50000000E-01
  8.50000000E-01  8.00000000E-01  8.50000000E-01  8.50000000E-01  8.50000000E-01
  8.00000000E-01  8.50000000E-01  8.50000000E-01  8.50000000E-01  8.00000000E-01
  8.50000000E-01  8.50000000E-01  8.50000000E-01  8.00000000E-01  8.50000000E-01
  8.50000000E-01  8.50000000E-01  8.00000000E-01  8.50000000E-01  8.50000000E-01
  8.50000000E-01  8.00000000E-01  8.50000000E-01  8.50000000E-01  8.50000000E-01
  8.00000000E-01  8.50000000E-01  8.50000000E-01  8.50000000E-01  8.00000000E-01
  8.50000000E-01  8.50000000E-01  8.50000000E-01  8.00000000E-01  8.50000000E-01
  8.50000000E-01  8.50000000E-01  8.00000000E-01  8.50000000E-01  8.50000000E-01
  8.50000000E-01  8.00000000E-01  8.50000000E-01  8.50000000E-01  8.50000000E-01
  8.00000000E-01  8.50000000E-01  8.50000000E-01  8.50000000E-01  8.00000000E-01
  8.50000000E-01  8.50000000E-01  8.50000000E-01  8.00000000E-01  8.50000000E-01
  8.50000000E-01  8.50000000E-01  8.00000000E-01  8.50000000E-01  8.50000000E-01
  8.50000000E-01  8.00000000E-01  8.50000000E-01  8.50000000E-01  8.50000000E-01
  8.00000000E-01  8.50000000E-01  8.50000000E-01  8.50000000E-01  8.00000000E-01
  8.50000000E-01  8.50000000E-01  8.50000000E-01  8.00000000E-01  8.50000000E-01
  8.50000000E-01  8.50000000E-01  8.00000000E-01  8.50000000E-01  8.50000000E-01
  8.50000000E-01  8.00000000E-01  8.50000000E-01  8.50000000E-01  8.50000000E-01
  8.00000000E-01  8.50000000E-01  8.50000000E-01  8.50000000E-01  8.00000000E-01
  8.50000000E-01  8.50000000E-01  8.50000000E-01  8.00000000E-01  8.50000000E-01
  8.50000000E-01  8.50000000E-01  8.00000000E-01  8.50000000E-01  8.50000000E-01
  8.50000000E-01  8.00000000E-01  8.50000000E-01  8.50000000E-01  8.50000000E-01
  8.00000000E-01  8.50000000E-01  8.50000000E-01  8.50000000E-01  8.00000000E-01
  8.50000000E-01  8.50000000E-01  8.50000000E-01  8.00000000E-01  8.50000000E-01
  8.50000000E-01  8.50000000E-01  8.00000000E-01  8.50000000E-01  8.50000000E-01
  8.50000000E-01  8.00000000E-01  8.50000000E-01  8.50000000E-01  8.50000000E-01
  8.00000000E-01  8.50000000E-01  8.50000000E-01  8.50000000E-01  8.00000000E-01
  8.50000000E-01  8.50000000E-01  8.50000000E-01  8.00000000E-01  8.50000000E-01
  8.50000000E-01  8.50000000E-01  8.00000000E-01  8.50000000E-01  8.50000000E-01
  8.50000000E-01  8.00000000E-01  8.50000000E-01  8.50000000E-01  8.50000000E-01
  8.00000000E-01  8.50000000E-01  8.50000000E-01  8.50000000E-01  8.00000000E-01
  8.50000000E-01  8.50000000E-01  8.50000000E-01  8.00000000E-01  8.50000000E-01
  8.50000000E-01  8.50000000E-01  8.00000000E-01  8.50000000E-01  8.50000000E-01
  8.50000000E-01  8.00000000E-01  8.50000000E-01  8.50000000E-01  8.50000000E-01
  8.00000000E-01  8.50000000E-01  8.50000000E-01  8.50000000E-01  8.00000000E-01
  8.50000000E-01  8.50000000E-01  8.50000000E-01  8.00000000E-01  8.50000000E-01
  8.50000000E-01  8.50000000E-01  8.00000000E-01  8.50000000E-01  8.50000000E-01
  8.50000000E-01  8.00000000E-01  8.50000000E-01  8.50000000E-01  8.50000000E-01
  8.00000000E-01  8.50000000E-01  8.50000000E-01  8.50000000E-01  8.00000000E-01
  8.50000000E-01  8.50000000E-01  8.50000000E-01  8.00000000E-01  8.50000000E-01
  8.50000000E-01  8.50000000E-01  8.00000000E-01  8.50000000E-01  8.50000000E-01
  8.50000000E-01  8.00000000E-01  8.50000000E-01  8.50000000E-01  8.50000000E-01
  8.00000000E-01  8.50000000E-01  8.50000000E-01  8.50000000E-01  8.00000000E-01
  8.50000000E-01  8.50000000E-01  8.50000000E-01  8.00000000E-01  8.50000000E-01
  8.50000000E-01  8.50000000E-01  8.00000000E-01  8.50000000E-01  8.50000000E-01
  8.50000000E-01  8.00000000E-01  8.50000000E-01  8.50000000E-01  8.50000000E-01
  8.00000000E-01  8.50000000E-01  8.50000000E-01  8.50000000E-01  8.00000000E-01
  8.50000000E-01  8.50000000E-01  8.50000000E-01  8.00000000E-01  8.50000000E-01
  8.50000000E-01  8.50000000E-01  8.00000000E-01  8.50000000E-01  8.50000000E-01
  8.50000000E-01  8.00000000E-01  8.50000000E-01  8.50000000E-01  8.50000000E-01
  8.00000000E-01  8.50000000E-01  8.50000000E-01  8.50000000E-01  8.00000000E-01
  8.50000000E-01  8.50000000E-01  8.50000000E-01  8.00000000E-01  8.50000000E-01
  8.50000000E-01  8.50000000E-01  8.00000000E-01  8.50000000E-01  8.50000000E-01
  8.50000000E-01  8.00000000E-01  8.50000000E-01  8.50000000E-01  8.50000000E-01
  8.00000000E-01  8.50000000E-01  8.50000000E-01  8.50000000E-01  8.00000000E-01
  8.50000000E-01  8.50000000E-01  8.50000000E-01  8.00000000E-01  8.50000000E-01
  8.50000000E-01  8.50000000E-01  8.00000000E-01  8.50000000E-01  8.50000000E-01
  8.50000000E-01  8.00000000E-01  8.50000000E-01  8.50000000E-01  8.50000000E-01
  8.00000000E-01  8.50000000E-01  8.50000000E-01  8.50000000E-01  8.00000000E-01
  8.50000000E-01  8.50000000E-01  8.50000000E-01  8.00000000E-01  8.50000000E-01
  8.50000000E-01  8.50000000E-01  8.00000000E-01  8.50000000E-01  8.50000000E-01
  8.50000000E-01  8.00000000E-01  8.50000000E-01  8.50000000E-01  8.50000000E-01
  8.00000000E-01  8.50000000E-01  8.50000000E-01  8.50000000E-01  8.00000000E-01
  8.50000000E-01  8.50000000E-01  8.50000000E-01  8.00000000E-01  8.50000000E-01
  8.50000000E-01  8.50000000E-01  8.00000000E-01  8.50000000E-01  8.50000000E-01
  8.50000000E-01  8.00000000E-01  8.50000000E-01  8.50000000E-01  8.50000000E-01
  8.00000000E-01  8.50000000E-01  8.50000000E-01  8.50000000E-01  8.00000000E-01
  8.50000000E-01  8.50000000E-01  8.50000000E-01  8.00000000E-01  8.50000000E-01
  8.50000000E-01  8.50000000E-01  8.00000000E-01  8.50000000E-01  8.50000000E-01
  8.50000000E-01  8.00000000E-01  8.50000000E-01  8.50000000E-01  8.50000000E-01
  8.00000000E-01  8.50000000E-01  8.50000000E-01  8.50000000E-01  8.00000000E-01
  8.50000000E-01  8.50000000E-01  8.50000000E-01  8.00000000E-01  8.50000000E-01
  8.50000000E-01  8.50000000E-01  8.00000000E-01  8.50000000E-01  8.50000000E-01
  8.50000000E-01  8.00000000E-01  8.50000000E-01  8.50000000E-01  8.50000000E-01
  8.00000000E-01  8.50000000E-01  8.50000000E-01  8.50000000E-01  8.00000000E-01
  8.50000000E-01  8.50000000E-01  8.50000000E-01  8.00000000E-01  8.50000000E-01
  8.50000000E-01  8.50000000E-01  8.00000000E-01  8.50000000E-01  8.50000000E-01
  8.50000000E-01  8.00000000E-01  8.50000000E-01  8.50000000E-01  8.50000000E-01
  8.00000000E-01  8.50000000E-01  8.50000000E-01  8.50000000E-01  8.00000000E-01
  8.50000000E-01  8.50000000E-01  8.50000000E-01  8.00000000E-01  8.50000000E-01
  8.50000000E-01  8.50000000E-01  8.00000000E-01  8.50000000E-01  8.50000000E-01
  8.50000000E-01  8.00000000E-01  8.50000000E-01  8.50000000E-01  8.50000000E-01
  8.00000000E-01  8.50000000E-01  8.50000000E-01  8.50000000E-01  8.00000000E-01
  8.50000000E-01  8.50000000E-01  8.50000000E-01  8.00000000E-01  8.50000000E-01
  8.50000000E-01  8.50000000E-01  8.00000000E-01  8.50000000E-01  8.50000000E-01
  8.50000000E-01  8.00000000E-01  8.50000000E-01  8.50000000E-01  8.50000000E-01
  8.00000000E-01  8.50000000E-01  8.50000000E-01  8.50000000E-01  8.00000000E-01
  8.50000000E-01  8.50000000E-01  8.50000000E-01  8.00000000E-01  8.50000000E-01
  8.50000000E-01  8.50000000E-01  8.00000000E-01  8.50000000E-01  8.50000000E-01
  8.50000000E-01  8.00000000E-01  8.50000000E-01  8.50000000E-01  8.50000000E-01
  8.00000000E-01  8.50000000E-01  8.50000000E-01  8.50000000E-01  8.00000000E-01
  8.50000000E-01  8.50000000E-01  8.50000000E-01  8.00000000E-01  8.50000000E-01
  8.50000000E-01  8.50000000E-01  8.00000000E-01  8.50000000E-01  8.50000000E-01
  8.50000000E-01  8.00000000E-01  8.50000000E-01  8.50000000E-01  8.50000000E-01
  8.00000000E-01  8.50000000E-01  8.50000000E-01  8.50000000E-01  8.00000000E-01
  8.50000000E-01  8.50000000E-01  8.50000000E-01  8.00000000E-01  8.50000000E-01
  8.50000000E-01  8.50000000E-01  8.00000000E-01  8.50000000E-01  8.50000000E-01
  8.50000000E-01  8.00000000E-01  8.50000000E-01  8.50000000E-01  8.50000000E-01
  8.00000000E-01  8.50000000E-01  8.50000000E-01  8.50000000E-01  8.00000000E-01
  8.50000000E-01  8.50000000E-01  8.50000000E-01  8.00000000E-01  8.50000000E-01
  8.50000000E-01  8.50000000E-01  8.00000000E-01  8.50000000E-01  8.50000000E-01
  8.50000000E-01  8.00000000E-01  8.50000000E-01  8.50000000E-01  8.50000000E-01
  8.00000000E-01  8.50000000E-01  8.50000000E-01  8.50000000E-01  8.00000000E-01
  8.50000000E-01  8.50000000E-01  8.50000000E-01  8.00000000E-01  8.50000000E-01
  8.50000000E-01  8.50000000E-01  8.00000000E-01  8.50000000E-01  8.50000000E-01
  8.50000000E-01  8.00000000E-01  8.50000000E-01  8.50000000E-01  8.50000000E-01
  8.00000000E-01  8.50000000E-01  8.50000000E-01  8.50000000E-01  8.00000000E-01
  8.50000000E-01  8.50000000E-01  8.50000000E-01  8.00000000E-01  8.50000000E-01
  8.50000000E-01  8.50000000E-01  8.00000000E-01  8.50000000E-01  8.50000000E-01
  8.50000000E-01  8.00000000E-01  8.50000000E-01  8.50000000E-01  8.50000000E-01
  8.00000000E-01  8.50000000E-01  8.50000000E-01  8.50000000E-01  8.00000000E-01
  8.50000000E-01  8.50000000E-01  8.50000000E-01  8.00000000E-01  8.50000000E-01
  8.50000000E-01  8.50000000E-01  8.00000000E-01  8.50000000E-01  8.50000000E-01
  8.50000000E-01  8.00000000E-01  8.50000000E-01  8.50000000E-01  8.50000000E-01
  8.00000000E-01  8.50000000E-01  8.50000000E-01  8.50000000E-01  8.00000000E-01
  8.50000000E-01  8.50000000E-01  8.50000000E-01  8.00000000E-01  8.50000000E-01
  8.50000000E-01  8.50000000E-01  8.00000000E-01  8.50000000E-01  8.50000000E-01
  8.50000000E-01  8.00000000E-01  8.50000000E-01  8.50000000E-01  8.50000000E-01
  8.00000000E-01  8.50000000E-01  8.50000000E-01  8.50000000E-01  8.00000000E-01
  8.50000000E-01  8.50000000E-01  8.50000000E-01  8.00000000E-01  8.50000000E-01
  8.50000000E-01  8.50000000E-01  8.00000000E-01  8.50000000E-01  8.50000000E-01
  8.50000000E-01  8.00000000E-01  8.50000000E-01  8.50000000E-01  8.50000000E-01
  8.00000000E-01  8.50000000E-01  8.50000000E-01  8.50000000E-01  8.00000000E-01
  8.50000000E-01  8.50000000E-01  8.50000000E-01  8.00000000E-01  8.50000000E-01
  8.50000000E-01  8.50000000E-01  8.00000000E-01  8.50000000E-01  8.50000000E-01
  8.50000000E-01  8.00000000E-01  8.50000000E-01  8.50000000E-01  8.50000000E-01
  8.00000000E-01  8.50000000E-01  8.50000000E-01  8.50000000E-01  8.00000000E-01
  8.50000000E-01  8.50000000E-01  8.50000000E-01  8.00000000E-01  8.50000000E-01
  8.50000000E-01  8.50000000E-01  8.00000000E-01  8.50000000E-01  8.50000000E-01
  8.50000000E-01  8.00000000E-01  8.50000000E-01  8.50000000E-01  8.50000000E-01
  8.00000000E-01  8.50000000E-01  8.50000000E-01  8.50000000E-01  8.00000000E-01
  8.50000000E-01  8.50000000E-01  8.50000000E-01  8.00000000E-01  8.50000000E-01
  8.50000000E-01  8.50000000E-01  8.00000000E-01  8.50000000E-01  8.50000000E-01
  8.50000000E-01  8.00000000E-01  8.50000000E-01  8.50000000E-01  8.50000000E-01
  8.00000000E-01  8.50000000E-01  8.50000000E-01  8.50000000E-01  8.00000000E-01
  8.50000000E-01  8.50000000E-01  8.50000000E-01  8.00000000E-01  8.50000000E-01
  8.50000000E-01  8.50000000E-01  8.00000000E-01  8.50000000E-01  8.50000000E-01
  8.50000000E-01  8.00000000E-01  8.50000000E-01  8.50000000E-01  8.50000000E-01
  8.00000000E-01  8.50000000E-01  8.50000000E-01  8.50000000E-01  8.00000000E-01
  8.50000000E-01  8.50000000E-01  8.50000000E-01  8.00000000E-01  8.50000000E-01
  8.50000000E-01  8.50000000E-01  8.00000000E-01  8.50000000E-01  8.50000000E-01
  8.50000000E-01  8.00000000E-01  8.50000000E-01  8.50000000E-01  8.50000000E-01
  8.00000000E-01  8.50000000E-01  8.50000000E-01  8.50000000E-01  8.00000000E-01
  8.50000000E-01  8.50000000E-01  8.50000000E-01  8.00000000E-01  8.50000000E-01
  8.50000000E-01  8.50000000E-01  8.00000000E-01  8.50000000E-01  8.50000000E-01
  8.50000000E-01  8.00000000E-01  8.50000000E-01  8.50000000E-01  8.50000000E-01
  8.00000000E-01  8.50000000E-01  8.50000000E-01  8.50000000E-01  8.00000000E-01
  8.50000000E-01  8.50000000E-01  8.50000000E-01  8.00000000E-01  8.50000000E-01
  8.50000000E-01  8.50000000E-01  8.00000000E-01  8.50000000E-01  8.50000000E-01
  8.50000000E-01  8.00000000E-01  8.50000000E-01  8.50000000E-01  8.50000000E-01
  8.00000000E-01  8.50000000E-01  8.50000000E-01  8.50000000E-01  8.00000000E-01
  8.50000000E-01  8.50000000E-01  8.50000000E-01  8.00000000E-01  8.50000000E-01
  8.50000000E-01  8.50000000E-01  8.00000000E-01  8.50000000E-01  8.50000000E-01
  8.50000000E-01  8.00000000E-01  8.50000000E-01  8.50000000E-01  8.50000000E-01
  8.00000000E-01  8.50000000E-01  8.50000000E-01  8.50000000E-01  8.00000000E-01
  8.50000000E-01  8.50000000E-01  8.50000000E-01  8.00000000E-01  8.50000000E-01
  8.50000000E-01  8.50000000E-01  8.00000000E-01  8.50000000E-01  8.50000000E-01
  8.50000000E-01  8.00000000E-01  8.50000000E-01  8.50000000E-01  8.50000000E-01
  8.00000000E-01  8.50000000E-01  8.50000000E-01  8.50000000E-01  8.00000000E-01
  8.50000000E-01  8.50000000E-01  8.50000000E-01  8.00000000E-01  8.50000000E-01
  8.50000000E-01  8.50000000E-01  8.00000000E-01  8.50000000E-01  8.50000000E-01
  8.50000000E-01  8.00000000E-01  8.50000000E-01  8.50000000E-01  8.50000000E-01
  8.00000000E-01  8.50000000E-01  8.50000000E-01  8.50000000E-01  8.00000000E-01
  8.50000000E-01  8.50000000E-01  8.50000000E-01  8.00000000E-01  8.50000000E-01
  8.50000000E-01  8.50000000E-01  8.00000000E-01  8.50000000E-01  8.50000000E-01
  8.50000000E-01  8.00000000E-01  8.50000000E-01  8.50000000E-01  8.50000000E-01
  8.00000000E-01  8.50000000E-01  8.50000000E-01  8.50000000E-01  8.00000000E-01
  8.50000000E-01  8.50000000E-01  8.50000000E-01  8.00000000E-01  8.50000000E-01
  8.50000000E-01  8.50000000E-01  8.00000000E-01  8.50000000E-01  8.50000000E-01
  8.50000000E-01  8.00000000E-01  8.50000000E-01  8.50000000E-01  8.50000000E-01
  8.00000000E-01  8.50000000E-01  8.50000000E-01  8.50000000E-01  8.00000000E-01
  8.50000000E-01  8.50000000E-01  8.50000000E-01  8.00000000E-01  8.50000000E-01
  8.50000000E-01  8.50000000E-01  8.00000000E-01  8.50000000E-01  8.50000000E-01
  8.50000000E-01  8.00000000E-01  8.50000000E-01  8.50000000E-01  8.50000000E-01
  8.00000000E-01  8.50000000E-01  8.50000000E-01  8.50000000E-01  8.00000000E-01
  8.50000000E-01  8.50000000E-01  8.50000000E-01  8.00000000E-01  8.50000000E-01
  8.50000000E-01  8.50000000E-01  8.00000000E-01  8.50000000E-01  8.50000000E-01
  8.50000000E-01  8.00000000E-01  8.50000000E-01  8.50000000E-01  8.50000000E-01
  8.00000000E-01  8.50000000E-01  8.50000000E-01  8.50000000E-01  8.00000000E-01
  8.50000000E-01  8.50000000E-01  8.50000000E-01  8.00000000E-01  8.50000000E-01
  8.50000000E-01  8.50000000E-01  8.00000000E-01  8.50000000E-01  8.50000000E-01
  8.50000000E-01  8.00000000E-01  8.50000000E-01  8.50000000E-01  8.50000000E-01
  8.00000000E-01  8.50000000E-01  8.50000000E-01  8.50000000E-01  8.00000000E-01
  8.50000000E-01  8.50000000E-01  8.50000000E-01  8.00000000E-01  8.50000000E-01
  8.50000000E-01  8.50000000E-01  8.00000000E-01  8.50000000E-01  8.50000000E-01
  8.50000000E-01  8.00000000E-01  8.50000000E-01  8.50000000E-01  8.50000000E-01
  8.00000000E-01  8.50000000E-01  8.50000000E-01  8.50000000E-01  8.00000000E-01
  8.50000000E-01  8.50000000E-01  8.50000000E-01  8.00000000E-01  8.50000000E-01
  8.50000000E-01  8.50000000E-01  8.00000000E-01  8.50000000E-01  8.50000000E-01
  8.50000000E-01  8.00000000E-01  8.50000000E-01  8.50000000E-01  8.50000000E-01
  8.00000000E-01  8.50000000E-01  8.50000000E-01  8.50000000E-01  8.00000000E-01
  8.50000000E-01  8.50000000E-01  8.50000000E-01  8.00000000E-01  8.50000000E-01
  8.50000000E-01  8.50000000E-01  8.00000000E-01  8.50000000E-01  8.50000000E-01
  8.50000000E-01  8.00000000E-01  8.50000000E-01  8.50000000E-01  8.50000000E-01
  8.00000000E-01  8.50000000E-01  8.50000000E-01  8.50000000E-01  8.00000000E-01
  8.50000000E-01  8.50000000E-01  8.50000000E-01  8.00000000E-01  8.50000000E-01
  8.50000000E-01  8.50000000E-01  8.00000000E-01  8.50000000E-01  8.50000000E-01
  8.50000000E-01  8.00000000E-01  8.50000000E-01  8.50000000E-01  8.50000000E-01
  8.00000000E-01  8.50000000E-01  8.50000000E-01  8.50000000E-01  8.00000000E-01
  8.50000000E-01  8.50000000E-01  8.50000000E-01  8.00000000E-01  8.50000000E-01
  8.50000000E-01  8.50000000E-01  8.00000000E-01  8.50000000E-01  8.50000000E-01
  8.50000000E-01  8.00000000E-01  8.50000000E-01  8.50000000E-01  8.50000000E-01
  8.00000000E-01  8.50000000E-01  8.50000000E-01  8.50000000E-01  8.00000000E-01
  8.50000000E-01  8.50000000E-01  8.50000000E-01  8.00000000E-01  8.50000000E-01
  8.50000000E-01  8.50000000E-01  8.00000000E-01  8.50000000E-01  8.50000000E-01
  8.50000000E-01  8.00000000E-01  8.50000000E-01  8.50000000E-01  8.50000000E-01
  8.00000000E-01  8.50000000E-01  8.50000000E-01  8.50000000E-01  8.00000000E-01
  8.50000000E-01  8.50000000E-01  8.50000000E-01  8.00000000E-01  8.50000000E-01
  8.50000000E-01  8.50000000E-01  8.00000000E-01  8.50000000E-01  8.50000000E-01
  8.50000000E-01  8.00000000E-01  8.50000000E-01  8.50000000E-01  8.50000000E-01
  8.00000000E-01  8.50000000E-01  8.50000000E-01  8.50000000E-01  8.00000000E-01
  8.50000000E-01  8.50000000E-01  8.50000000E-01  8.00000000E-01  8.50000000E-01
  8.50000000E-01  8.50000000E-01  8.00000000E-01  8.50000000E-01  8.50000000E-01
  8.50000000E-01  8.00000000E-01  8.50000000E-01  8.50000000E-01  8.50000000E-01
  8.00000000E-01  8.50000000E-01  8.50000000E-01  8.50000000E-01  8.00000000E-01
  8.50000000E-01  8.50000000E-01  8.50000000E-01  8.00000000E-01  8.50000000E-01
  8.50000000E-01  8.50000000E-01  8.00000000E-01  8.50000000E-01  8.50000000E-01
  8.50000000E-01  8.00000000E-01  8.50000000E-01  8.50000000E-01  8.50000000E-01
  8.00000000E-01  8.50000000E-01  8.50000000E-01  8.50000000E-01  8.00000000E-01
  8.50000000E-01  8.50000000E-01  8.50000000E-01  8.00000000E-01  8.50000000E-01
  8.50000000E-01  8.50000000E-01  8.00000000E-01  8.50000000E-01  8.50000000E-01
  8.50000000E-01  8.00000000E-01  8.50000000E-01  8.50000000E-01  8.50000000E-01
  8.00000000E-01  8.50000000E-01  8.50000000E-01  8.50000000E-01  8.00000000E-01
  8.50000000E-01  8.50000000E-01  8.50000000E-01  8.00000000E-01  8.50000000E-01
  8.50000000E-01  8.50000000E-01  8.00000000E-01  8.50000000E-01  8.50000000E-01
  8.50000000E-01  8.00000000E-01  8.50000000E-01  8.50000000E-01  8.50000000E-01
  8.00000000E-01  8.50000000E-01  8.50000000E-01  8.50000000E-01  8.00000000E-01
  8.50000000E-01  8.50000000E-01  8.50000000E-01  8.00000000E-01  8.50000000E-01
  8.50000000E-01  8.50000000E-01  8.00000000E-01  8.50000000E-01  8.50000000E-01
  8.50000000E-01  8.00000000E-01  8.50000000E-01  8.50000000E-01  8.50000000E-01
  8.00000000E-01  8.50000000E-01  8.50000000E-01  8.50000000E-01  8.00000000E-01
  8.50000000E-01  8.50000000E-01  8.50000000E-01  8.00000000E-01  8.50000000E-01
  8.50000000E-01  8.50000000E-01  8.00000000E-01  8.50000000E-01  8.50000000E-01
  8.50000000E-01  8.00000000E-01  8.50000000E-01  8.50000000E-01  8.50000000E-01
  8.00000000E-01  8.50000000E-01  8.50000000E-01  8.50000000E-01  8.00000000E-01
  8.50000000E-01  8.50000000E-01  8.50000000E-01  8.00000000E-01  8.50000000E-01
  8.50000000E-01  8.50000000E-01  8.00000000E-01  8.50000000E-01  8.50000000E-01
  8.50000000E-01  8.00000000E-01  8.50000000E-01  8.50000000E-01  8.50000000E-01
  8.00000000E-01  8.50000000E-01  8.50000000E-01  8.50000000E-01  8.00000000E-01
  8.50000000E-01  8.50000000E-01  8.50000000E-01  8.00000000E-01  8.50000000E-01
  8.50000000E-01  8.50000000E-01  8.00000000E-01  8.50000000E-01  8.50000000E-01
  8.50000000E-01  8.00000000E-01  8.50000000E-01  8.50000000E-01  8.50000000E-01
  8.00000000E-01  8.50000000E-01  8.50000000E-01  8.50000000E-01  8.00000000E-01
  8.50000000E-01  8.50000000E-01  8.50000000E-01  8.00000000E-01  8.50000000E-01
  8.50000000E-01  8.50000000E-01  8.00000000E-01  8.50000000E-01  8.50000000E-01
  8.50000000E-01  8.00000000E-01  8.50000000E-01  8.50000000E-01  8.50000000E-01
  8.00000000E-01  8.50000000E-01  8.50000000E-01  8.50000000E-01  8.00000000E-01
  8.50000000E-01  8.50000000E-01  8.50000000E-01  8.00000000E-01  8.50000000E-01
  8.50000000E-01  8.50000000E-01  8.00000000E-01  8.50000000E-01  8.50000000E-01
  8.50000000E-01  8.00000000E-01  8.50000000E-01  8.50000000E-01  8.50000000E-01
  8.00000000E-01  8.50000000E-01  8.50000000E-01  8.50000000E-01  8.00000000E-01
  8.50000000E-01  8.50000000E-01  8.50000000E-01  8.00000000E-01  8.50000000E-01
  8.50000000E-01  8.50000000E-01  8.00000000E-01  8.50000000E-01  8.50000000E-01
  8.50000000E-01  8.00000000E-01  8.50000000E-01  8.50000000E-01  8.50000000E-01
  8.00000000E-01  8.50000000E-01  8.50000000E-01  8.50000000E-01  8.00000000E-01
  8.50000000E-01  8.50000000E-01  8.50000000E-01  8.00000000E-01  8.50000000E-01
  8.50000000E-01  8.50000000E-01  8.00000000E-01  8.50000000E-01  8.50000000E-01
  8.50000000E-01  8.00000000E-01  8.50000000E-01  8.50000000E-01  8.50000000E-01
  8.00000000E-01  8.50000000E-01  8.50000000E-01  8.50000000E-01  8.00000000E-01
  8.50000000E-01  8.50000000E-01  8.50000000E-01  8.00000000E-01  8.50000000E-01
  8.50000000E-01  8.50000000E-01  8.00000000E-01  8.50000000E-01  8.50000000E-01
  8.50000000E-01  8.00000000E-01  8.50000000E-01  8.50000000E-01  8.50000000E-01
  8.00000000E-01  8.50000000E-01  8.50000000E-01  8.50000000E-01  8.00000000E-01
  8.50000000E-01  8.50000000E-01  8.50000000E-01  8.00000000E-01  8.50000000E-01
  8.50000000E-01  8.50000000E-01  8.00000000E-01  8.50000000E-01  8.50000000E-01
  8.50000000E-01  8.00000000E-01  8.50000000E-01  8.50000000E-01  8.50000000E-01
  8.00000000E-01  8.50000000E-01  8.50000000E-01  8.50000000E-01  8.00000000E-01
  8.50000000E-01  8.50000000E-01  8.50000000E-01  8.00000000E-01  8.50000000E-01
  8.50000000E-01  8.50000000E-01  8.00000000E-01  8.50000000E-01  8.50000000E-01
  8.50000000E-01  8.00000000E-01  8.50000000E-01  8.50000000E-01  8.50000000E-01
  8.00000000E-01  8.50000000E-01  8.50000000E-01  8.50000000E-01  8.00000000E-01
  8.50000000E-01  8.50000000E-01  8.50000000E-01  8.00000000E-01  8.50000000E-01
  8.50000000E-01  8.50000000E-01  8.00000000E-01  8.50000000E-01  8.50000000E-01
  8.50000000E-01  8.00000000E-01  8.50000000E-01  8.50000000E-01  8.50000000E-01
  8.00000000E-01  8.50000000E-01  8.50000000E-01  8.50000000E-01  8.00000000E-01
  8.50000000E-01  8.50000000E-01  8.50000000E-01  8.00000000E-01  8.50000000E-01
  8.50000000E-01  8.50000000E-01  8.00000000E-01  8.50000000E-01  8.50000000E-01
  8.50000000E-01  8.00000000E-01  8.50000000E-01  8.50000000E-01  8.50000000E-01
  8.00000000E-01  8.50000000E-01  8.50000000E-01  8.50000000E-01  8.00000000E-01
  8.50000000E-01  8.50000000E-01  8.50000000E-01  8.00000000E-01  8.50000000E-01
  8.50000000E-01  8.50000000E-01  8.00000000E-01  8.50000000E-01  8.50000000E-01
  8.50000000E-01  8.00000000E-01  8.50000000E-01  8.50000000E-01  8.50000000E-01
  8.00000000E-01  8.50000000E-01  8.50000000E-01  8.50000000E-01  8.00000000E-01
  8.50000000E-01  8.50000000E-01  8.50000000E-01  8.00000000E-01  8.50000000E-01
  8.50000000E-01  8.50000000E-01  8.00000000E-01  8.50000000E-01  8.50000000E-01
  8.50000000E-01  8.00000000E-01  8.50000000E-01  8.50000000E-01  8.50000000E-01
  8.00000000E-01  8.50000000E-01  8.50000000E-01  8.50000000E-01  8.00000000E-01
  8.50000000E-01  8.50000000E-01  8.50000000E-01  8.00000000E-01  8.50000000E-01
  8.50000000E-01  8.50000000E-01  8.00000000E-01  8.50000000E-01  8.50000000E-01
  8.50000000E-01  8.00000000E-01  8.50000000E-01  8.50000000E-01  8.50000000E-01
  8.00000000E-01  8.50000000E-01  8.50000000E-01  8.50000000E-01  8.00000000E-01
  8.50000000E-01  8.50000000E-01  8.50000000E-01  8.00000000E-01  8.50000000E-01
  8.50000000E-01  8.50000000E-01  8.00000000E-01  8.50000000E-01  8.50000000E-01
  8.50000000E-01  8.00000000E-01  8.50000000E-01  8.50000000E-01  8.50000000E-01
  8.00000000E-01  8.50000000E-01  8.50000000E-01  8.50000000E-01  8.00000000E-01
  8.50000000E-01  8.50000000E-01  8.50000000E-01  8.00000000E-01  8.50000000E-01
  8.50000000E-01  8.50000000E-01  8.00000000E-01  8.50000000E-01  8.50000000E-01
  8.50000000E-01  8.00000000E-01  8.50000000E-01  8.50000000E-01  8.50000000E-01
  8.00000000E-01  8.50000000E-01  8.50000000E-01  8.50000000E-01  8.00000000E-01
  8.50000000E-01  8.50000000E-01  8.50000000E-01  8.00000000E-01  8.50000000E-01
  8.50000000E-01  8.50000000E-01  8.00000000E-01  8.50000000E-01  8.50000000E-01
  8.50000000E-01  8.00000000E-01  8.50000000E-01  8.50000000E-01  8.50000000E-01
  8.00000000E-01  8.50000000E-01  8.50000000E-01  8.50000000E-01  8.00000000E-01
  8.50000000E-01  8.50000000E-01  8.50000000E-01  8.00000000E-01  8.50000000E-01
  8.50000000E-01  8.50000000E-01  8.00000000E-01  8.50000000E-01  8.50000000E-01
  8.50000000E-01  8.00000000E-01  8.50000000E-01  8.50000000E-01  8.50000000E-01
  8.00000000E-01  8.50000000E-01  8.50000000E-01  8.50000000E-01  8.00000000E-01
  8.50000000E-01  8.50000000E-01  8.50000000E-01  8.00000000E-01  8.50000000E-01
  8.50000000E-01  8.50000000E-01  8.00000000E-01  8.50000000E-01  8.50000000E-01
  8.50000000E-01  8.00000000E-01  8.50000000E-01  8.50000000E-01  8.50000000E-01
  8.00000000E-01  8.50000000E-01  8.50000000E-01  8.50000000E-01  8.00000000E-01
  8.50000000E-01  8.50000000E-01  8.50000000E-01  8.00000000E-01  8.50000000E-01
  8.50000000E-01  8.50000000E-01  8.00000000E-01  8.50000000E-01  8.50000000E-01
  8.50000000E-01  8.00000000E-01  8.50000000E-01  8.50000000E-01  8.50000000E-01
  8.00000000E-01  8.50000000E-01  8.50000000E-01  8.50000000E-01  8.00000000E-01
  8.50000000E-01  8.50000000E-01  8.50000000E-01  8.00000000E-01  8.50000000E-01
  8.50000000E-01  8.50000000E-01  8.00000000E-01  8.50000000E-01  8.50000000E-01
  8.50000000E-01  8.00000000E-01  8.50000000E-01  8.50000000E-01  8.50000000E-01
  8.00000000E-01  8.50000000E-01  8.50000000E-01  8.50000000E-01  8.00000000E-01
  8.50000000E-01  8.50000000E-01  8.50000000E-01  8.00000000E-01  8.50000000E-01
  8.50000000E-01  8.50000000E-01  8.00000000E-01  8.50000000E-01  8.50000000E-01
  8.50000000E-01  8.00000000E-01  8.50000000E-01  8.50000000E-01  8.50000000E-01
  8.00000000E-01  8.50000000E-01  8.50000000E-01  8.50000000E-01  8.00000000E-01
  8.50000000E-01  8.50000000E-01  8.50000000E-01  8.00000000E-01  8.50000000E-01
  8.50000000E-01  8.50000000E-01  8.00000000E-01  8.50000000E-01  8.50000000E-01
  8.50000000E-01  8.00000000E-01  8.50000000E-01  8.50000000E-01  8.50000000E-01
  8.00000000E-01  8.50000000E-01  8.50000000E-01  8.50000000E-01  8.00000000E-01
  8.50000000E-01  8.50000000E-01  8.50000000E-01  8.00000000E-01  8.50000000E-01
  8.50000000E-01  8.50000000E-01  8.00000000E-01  8.50000000E-01  8.50000000E-01
  8.50000000E-01  8.00000000E-01  8.50000000E-01  8.50000000E-01  8.50000000E-01
  8.00000000E-01  8.50000000E-01  8.50000000E-01  8.50000000E-01  8.00000000E-01
  8.50000000E-01  8.50000000E-01  8.50000000E-01  8.00000000E-01  8.50000000E-01
  8.50000000E-01  8.50000000E-01  8.00000000E-01  8.50000000E-01  8.50000000E-01
  8.50000000E-01  8.00000000E-01  8.50000000E-01  8.50000000E-01  8.50000000E-01
  8.00000000E-01  8.50000000E-01  8.50000000E-01  8.50000000E-01  8.00000000E-01
  8.50000000E-01  8.50000000E-01  8.50000000E-01  8.00000000E-01  8.50000000E-01
  8.50000000E-01  8.50000000E-01  8.00000000E-01  8.50000000E-01  8.50000000E-01
  8.50000000E-01  8.00000000E-01  8.50000000E-01  8.50000000E-01  8.50000000E-01
  8.00000000E-01  8.50000000E-01  8.50000000E-01  8.50000000E-01  8.00000000E-01
  8.50000000E-01  8.50000000E-01  8.50000000E-01  8.00000000E-01  8.50000000E-01
  8.50000000E-01  8.50000000E-01  8.00000000E-01  8.50000000E-01  8.50000000E-01
  8.50000000E-01  8.00000000E-01  8.50000000E-01  8.50000000E-01  8.50000000E-01
  8.00000000E-01  8.50000000E-01  8.50000000E-01  8.50000000E-01  8.00000000E-01
  8.50000000E-01  8.50000000E-01  8.50000000E-01  8.00000000E-01  8.50000000E-01
  8.50000000E-01  8.50000000E-01  8.00000000E-01  8.50000000E-01  8.50000000E-01
  8.50000000E-01  8.00000000E-01  8.50000000E-01  8.50000000E-01  8.50000000E-01
  8.00000000E-01  8.50000000E-01  8.50000000E-01  8.50000000E-01  8.00000000E-01
  8.50000000E-01  8.50000000E-01  8.50000000E-01  8.00000000E-01  8.50000000E-01
  8.50000000E-01  8.50000000E-01  8.00000000E-01  8.50000000E-01  8.50000000E-01
  8.50000000E-01  8.00000000E-01  8.50000000E-01  8.50000000E-01  8.50000000E-01
  8.00000000E-01  8.50000000E-01  8.50000000E-01  8.50000000E-01  8.00000000E-01
  8.50000000E-01  8.50000000E-01  8.50000000E-01  8.00000000E-01  8.50000000E-01
  8.50000000E-01  8.50000000E-01  8.00000000E-01  8.50000000E-01  8.50000000E-01
  8.50000000E-01  8.00000000E-01  8.50000000E-01  8.50000000E-01  8.50000000E-01
  8.00000000E-01  8.50000000E-01  8.50000000E-01  8.50000000E-01  8.00000000E-01
  8.50000000E-01  8.50000000E-01  8.50000000E-01  8.00000000E-01  8.50000000E-01
  8.50000000E-01  8.50000000E-01  8.00000000E-01  8.50000000E-01  8.50000000E-01
  8.50000000E-01  8.00000000E-01  8.50000000E-01  8.50000000E-01  8.50000000E-01
  8.00000000E-01  8.50000000E-01  8.50000000E-01  8.50000000E-01  8.00000000E-01
  8.50000000E-01  8.50000000E-01  8.50000000E-01  8.00000000E-01  8.50000000E-01
  8.50000000E-01  8.50000000E-01  8.00000000E-01  8.50000000E-01  8.50000000E-01
  8.50000000E-01  8.00000000E-01  8.50000000E-01  8.50000000E-01  8.50000000E-01
  8.00000000E-01  8.50000000E-01  8.50000000E-01  8.50000000E-01  8.00000000E-01
  8.50000000E-01  8.50000000E-01  8.50000000E-01  8.00000000E-01  8.50000000E-01
  8.50000000E-01  8.50000000E-01  8.00000000E-01  8.50000000E-01  8.50000000E-01
  8.50000000E-01  8.00000000E-01  8.50000000E-01  8.50000000E-01  8.50000000E-01
  8.00000000E-01  8.50000000E-01  8.50000000E-01  8.50000000E-01  8.00000000E-01
  8.50000000E-01  8.50000000E-01  8.50000000E-01  8.00000000E-01  8.50000000E-01
  8.50000000E-01  8.50000000E-01  8.00000000E-01  8.50000000E-01  8.50000000E-01
  8.50000000E-01  8.00000000E-01  8.50000000E-01  8.50000000E-01  8.50000000E-01
  8.00000000E-01  8.50000000E-01  8.50000000E-01  8.50000000E-01  8.00000000E-01
  8.50000000E-01  8.50000000E-01  8.50000000E-01  8.00000000E-01  8.50000000E-01
  8.50000000E-01  8.50000000E-01  8.00000000E-01  8.50000000E-01  8.50000000E-01
  8.50000000E-01  8.00000000E-01  8.50000000E-01  8.50000000E-01  8.50000000E-01
  8.00000000E-01  8.50000000E-01  8.50000000E-01  8.50000000E-01  8.00000000E-01
  8.50000000E-01  8.50000000E-01  8.50000000E-01  8.00000000E-01  8.50000000E-01
  8.50000000E-01  8.50000000E-01  8.00000000E-01  8.50000000E-01  8.50000000E-01
  8.50000000E-01  8.00000000E-01  8.50000000E-01  8.50000000E-01  8.50000000E-01
  8.00000000E-01  8.50000000E-01  8.50000000E-01  8.50000000E-01  8.00000000E-01
  8.50000000E-01  8.50000000E-01  8.50000000E-01  8.00000000E-01  8.50000000E-01
  8.50000000E-01  8.50000000E-01  8.00000000E-01  8.50000000E-01  8.50000000E-01
  8.50000000E-01  8.00000000E-01  8.50000000E-01  8.50000000E-01  8.50000000E-01
  8.00000000E-01  8.50000000E-01  8.50000000E-01  8.50000000E-01  8.00000000E-01
  8.50000000E-01  8.50000000E-01  8.50000000E-01  8.00000000E-01  8.50000000E-01
  8.50000000E-01  8.50000000E-01  8.00000000E-01  8.50000000E-01  8.50000000E-01
  8.50000000E-01  8.00000000E-01  8.50000000E-01  8.50000000E-01  8.50000000E-01
  8.00000000E-01  8.50000000E-01  8.50000000E-01  8.50000000E-01  8.00000000E-01
  8.50000000E-01  8.50000000E-01  8.50000000E-01  8.00000000E-01  8.50000000E-01
  8.50000000E-01  8.50000000E-01  8.00000000E-01  8.50000000E-01  8.50000000E-01
  8.50000000E-01  8.00000000E-01  8.50000000E-01  8.50000000E-01  8.50000000E-01
  8.00000000E-01  8.50000000E-01  8.50000000E-01  8.50000000E-01  8.00000000E-01
  8.50000000E-01  8.50000000E-01  8.50000000E-01  8.00000000E-01  8.50000000E-01
  8.50000000E-01  8.50000000E-01  8.00000000E-01  8.50000000E-01  8.50000000E-01
  8.50000000E-01  8.00000000E-01  8.50000000E-01  8.50000000E-01  8.50000000E-01
  8.00000000E-01  8.50000000E-01  8.50000000E-01  8.50000000E-01  8.00000000E-01
  8.50000000E-01  8.50000000E-01  8.50000000E-01  8.00000000E-01  8.50000000E-01
  8.50000000E-01  8.50000000E-01  8.00000000E-01  8.50000000E-01  8.50000000E-01
  8.50000000E-01  8.00000000E-01  8.50000000E-01  8.50000000E-01  8.50000000E-01
  8.00000000E-01  8.50000000E-01  8.50000000E-01  8.50000000E-01  8.00000000E-01
  8.50000000E-01  8.50000000E-01  8.50000000E-01  8.00000000E-01  8.50000000E-01
  8.50000000E-01  8.50000000E-01  8.00000000E-01  8.50000000E-01  8.50000000E-01
  8.50000000E-01  8.00000000E-01  8.50000000E-01  8.50000000E-01  8.50000000E-01
  8.00000000E-01  8.50000000E-01  8.50000000E-01  8.50000000E-01  8.00000000E-01
  8.50000000E-01  8.50000000E-01  8.50000000E-01  8.00000000E-01  8.50000000E-01
  8.50000000E-01  8.50000000E-01  8.00000000E-01  8.50000000E-01  8.50000000E-01
  8.50000000E-01  8.00000000E-01  8.50000000E-01  8.50000000E-01  8.50000000E-01
  8.00000000E-01  8.50000000E-01  8.50000000E-01  8.50000000E-01  8.00000000E-01
  8.50000000E-01  8.50000000E-01  8.50000000E-01  8.00000000E-01  8.50000000E-01
  8.50000000E-01  8.50000000E-01  8.00000000E-01  8.50000000E-01  8.50000000E-01
  8.50000000E-01  8.00000000E-01  8.50000000E-01  8.50000000E-01  8.50000000E-01
  8.00000000E-01  8.50000000E-01  8.50000000E-01  8.50000000E-01  8.00000000E-01
  8.50000000E-01  8.50000000E-01  8.50000000E-01  8.00000000E-01  8.50000000E-01
  8.50000000E-01  8.50000000E-01  8.00000000E-01  8.50000000E-01  8.50000000E-01
  8.50000000E-01  8.00000000E-01  8.50000000E-01  8.50000000E-01  8.50000000E-01
  8.00000000E-01  8.50000000E-01  8.50000000E-01  8.50000000E-01  8.00000000E-01
  8.50000000E-01  8.50000000E-01  8.50000000E-01  8.00000000E-01
%FLAG IPOL                                                                      
%FORMAT(1I8)                                                                    
       0
